Title
81359
    1CHL1    C3    1   1.518   3.933  10.232  0.0049  0.3562 -0.2683
    1CHL1    H3    2   1.610   3.995  10.234  0.6513 -0.5067 -1.8095
    1CHL1    O3    3   1.487   3.895  10.365 -0.6532  0.2582  0.8118
    1CHL1   H3'    4   1.565   3.851  10.401 -1.1411 -0.3594  1.1487
    1CHL1    C4    5   1.407   4.008  10.169  0.2138 -0.2350  0.1604
    1CHL1   H4A    6   1.312   3.950  10.172  0.6149 -0.8805  1.8182
    1CHL1   H4B    7   1.382   4.097  10.232  0.8254  0.9779 -1.2573
    1CHL1    C5    8   1.431   4.052  10.030  0.1073  1.0580 -0.1132
    1CHL1    C6    9   1.425   4.176   9.989 -0.4787  0.5307 -0.3242
    1CHL1    H6   10   1.401   4.258  10.058 -2.3756  0.9486 -1.4114
    1CHL1    C7   11   1.443   4.215   9.848 -0.0029 -0.4753 -0.9960
    1CHL1   H7A   12   1.363   4.283   9.812  1.2388  1.6230 -0.0308
    1CHL1   H7B   13   1.542   4.264   9.833 -0.4472  0.7230 -0.1519
    1CHL1    C8   14   1.435   4.096   9.753  0.3181  0.0986 -0.2226
    1CHL1    H8   15   1.329   4.063   9.750 -0.3439  2.0807  0.0889
    1CHL1   C14   16   1.480   4.144   9.619 -0.5519  0.0856  0.1062
    1CHL1   H14   17   1.583   4.183   9.635 -0.2652 -1.1120  1.3617
    1CHL1   C15   18   1.416   4.273   9.561 -0.2177  0.0947 -0.0859
    1CHL1  H15A   19   1.306   4.269   9.549 -0.1665  0.4834 -0.7806
    1CHL1  H15B   20   1.449   4.358   9.624  1.7525  0.4440 -1.4877
    1CHL1   C16   21   1.469   4.271   9.417  0.1128 -0.1307 -0.3336
    1CHL1  H16A   22   1.383   4.292   9.349  1.5079  0.2743 -2.0350
    1CHL1  H16B   23   1.543   4.350   9.392  2.6112 -2.2838 -0.2154
    1CHL1   C17   24   1.520   4.125   9.391  0.1406 -0.1349  0.3622
    1CHL1   H17   25   1.629   4.144   9.407 -0.2498  2.3206  0.5686
    1CHL1   C13   26   1.483   4.042   9.515  0.2279  0.4700  0.0220
    1CHL1   C18   27   1.334   3.997   9.489  0.4392  0.3185  0.0111
    1CHL1  H18A   28   1.256   4.067   9.451 -2.9501 -3.7703 -1.4318
    1CHL1  H18B   29   1.331   3.906   9.425 -0.3292 -1.3445  2.2645
    1CHL1  H18C   30   1.290   3.955   9.582  0.7209 -1.5127 -0.6321
    1CHL1   C12   31   1.577   3.931   9.568 -0.1499  0.3062  0.4843
    1CHL1  H12A   32   1.584   3.849   9.494 -0.9043  1.4206 -0.8546
    1CHL1  H12B   33   1.673   3.981   9.592  0.7113 -0.6434 -0.8673
    1CHL1   C11   34   1.538   3.865   9.702 -0.3140  0.2446  0.3752
    1CHL1  H11A   35   1.439   3.816   9.687 -0.9291  0.1098  4.0589
    1CHL1  H11B   36   1.621   3.800   9.735 -0.6942 -0.9483 -0.9155
    1CHL1    C9   37   1.524   3.982   9.806 -0.3050  0.3472  0.4404
    1CHL1    H9   38   1.627   4.024   9.813 -1.2687  2.6431  2.5253
    1CHL1   C10   39   1.486   3.933   9.941 -0.0179  0.6059 -0.5996
    1CHL1   C19   40   1.379   3.825   9.933  0.5502 -0.3844  0.6125
    1CHL1  H19A   41   1.416   3.735   9.880 -2.3728 -1.5010  0.2901
    1CHL1  H19B   42   1.329   3.792  10.027 -1.3603 -1.0903 -0.5847
    1CHL1  H19C   43   1.301   3.870   9.867  0.8959 -0.2410  0.3025
    1CHL1    C1   44   1.600   3.854  10.011 -0.9957  0.4469  0.3825
    1CHL1   H1A   45   1.627   3.769   9.945 -0.1064  0.4037  0.7840
    1CHL1   H1B   46   1.685   3.926  10.001 -0.3678 -0.2323  0.7012
    1CHL1    C2   47   1.570   3.810  10.160 -0.1057 -0.7882 -0.0573
    1CHL1   H2A   48   1.666   3.786  10.211 -1.2821 -1.2764  2.0434
    1CHL1   H2B   49   1.499   3.725  10.170 -0.5629 -0.4987 -0.7770
    1CHL1   C20   50   1.491   4.071   9.249 -0.1019 -0.0653  0.3034
    1CHL1   H20   51   1.384   4.060   9.223 -0.2529 -1.1583  1.3147
    1CHL1   C21   52   1.540   3.925   9.219 -0.3761  0.1885  0.8988
    1CHL1  H21A   53   1.473   3.840   9.245 -1.8565  0.5025 -1.5246
    1CHL1  H21B   54   1.643   3.922   9.261  0.9981  1.6476 -2.0611
    1CHL1  H21C   55   1.549   3.910   9.110  0.4546  0.1521  0.9645
    1CHL1   C22   56   1.551   4.173   9.147  0.0956 -0.1040  0.3928
    1CHL1  H22A   57   1.551   4.277   9.185  1.2307 -0.2996  0.9564
    1CHL1  H22B   58   1.653   4.132   9.131  0.0613  0.3454 -1.1894
    1CHL1   C23   59   1.473   4.180   9.013  0.7139 -0.9614 -0.3176
    1CHL1  H23A   60   1.452   4.083   8.961 -1.5917 -0.7974  0.1874
    1CHL1  H23B   61   1.375   4.223   9.044 -0.0371 -2.8246  0.0273
    1CHL1   C24   62   1.547   4.281   8.914 -0.2706  0.7131  0.1771
    1CHL1  H24A   63   1.560   4.379   8.966  1.2541  0.2593  0.6881
    1CHL1  H24B   64   1.646   4.232   8.906 -0.2966  0.7192 -0.2097
    1CHL1   C25   65   1.485   4.298   8.772 -0.8229 -0.3019 -0.0279
    1CHL1   H25   66   1.470   4.196   8.731  1.5769 -1.1893  1.0825
    1CHL1   C26   67   1.357   4.377   8.780  0.2029  0.0529  0.5116
    1CHL1  H26A   68   1.370   4.484   8.807 -2.6998  0.1229  1.9994
    1CHL1  H26B   69   1.310   4.377   8.679 -0.4420  0.8358  0.8021
    1CHL1  H26C   70   1.299   4.330   8.862  1.2048  1.1795  1.9224
    1CHL1   C27   71   1.581   4.375   8.677  0.2022  0.6818 -0.1243
    1CHL1  H27A   72   1.670   4.309   8.668 -0.2681 -0.2945  1.9307
    1CHL1  H27B   73   1.535   4.386   8.576  4.2094  2.0945 -2.0131
    1CHL1  H27C   74   1.623   4.466   8.725 -1.7655  0.5811  1.9376
    2CHL1    C3   75   1.603   1.745   9.961 -0.2200 -0.6563 -0.2590
    2CHL1    H3   76   1.684   1.684   9.916 -0.2708  0.8052 -2.5208
    2CHL1    O3   77   1.645   1.787  10.089  0.3226 -0.9832 -0.5466
    2CHL1   H3'   78   1.584   1.751  10.154 -0.1000 -0.9575 -0.9192
    2CHL1    C4   79   1.573   1.878   9.880  0.3257 -0.5738 -0.1994
    2CHL1   H4A   80   1.503   1.935   9.945  0.2754 -0.0527 -0.6985
    2CHL1   H4B   81   1.673   1.925   9.870  0.2305 -0.2502  0.3284
    2CHL1    C5   82   1.506   1.843   9.744 -0.7682 -0.8098  0.0586
    2CHL1    C6   83   1.567   1.895   9.637  0.6127  0.5810  0.1322
    2CHL1    H6   84   1.658   1.957   9.642  1.2706 -0.3514  0.0529
    2CHL1    C7   85   1.520   1.872   9.499  0.0986 -0.0173  0.0075
    2CHL1   H7A   86   1.519   1.964   9.437 -0.0408 -1.1667 -1.7736
    2CHL1   H7B   87   1.582   1.799   9.443 -0.7702  0.0503 -1.0667
    2CHL1    C8   88   1.376   1.814   9.493  0.2782 -0.7451  0.1639
    2CHL1    H8   89   1.309   1.900   9.515 -0.5244 -1.7161  1.6769
    2CHL1   C14   90   1.354   1.746   9.362 -0.1102 -0.5296  0.3113
    2CHL1   H14   91   1.422   1.659   9.359  1.1815  0.4750 -0.6223
    2CHL1   C15   92   1.393   1.818   9.233 -1.2739 -0.1905  0.4413
    2CHL1  H15A   93   1.361   1.924   9.240  1.7373  0.8704 -0.1422
    2CHL1  H15B   94   1.503   1.808   9.223 -1.2504 -0.6179  1.1176
    2CHL1   C16   95   1.305   1.756   9.126  0.5597  0.0971  0.6542
    2CHL1  H16A   96   1.272   1.838   9.057  0.8381 -1.1287 -1.0086
    2CHL1  H16B   97   1.373   1.693   9.064  0.7725  0.1205  0.8635
    2CHL1   C17   98   1.214   1.647   9.193  0.8542  0.0667 -0.4179
    2CHL1   H17   99   1.283   1.560   9.194  0.8325  0.0514 -0.0919
    2CHL1   C13  100   1.208   1.694   9.339 -0.3059 -0.4021 -0.1546
    2CHL1   C18  101   1.105   1.811   9.349 -0.0336 -0.4303  0.6488
    2CHL1  H18A  102   1.115   1.888   9.428  0.1647 -0.2108  0.4121
    2CHL1  H18B  103   1.116   1.875   9.259  2.2890 -2.8484 -0.9212
    2CHL1  H18C  104   1.005   1.763   9.355 -0.6301  0.8818  1.9518
    2CHL1   C12  105   1.180   1.596   9.452 -1.0730  0.0402  0.7931
    2CHL1  H12A  106   1.080   1.547   9.447 -0.1341 -1.9892  0.8127
    2CHL1  H12B  107   1.251   1.510   9.450 -1.7586 -0.5226 -0.2830
    2CHL1   C11  108   1.195   1.666   9.588  0.2814  1.1409  0.2913
    2CHL1  H11A  109   1.111   1.737   9.604 -0.5892  0.2845 -0.3796
    2CHL1  H11B  110   1.190   1.595   9.673 -0.5746  1.3025  0.3852
    2CHL1    C9  111   1.346   1.716   9.601 -0.3370 -0.0749  0.2219
    2CHL1    H9  112   1.410   1.627   9.583 -1.5322 -1.1603  1.1046
    2CHL1   C10  113   1.385   1.754   9.745 -0.5556 -0.5407 -0.3614
    2CHL1   C19  114   1.264   1.840   9.794 -0.3453 -0.1509 -0.0492
    2CHL1  H19A  115   1.173   1.778   9.811  0.0335 -0.7165 -0.0727
    2CHL1  H19B  116   1.269   1.881   9.898 -0.5311 -0.3217  0.0287
    2CHL1  H19C  117   1.251   1.923   9.721 -1.3245 -1.5045 -1.4547
    2CHL1    C1  118   1.417   1.632   9.835 -0.2910 -0.0711  0.1517
    2CHL1   H1A  119   1.330   1.565   9.850  0.1952 -0.3360  2.0611
    2CHL1   H1B  120   1.490   1.568   9.780  0.5024  0.7950  0.1633
    2CHL1    C2  121   1.473   1.668   9.969  0.8692 -0.2399  0.2289
    2CHL1   H2A  122   1.495   1.573  10.023  1.7028 -0.1657  0.0296
    2CHL1   H2B  123   1.405   1.735  10.026  1.9631  2.8031 -1.7906
    2CHL1   C20  124   1.087   1.614   9.109 -0.0746 -1.0367 -0.2280
    2CHL1   H20  125   1.020   1.703   9.107  1.3782  0.0885 -1.5137
    2CHL1   C21  126   1.006   1.499   9.160  0.7699  0.2289 -0.7769
    2CHL1  H21A  127   0.914   1.496   9.099 -1.2262  2.3356  1.8841
    2CHL1  H21B  128   0.977   1.514   9.266  1.6723 -1.5503 -0.2348
    2CHL1  H21C  129   1.068   1.407   9.152  0.9960  0.2335  0.6042
    2CHL1   C22  130   1.110   1.602   8.957  0.2076  0.4607  0.3864
    2CHL1  H22A  131   1.020   1.571   8.898  1.0292  0.3123 -0.8297
    2CHL1  H22B  132   1.142   1.701   8.921 -0.5904  0.2136 -1.1017
    2CHL1   C23  133   1.215   1.489   8.926 -0.5417  0.0872  0.3797
    2CHL1  H23A  134   1.314   1.522   8.963  0.1088 -1.0026 -0.3558
    2CHL1  H23B  135   1.198   1.397   8.985 -0.1957 -0.1692  0.0833
    2CHL1   C24  136   1.253   1.461   8.780 -0.3082  0.1618  0.0104
    2CHL1  H24A  137   1.166   1.444   8.713  0.6233 -0.1198 -1.1757
    2CHL1  H24B  138   1.309   1.549   8.743  1.6719 -0.7600  0.6879
    2CHL1   C25  139   1.351   1.346   8.767  0.1507 -0.5132  0.2020
    2CHL1   H25  140   1.305   1.256   8.815  0.4449 -0.3169  0.8681
    2CHL1   C26  141   1.358   1.302   8.617 -1.0149  1.0496 -0.5925
    2CHL1  H26A  142   1.280   1.224   8.605 -0.5610  0.6771 -1.1681
    2CHL1  H26B  143   1.347   1.382   8.541 -2.3972  2.6126  1.1571
    2CHL1  H26C  144   1.447   1.237   8.604 -2.2532 -0.4838 -1.9336
    2CHL1   C27  145   1.496   1.368   8.824 -0.3404  0.3299  0.2285
    2CHL1  H27A  146   1.487   1.403   8.929  2.2216  4.6654 -0.7536
    2CHL1  H27B  147   1.539   1.266   8.822  1.0621  0.8176  2.1700
    2CHL1  H27C  148   1.546   1.444   8.760 -0.4066  0.0254 -0.1929
    3CHL1    C3  149   2.209   1.774  10.168  0.3417  0.3310  0.0108
    3CHL1    H3  150   2.204   1.883  10.147  0.7472 -0.0330 -2.1909
    3CHL1    O3  151   2.210   1.758  10.306 -0.1157 -0.0716 -0.0312
    3CHL1   H3'  152   2.196   1.663  10.313  0.5101 -0.0975  1.1652
    3CHL1    C4  153   2.083   1.705  10.115 -0.7125 -0.3328  0.4188
    3CHL1   H4A  154   2.087   1.601  10.155  1.4033  0.4714  2.5684
    3CHL1   H4B  155   1.988   1.746  10.156 -1.4252  0.4740 -1.9073
    3CHL1    C5  156   2.069   1.724   9.964 -0.6816 -0.5629 -0.2918
    3CHL1    C6  157   1.967   1.792   9.904 -1.0416  0.1605  0.3895
    3CHL1    H6  158   1.887   1.824   9.973 -0.1865  0.0400  1.4796
    3CHL1    C7  159   1.953   1.803   9.754  0.4589 -0.3271 -0.3170
    3CHL1   H7A  160   1.852   1.769   9.721  0.4314 -1.2653  0.6854
    3CHL1   H7B  161   1.972   1.909   9.725  1.5865 -0.2325  0.6744
    3CHL1    C8  162   2.049   1.709   9.677  0.1076  0.3364 -0.1904
    3CHL1    H8  163   2.006   1.606   9.672  0.7646 -0.3206  3.9779
    3CHL1   C14  164   2.053   1.753   9.532  0.4293 -0.6118 -0.7169
    3CHL1   H14  165   2.095   1.856   9.535 -1.8408  0.3882  3.2529
    3CHL1   C15  166   1.920   1.755   9.457  0.0890 -0.0239  0.7315
    3CHL1  H15A  167   1.880   1.653   9.478  0.4200 -0.1605  0.7146
    3CHL1  H15B  168   1.853   1.832   9.500 -0.0015 -0.3133  1.1101
    3CHL1   C16  169   1.968   1.773   9.310  0.0311 -0.0471  0.4680
    3CHL1  H16A  170   1.917   1.693   9.251 -0.3638  1.7187 -1.7347
    3CHL1  H16B  171   1.948   1.876   9.273  0.2439 -0.4757 -0.9276
    3CHL1   C17  172   2.126   1.757   9.311  0.1832 -0.4050  1.1714
    3CHL1   H17  173   2.165   1.860   9.326 -2.0428  0.6200  0.2869
    3CHL1   C13  174   2.151   1.678   9.439 -0.7912  0.6858 -0.3852
    3CHL1   C18  175   2.114   1.528   9.420  0.3057  0.1347 -0.2171
    3CHL1  H18A  176   2.112   1.470   9.515 -0.1027 -0.2797 -0.4710
    3CHL1  H18B  177   2.007   1.516   9.393 -0.3142  1.8078  1.3334
    3CHL1  H18C  178   2.178   1.470   9.350  1.4454  0.4674  0.5285
    3CHL1   C12  179   2.289   1.679   9.510 -0.4977 -0.2900  0.0395
    3CHL1  H12A  180   2.346   1.609   9.446 -1.4093 -0.6264 -0.4246
    3CHL1  H12B  181   2.313   1.787   9.502 -1.5487  0.1233  1.8140
    3CHL1   C11  182   2.284   1.624   9.650 -0.0436  0.5014 -0.0372
    3CHL1  H11A  183   2.256   1.516   9.649 -1.6565  0.8859  0.6810
    3CHL1  H11B  184   2.388   1.636   9.685  0.6374  0.3175 -1.8686
    3CHL1    C9  185   2.189   1.704   9.735  0.5795 -0.1885 -0.0338
    3CHL1    H9  186   2.224   1.810   9.729  0.1268 -0.0860 -0.9696
    3CHL1   C10  187   2.190   1.667   9.887 -0.5220 -0.2400  1.0863
    3CHL1   C19  188   2.185   1.511   9.894 -0.3440  0.6259 -0.0286
    3CHL1  H19A  189   2.276   1.462   9.854  0.1462  0.3324  1.3877
    3CHL1  H19B  190   2.174   1.485  10.002  0.7239  0.8139  0.1409
    3CHL1  H19C  191   2.097   1.476   9.836 -1.1746  1.1157  0.8912
    3CHL1    C1  192   2.327   1.711   9.947 -0.0092 -0.7699  0.0086
    3CHL1   H1A  193   2.413   1.653   9.908  2.1372  0.6435  2.3123
    3CHL1   H1B  194   2.345   1.815   9.914 -0.8305 -0.2104  1.2395
    3CHL1    C2  195   2.333   1.710  10.103  0.1730  0.5423  1.1929
    3CHL1   H2A  196   2.430   1.753  10.136  1.1555  0.1189 -0.9881
    3CHL1   H2B  197   2.330   1.602  10.129 -2.9862  0.6121  1.5227
    3CHL1   C20  198   2.178   1.710   9.173  0.5448 -0.0720 -0.2498
    3CHL1   H20  199   2.152   1.603   9.162  0.5323  0.0024 -0.9728
    3CHL1   C21  200   2.331   1.704   9.170  0.4446  0.2953 -0.6925
    3CHL1  H21A  201   2.378   1.619   9.224 -1.2936  0.0194  0.4703
    3CHL1  H21B  202   2.392   1.785   9.216 -1.5023  2.9936 -2.5270
    3CHL1  H21C  203   2.363   1.678   9.067 -0.6111 -0.6510 -0.7962
    3CHL1   C22  204   2.124   1.785   9.058 -0.2030 -0.8934 -0.5475
    3CHL1  H22A  205   2.163   1.732   8.969 -0.6079  0.1461 -1.3704
    3CHL1  H22B  206   2.014   1.778   9.048 -0.2055 -1.3404 -0.2397
    3CHL1   C23  207   2.162   1.937   9.052  0.5050  0.0568 -0.8828
    3CHL1  H23A  208   2.106   1.979   9.138  0.0230 -2.5283  0.1463
    3CHL1  H23B  209   2.273   1.943   9.061  0.5919 -0.9888 -1.0832
    3CHL1   C24  210   2.114   2.011   8.930  0.8215 -0.2512  0.4345
    3CHL1  H24A  211   2.157   1.962   8.840  0.3236 -0.6738  0.4260
    3CHL1  H24B  212   2.004   2.000   8.925  0.7996  0.4648 -0.9177
    3CHL1   C25  213   2.138   2.165   8.934 -0.3347 -0.1257 -0.5322
    3CHL1   H25  214   2.106   2.190   9.038 -1.2396 -2.4752 -0.1821
    3CHL1   C26  215   2.286   2.200   8.916 -0.0342  0.1714 -0.9431
    3CHL1  H26A  216   2.325   2.203   8.812  0.2677  0.4843 -0.8261
    3CHL1  H26B  217   2.312   2.292   8.974  1.0918 -1.4461  1.3027
    3CHL1  H26C  218   2.349   2.123   8.967 -2.2622 -1.4099 -0.4100
    3CHL1   C27  219   2.061   2.243   8.832  0.6621  0.7370  0.0114
    3CHL1  H27A  220   2.100   2.347   8.836  2.4860  0.1927 -1.8440
    3CHL1  H27B  221   2.080   2.201   8.731  2.0282  1.0796  0.0994
    3CHL1  H27C  222   1.955   2.229   8.859  0.8663 -1.0356  0.0038
    4CHL1    C3  223   0.759   4.884  10.391 -0.8117 -0.0666 -0.2184
    4CHL1    H3  224   0.815   4.979  10.381 -2.7460  0.9474 -1.9484
    4CHL1    O3  225   0.738   4.880  10.530 -0.2282 -0.0343 -0.5608
    4CHL1   H3'  226   0.715   4.972  10.546  0.5100  0.1185 -0.3351
    4CHL1    C4  227   0.635   4.894  10.307 -0.2681 -0.5958 -0.6996
    4CHL1   H4A  228   0.570   4.810  10.338 -3.1639  1.3905 -1.0013
    4CHL1   H4B  229   0.579   4.984  10.341  0.6674 -0.3030  0.1004
    4CHL1    C5  230   0.664   4.882  10.160  0.3813 -0.8104 -0.2821
    4CHL1    C6  231   0.626   4.983  10.075  0.3611 -0.0716  0.3074
    4CHL1    H6  232   0.567   5.063  10.122  0.3169 -0.6567  1.2673
    4CHL1    C7  233   0.647   4.979   9.928 -0.0194  0.0034 -0.0838
    4CHL1   H7A  234   0.551   5.007   9.881 -0.6992  0.7712  1.6673
    4CHL1   H7B  235   0.721   5.059   9.903 -0.3657  1.2665  2.5742
    4CHL1    C8  236   0.695   4.840   9.878 -0.3082  0.0834 -0.0428
    4CHL1    H8  237   0.612   4.767   9.873 -0.0461 -0.1626 -1.0600
    4CHL1   C14  238   0.754   4.866   9.742  0.0060  0.0034  0.3850
    4CHL1   H14  239   0.841   4.932   9.761 -0.0761 -0.1828  1.4777
    4CHL1   C15  240   0.665   4.933   9.642 -0.5220  0.2920 -0.5370
    4CHL1  H15A  241   0.569   4.879   9.630 -1.5082  1.3718  1.7636
    4CHL1  H15B  242   0.632   5.035   9.670 -3.4658 -0.9891  1.0581
    4CHL1   C16  243   0.750   4.923   9.516 -0.1119 -0.1647  0.2944
    4CHL1  H16A  244   0.697   4.895   9.422  0.4478  1.1467 -0.4354
    4CHL1  H16B  245   0.807   5.017   9.501 -0.3283  0.2713  1.9824
    4CHL1   C17  246   0.857   4.811   9.538 -0.2126  0.1991  0.2040
    4CHL1   H17  247   0.955   4.861   9.554 -0.5125  1.2282 -1.0120
    4CHL1   C13  248   0.815   4.747   9.668  0.3223  0.2141 -0.0516
    4CHL1   C18  249   0.699   4.646   9.634  0.3260 -0.0470 -0.1792
    4CHL1  H18A  250   0.625   4.682   9.560 -2.2573 -1.3123  1.5941
    4CHL1  H18B  251   0.747   4.549   9.606 -0.7595 -1.1243  1.4494
    4CHL1  H18C  252   0.648   4.618   9.729  3.0459  2.7530  2.3427
    4CHL1   C12  253   0.928   4.695   9.763  0.4249  0.1107 -0.3524
    4CHL1  H12A  254   0.978   4.601   9.733  0.6554  0.0419  0.2303
    4CHL1  H12B  255   1.012   4.767   9.774 -1.2236  1.8519  1.8100
    4CHL1   C11  256   0.867   4.655   9.902  0.2877 -0.0606 -0.4155
    4CHL1  H11A  257   0.796   4.571   9.887 -2.1900  1.3388  2.5577
    4CHL1  H11B  258   0.948   4.619   9.969  1.1938 -0.0325 -1.4759
    4CHL1    C9  259   0.801   4.781   9.970 -0.2733 -0.0470  0.1514
    4CHL1    H9  260   0.884   4.854   9.972 -0.8988  0.7151 -1.0350
    4CHL1   C10  261   0.753   4.762  10.116 -0.0251  0.4876  0.0662
    4CHL1   C19  262   0.664   4.637  10.126 -0.4187 -0.0590  0.1618
    4CHL1  H19A  263   0.708   4.548  10.076  2.1966  0.8194  0.7690
    4CHL1  H19B  264   0.662   4.608  10.233  2.4230  0.9341  0.5544
    4CHL1  H19C  265   0.563   4.647  10.079 -0.4722 -1.1043  0.0359
    4CHL1    C1  266   0.876   4.753  10.207  0.4624  0.5103 -0.9020
    4CHL1   H1A  267   0.917   4.651  10.190  1.3724  0.7466 -0.2304
    4CHL1   H1B  268   0.958   4.819  10.171  1.2032 -0.3278 -0.7759
    4CHL1    C2  269   0.847   4.761  10.358 -0.9952  0.3309 -0.6359
    4CHL1   H2A  270   0.941   4.779  10.414 -0.3777  0.0217 -1.5614
    4CHL1   H2B  271   0.791   4.675  10.399 -0.3316 -0.6851 -1.7836
    4CHL1   C20  272   0.884   4.727   9.415 -0.1246 -0.0757  0.4833
    4CHL1   H20  273   0.786   4.682   9.388 -1.1476  2.6359 -0.6513
    4CHL1   C21  274   0.984   4.612   9.446  0.3568 -0.3979  0.4520
    4CHL1  H21A  275   1.005   4.548   9.358  0.0352 -0.3682  0.3499
    4CHL1  H21B  276   0.937   4.545   9.522  0.8603 -0.9513  0.2807
    4CHL1  H21C  277   1.082   4.648   9.484  0.9957  0.2256 -1.6861
    4CHL1   C22  278   0.942   4.807   9.297 -0.6584 -0.1841  0.5609
    4CHL1  H22A  279   0.902   4.910   9.301  0.7760  0.3853  0.8334
    4CHL1  H22B  280   1.050   4.821   9.315 -0.0190  2.9259 -4.1386
    4CHL1   C23  281   0.924   4.735   9.164 -0.5391 -0.0466  0.6121
    4CHL1  H23A  282   0.954   4.629   9.177 -0.0460  0.2656  2.1490
    4CHL1  H23B  283   0.821   4.728   9.122 -0.6056  0.7710  0.6270
    4CHL1   C24  284   1.008   4.792   9.044  0.0051 -0.6454 -0.4503
    4CHL1  H24A  285   0.996   4.902   9.032 -0.2695 -0.3919  1.8430
    4CHL1  H24B  286   1.118   4.786   9.063 -0.1214  0.1029  0.5446
    4CHL1   C25  287   0.981   4.720   8.906  0.4425 -0.2233 -0.3846
    4CHL1   H25  288   0.870   4.717   8.904  0.3264  1.2012  1.3175
    4CHL1   C26  289   1.027   4.814   8.796  0.3099 -0.5951  0.1758
    4CHL1  H26A  290   0.982   4.914   8.818  2.1498  0.9348 -2.4190
    4CHL1  H26B  291   1.136   4.816   8.817  0.5168 -1.7728 -0.7145
    4CHL1  H26C  292   0.998   4.781   8.694 -0.8241  0.8583 -0.0252
    4CHL1   C27  293   1.043   4.579   8.897  0.2278 -0.0927  0.5561
    4CHL1  H27A  294   1.023   4.532   8.996 -0.2163  1.0058  0.9942
    4CHL1  H27B  295   1.007   4.517   8.812  1.2783 -1.8524  1.3344
    4CHL1  H27C  296   1.153   4.592   8.891 -0.1169  3.6315  0.2497
    5CHL1    C3  297   2.503   2.123  10.345 -0.1497 -0.4631  0.3249
    5CHL1    H3  298   2.537   2.018  10.325  0.0520 -0.5761  1.2365
    5CHL1    O3  299   2.498   2.151  10.481 -0.5427  0.1780  0.3588
    5CHL1   H3'  300   2.466   2.242  10.481 -1.5230 -0.1448  0.9645
    5CHL1    C4  301   2.588   2.225  10.272 -0.6918  0.0788 -0.3134
    5CHL1   H4A  302   2.553   2.329  10.283  1.7091  0.9495 -0.3704
    5CHL1   H4B  303   2.689   2.232  10.317  0.6374 -0.1772 -3.0800
    5CHL1    C5  304   2.591   2.198  10.125  0.4820  0.2975  0.0507
    5CHL1    C6  305   2.712   2.169  10.066  0.3290  0.2350  0.0537
    5CHL1    H6  306   2.806   2.175  10.122  0.9904  1.7553 -1.1348
    5CHL1    C7  307   2.729   2.164   9.919  0.4683  0.4130 -0.5603
    5CHL1   H7A  308   2.813   2.231   9.887  2.4823 -1.6932  0.0328
    5CHL1   H7B  309   2.756   2.063   9.881 -2.8941  0.7376 -4.4608
    5CHL1    C8  310   2.602   2.217   9.848  0.2564  0.2672  0.4327
    5CHL1    H8  311   2.592   2.327   9.846  1.2756  0.3572 -0.3288
    5CHL1   C14  312   2.609   2.173   9.699  0.6333  0.6514 -0.3238
    5CHL1   H14  313   2.626   2.063   9.701 -1.4513  0.2929  1.3002
    5CHL1   C15  314   2.722   2.233   9.616 -0.6303 -0.4911 -0.3973
    5CHL1  H15A  315   2.718   2.344   9.626  2.7327 -0.4756  2.8074
    5CHL1  H15B  316   2.824   2.199   9.645  0.5553  1.2236 -2.2967
    5CHL1   C16  317   2.685   2.194   9.476 -0.3913 -0.0758 -0.1906
    5CHL1  H16A  318   2.712   2.274   9.404 -1.8596  2.1834  1.6186
    5CHL1  H16B  319   2.747   2.110   9.439  0.2122  0.9002 -1.4828
    5CHL1   C17  320   2.531   2.146   9.479  0.6587  0.3187  0.3449
    5CHL1   H17  321   2.529   2.035   9.482  0.3424  0.2481 -1.3205
    5CHL1   C13  322   2.481   2.183   9.619 -0.3676 -0.6219 -0.3799
    5CHL1   C18  323   2.438   2.337   9.619  0.0029 -0.2682  0.1627
    5CHL1  H18A  324   2.419   2.375   9.722  0.7474  0.2452  0.1185
    5CHL1  H18B  325   2.508   2.403   9.563  0.0768 -0.7654 -0.3317
    5CHL1  H18C  326   2.349   2.344   9.554 -0.5355  1.6367  1.0119
    5CHL1   C12  327   2.379   2.096   9.692 -0.1408  0.1615  0.7802
    5CHL1  H12A  328   2.284   2.100   9.636  1.0652 -2.6419 -1.7318
    5CHL1  H12B  329   2.414   1.991   9.681 -0.7379  0.2564 -4.3243
    5CHL1   C11  330   2.355   2.142   9.830 -0.1227 -0.1239 -1.5483
    5CHL1  H11A  331   2.313   2.245   9.835  1.1469  0.3641 -0.3287
    5CHL1  H11B  332   2.291   2.065   9.878  0.8995 -0.3874 -0.5718
    5CHL1    C9  333   2.484   2.147   9.916  0.4126  0.4907  0.0146
    5CHL1    H9  334   2.519   2.041   9.915  1.4371  0.8146 -0.0053
    5CHL1   C10  335   2.453   2.196  10.055 -0.2234  0.2229 -0.4063
    5CHL1   C19  336   2.400   2.341  10.054 -0.3650 -0.4788  0.3426
    5CHL1  H19A  337   2.377   2.383  10.155  1.1760  1.1418  0.0657
    5CHL1  H19B  338   2.465   2.415  10.003 -0.4091  0.2983  1.3676
    5CHL1  H19C  339   2.298   2.343  10.009 -0.9365 -0.7752  1.5603
    5CHL1    C1  340   2.366   2.101  10.131  0.7313  0.7419  0.5972
    5CHL1   H1A  341   2.262   2.129  10.102  0.7799  1.7918  1.3579
    5CHL1   H1B  342   2.383   1.994  10.106 -1.9866  0.4531 -0.3239
    5CHL1    C2  343   2.363   2.127  10.283 -0.9675 -0.8674 -0.3069
    5CHL1   H2A  344   2.294   2.057  10.334 -0.1723 -0.4371  1.4291
    5CHL1   H2B  345   2.323   2.229  10.300  2.1497  0.3022  0.8633
    5CHL1   C20  346   2.460   2.187   9.351 -0.3321  0.1613 -0.5518
    5CHL1   H20  347   2.423   2.292   9.350 -2.3313 -0.4817  0.4127
    5CHL1   C21  348   2.328   2.114   9.339  0.2895 -0.3444  0.2247
    5CHL1  H21A  349   2.333   2.003   9.336 -1.1877 -0.4117 -0.4809
    5CHL1  H21B  350   2.273   2.140   9.246  0.3049  2.0703  0.8127
    5CHL1  H21C  351   2.262   2.146   9.422  1.8141  1.5566  0.7836
    5CHL1   C22  352   2.546   2.181   9.223 -0.4616 -0.1309  0.2439
    5CHL1  H22A  353   2.480   2.213   9.139  0.7104  0.9317 -0.3197
    5CHL1  H22B  354   2.627   2.256   9.228 -0.8359  0.1862  1.9147
    5CHL1   C23  355   2.601   2.042   9.181  0.7398 -0.0107 -0.3385
    5CHL1  H23A  356   2.665   2.007   9.264 -2.3519  0.0070  2.2414
    5CHL1  H23B  357   2.527   1.960   9.178  1.8710 -1.0931  0.5760
    5CHL1   C24  358   2.665   2.064   9.049  0.3146  0.0709  0.2940
    5CHL1  H24A  359   2.589   2.081   8.969  1.6089 -0.5087 -1.1067
    5CHL1  H24B  360   2.724   2.158   9.048 -0.9257  0.8831  0.1525
    5CHL1   C25  361   2.755   1.952   9.001  0.1318 -0.1825  0.4129
    5CHL1   H25  362   2.804   1.910   9.091  1.3797  3.0084  1.3620
    5CHL1   C26  363   2.678   1.829   8.937 -0.2776 -0.3923 -0.5762
    5CHL1  H26A  364   2.620   1.859   8.846 -0.1508  0.3906 -0.4129
    5CHL1  H26B  365   2.746   1.753   8.893 -1.1672 -1.4121 -0.2340
    5CHL1  H26C  366   2.618   1.776   9.014  0.5176 -1.6831 -0.8235
    5CHL1   C27  367   2.871   1.990   8.910 -0.2829  0.4811  0.2621
    5CHL1  H27A  368   2.824   1.988   8.809 -0.0816 -0.9870  0.1826
    5CHL1  H27B  369   2.923   2.086   8.933 -0.6651  0.2412  2.2837
    5CHL1  H27C  370   2.948   1.911   8.914 -0.6803 -0.1677 -2.6745
    6CHL1    C3  371   6.145   5.212  10.228 -0.0347 -0.3016  0.2417
    6CHL1    H3  372   6.140   5.322  10.214  1.6957 -0.1719  0.4425
    6CHL1    O3  373   6.142   5.180  10.360 -0.1585 -0.1891 -0.0831
    6CHL1   H3'  374   6.120   5.086  10.362 -0.7546 -0.0653 -0.5127
    6CHL1    C4  375   6.014   5.158  10.172 -0.1027  0.4621  0.0609
    6CHL1   H4A  376   6.003   5.054  10.208 -0.0693  0.3049 -0.3884
    6CHL1   H4B  377   5.936   5.222  10.220 -0.5168 -0.1054  0.1449
    6CHL1    C5  378   6.014   5.162  10.017  0.3263  0.1672  0.3999
    6CHL1    C6  379   5.917   5.232   9.955  0.0760 -0.1943 -0.1643
    6CHL1    H6  380   5.835   5.279  10.013 -2.0323 -2.1767 -1.3745
    6CHL1    C7  381   5.899   5.241   9.806 -0.5017  0.2760 -0.1922
    6CHL1   H7A  382   5.793   5.216   9.783 -0.8216  1.2432  0.2184
    6CHL1   H7B  383   5.937   5.339   9.770  3.6296 -0.5289  1.4525
    6CHL1    C8  384   5.983   5.128   9.733  0.3945  0.2909 -0.2894
    6CHL1    H8  385   5.932   5.030   9.750  3.3867 -1.8312 -2.4118
    6CHL1   C14  386   5.981   5.149   9.584 -0.2510  0.2861 -0.2542
    6CHL1   H14  387   6.034   5.246   9.571  2.6947 -0.7076  2.7635
    6CHL1   C15  388   5.854   5.162   9.513 -0.7098 -0.1007 -0.0414
    6CHL1  H15A  389   5.792   5.071   9.521 -2.4877  0.7610 -2.5851
    6CHL1  H15B  390   5.794   5.253   9.537 -0.3954 -0.0316  0.5029
    6CHL1   C16  391   5.895   5.160   9.368  0.1167  0.3402 -0.3422
    6CHL1  H16A  392   5.823   5.106   9.303  0.7666 -1.6888  0.5421
    6CHL1  H16B  393   5.896   5.263   9.326 -1.3271  0.5623  0.1297
    6CHL1   C17  394   6.049   5.114   9.367  0.1204  0.7851  0.4887
    6CHL1   H17  395   6.115   5.201   9.353 -2.1122  2.2350 -1.9770
    6CHL1   C13  396   6.068   5.050   9.500 -0.2506 -0.5611  0.7218
    6CHL1   C18  397   6.017   4.903   9.499  0.5127 -1.5412  0.7283
    6CHL1  H18A  398   5.923   4.905   9.440  0.5086  2.5511  0.6065
    6CHL1  H18B  399   6.079   4.833   9.438  0.2682 -0.6159 -0.6407
    6CHL1  H18C  400   5.994   4.864   9.600 -0.3259 -1.4965  0.5620
    6CHL1   C12  401   6.213   5.049   9.555  0.0469  0.6046 -1.0120
    6CHL1  H12A  402   6.276   4.980   9.495 -2.7836 -0.5444 -2.8928
    6CHL1  H12B  403   6.258   5.151   9.546  0.9551  0.3205  0.1254
    6CHL1   C11  404   6.218   5.018   9.702  0.4707 -0.4995 -0.1203
    6CHL1  H11A  405   6.195   4.910   9.715 -0.8036 -0.4526 -1.6828
    6CHL1  H11B  406   6.321   5.037   9.741  0.4035 -0.5046  0.0581
    6CHL1    C9  407   6.127   5.113   9.785  0.2078 -0.1155  0.2931
    6CHL1    H9  408   6.179   5.211   9.775 -0.0476 -0.2124 -3.0181
    6CHL1   C10  409   6.123   5.093   9.941 -0.4176 -0.4333  0.3614
    6CHL1   C19  410   6.107   4.938   9.972  0.2694 -0.5718  0.0832
    6CHL1  H19A  411   6.190   4.881   9.926  1.0766 -0.1122  0.9413
    6CHL1  H19B  412   6.115   4.923  10.082  0.5501  3.7876  0.8443
    6CHL1  H19C  413   6.007   4.901   9.941  0.5775  0.6764 -2.7404
    6CHL1    C1  414   6.253   5.147  10.004  0.3266 -0.3378  0.1906
    6CHL1   H1A  415   6.348   5.111   9.958  1.3906  0.6729  1.5375
    6CHL1   H1B  416   6.253   5.254   9.977 -0.7255 -0.1529  0.8816
    6CHL1    C2  417   6.259   5.142  10.161 -0.5016  0.2751  0.6228
    6CHL1   H2A  418   6.352   5.185  10.204  0.8095 -1.8153  0.0356
    6CHL1   H2B  419   6.249   5.034  10.184  0.9398 -0.2023 -0.8432
    6CHL1   C20  420   6.075   5.014   9.244 -0.4038  0.1104 -0.4112
    6CHL1   H20  421   6.007   4.927   9.251 -0.8023  0.5436  2.9330
    6CHL1   C21  422   6.220   4.960   9.243  1.1331  0.6758 -0.2217
    6CHL1  H21A  423   6.291   5.036   9.286  2.4153 -1.2065  1.1596
    6CHL1  H21B  424   6.249   4.934   9.139 -2.5078 -0.3245 -1.1082
    6CHL1  H21C  425   6.238   4.875   9.313 -1.8517  2.4891  3.0795
    6CHL1   C22  426   6.049   5.091   9.118  0.3069 -0.2160 -0.3268
    6CHL1  H22A  427   5.959   5.156   9.114  0.6114  0.1652 -1.1494
    6CHL1  H22B  428   6.137   5.155   9.096  0.0033  0.3837  0.1735
    6CHL1   C23  429   6.026   5.007   8.993 -0.4298  0.3562  0.2104
    6CHL1  H23A  430   6.090   4.916   8.995  1.2176  1.4711  0.6359
    6CHL1  H23B  431   5.919   4.979   8.988 -0.5408  0.9392 -1.7690
    6CHL1   C24  432   6.033   5.099   8.870 -0.1572 -0.0568  0.7458
    6CHL1  H24A  433   5.956   5.179   8.873 -0.1044 -0.0346  3.3545
    6CHL1  H24B  434   6.137   5.138   8.878 -0.1070  0.5330 -1.7109
    6CHL1   C25  435   6.027   5.021   8.728 -0.1228  0.5940 -0.2562
    6CHL1   H25  436   6.109   4.946   8.738  0.7139  1.6990  1.5382
    6CHL1   C26  437   5.891   4.957   8.705 -0.3537  1.0379  0.4381
    6CHL1  H26A  438   5.900   4.891   8.616  2.9240  0.8909  0.7677
    6CHL1  H26B  439   5.873   4.877   8.780  1.8397 -0.8107 -0.8566
    6CHL1  H26C  440   5.809   5.031   8.697 -1.5344 -0.3226 -0.5556
    6CHL1   C27  441   6.067   5.107   8.614  0.1750  0.1299 -0.3426
    6CHL1  H27A  442   6.172   5.136   8.634 -0.4281  2.0177  0.3695
    6CHL1  H27B  443   6.079   5.042   8.525  2.1411 -1.2421  0.8381
    6CHL1  H27C  444   6.003   5.197   8.600  1.0827  0.8143 -0.1960
    7CHL1    C3  445   3.594   1.691  10.574  1.1042 -0.6744  0.2484
    7CHL1    H3  446   3.619   1.587  10.544 -0.7914 -0.9541 -0.5338
    7CHL1    O3  447   3.572   1.701  10.716 -0.5468  0.1087 -0.3719
    7CHL1   H3'  448   3.542   1.792  10.723 -0.1901  0.3896 -1.9500
    7CHL1    C4  449   3.696   1.792  10.529 -0.6152 -0.2023  0.4084
    7CHL1   H4A  450   3.662   1.896  10.551 -0.6302  0.4059 -2.1128
    7CHL1   H4B  451   3.790   1.772  10.584  0.6214  0.0104 -1.5594
    7CHL1    C5  452   3.718   1.791  10.377  0.1334  0.1283  0.3742
    7CHL1    C6  453   3.841   1.766  10.327 -0.0318  0.0069 -0.1104
    7CHL1    H6  454   3.922   1.757  10.400  0.4054 -0.4319 -0.6352
    7CHL1    C7  455   3.877   1.756  10.184 -0.0566 -0.1482  0.1072
    7CHL1   H7A  456   3.973   1.808  10.162  0.4738 -1.0015  0.3314
    7CHL1   H7B  457   3.899   1.649  10.161  0.2890 -0.0634  0.0326
    7CHL1    C8  458   3.758   1.806  10.097 -0.2053 -0.0027 -0.6262
    7CHL1    H8  459   3.773   1.916  10.097 -0.7655  0.0795  0.0616
    7CHL1   C14  460   3.772   1.768   9.952 -0.3336 -0.2775 -0.6276
    7CHL1   H14  461   3.762   1.657   9.943 -1.3101 -0.0505 -2.8426
    7CHL1   C15  462   3.915   1.785   9.895 -0.0833 -0.3222 -0.3008
    7CHL1  H15A  463   3.950   1.888   9.915  0.9081 -0.3141 -1.8944
    7CHL1  H15B  464   3.991   1.715   9.935 -0.8942  0.3002  2.6046
    7CHL1   C16  465   3.882   1.760   9.747  0.4310 -0.6048  0.3677
    7CHL1  H16A  466   3.931   1.844   9.693 -1.8394 -0.5045 -1.6973
    7CHL1  H16B  467   3.912   1.658   9.716  0.8783 -0.6601  0.9590
    7CHL1   C17  468   3.723   1.761   9.716 -0.1184 -0.1655 -0.4096
    7CHL1   H17  469   3.693   1.655   9.727 -2.4990  0.4996  0.1255
    7CHL1   C13  470   3.674   1.825   9.852  0.2012 -0.0836 -0.3701
    7CHL1   C18  471   3.694   1.983   9.848 -0.6123 -0.3943 -0.6977
    7CHL1  H18A  472   3.799   2.012   9.826 -0.2090 -1.8352 -0.7310
    7CHL1  H18B  473   3.625   2.031   9.775  0.2035  0.7180 -0.7772
    7CHL1  H18C  474   3.667   2.029   9.946 -0.2838 -0.3970 -0.6021
    7CHL1   C12  475   3.537   1.782   9.897 -0.1782  0.8048  0.6611
    7CHL1  H12A  476   3.456   1.807   9.826 -0.9589  0.4174  1.3886
    7CHL1  H12B  477   3.535   1.671   9.903 -1.2384  0.8679  2.0889
    7CHL1   C11  478   3.509   1.819  10.045 -0.8059  0.0056 -0.4686
    7CHL1  H11A  479   3.496   1.929  10.044 -0.1233  0.0951 -0.0532
    7CHL1  H11B  480   3.405   1.791  10.073 -0.8021 -0.2474 -0.7046
    7CHL1    C9  481   3.616   1.771  10.144  0.3090 -0.5993 -0.1055
    7CHL1    H9  482   3.611   1.660  10.138  0.1986 -0.5329 -1.4259
    7CHL1   C10  483   3.596   1.817  10.295  0.3853 -0.6377 -0.2353
    7CHL1   C19  484   3.562   1.967  10.299  0.2790 -0.5209  0.3163
    7CHL1  H19A  485   3.452   1.982  10.304  0.3740 -0.3371  3.3084
    7CHL1  H19B  486   3.597   2.036  10.379 -2.0747  3.2765 -1.6082
    7CHL1  H19C  487   3.589   2.018  10.203 -3.2566  2.5920  0.7231
    7CHL1    C1  488   3.477   1.734  10.350  0.0928 -0.4488  0.0275
    7CHL1   H1A  489   3.387   1.777  10.301 -1.0063 -1.4880  1.0796
    7CHL1   H1B  490   3.493   1.630  10.318 -0.1903 -1.0593  1.7448
    7CHL1    C2  491   3.459   1.729  10.511 -0.4415  0.5064  0.2561
    7CHL1   H2A  492   3.396   1.641  10.537 -1.1971  1.1680  0.7086
    7CHL1   H2B  493   3.412   1.816  10.561 -3.1389 -0.8391  0.2547
    7CHL1   C20  494   3.678   1.814   9.585  0.1241 -0.7899  0.0409
    7CHL1   H20  495   3.686   1.924   9.577 -2.0055 -0.5533  0.5598
    7CHL1   C21  496   3.524   1.810   9.569 -0.4032 -0.5202 -0.5250
    7CHL1  H21A  497   3.487   1.713   9.607  0.8101 -0.4708  0.8881
    7CHL1  H21B  498   3.492   1.837   9.466 -1.5844  0.6234  0.1121
    7CHL1  H21C  499   3.488   1.886   9.642 -2.4427 -0.0289 -1.9686
    7CHL1   C22  500   3.758   1.754   9.461  0.0308  0.3002  0.8461
    7CHL1  H22A  501   3.863   1.736   9.491 -0.6779 -3.0715  1.7805
    7CHL1  H22B  502   3.724   1.651   9.438  2.3861 -0.7301  1.7329
    7CHL1   C23  503   3.752   1.841   9.332 -0.3127 -0.7319 -0.7494
    7CHL1  H23A  504   3.652   1.883   9.304  0.5960  0.7522 -1.9540
    7CHL1  H23B  505   3.814   1.932   9.348 -1.3469 -0.3538  1.5829
    7CHL1   C24  506   3.817   1.768   9.212  0.1460 -0.9188  0.1521
    7CHL1  H24A  507   3.925   1.756   9.238  0.8682  1.3819 -1.5228
    7CHL1  H24B  508   3.773   1.667   9.199  0.8346 -1.0861 -0.9490
    7CHL1   C25  509   3.811   1.846   9.082  0.4862 -0.2057 -0.0904
    7CHL1   H25  510   3.853   1.947   9.101  0.1759  0.1512 -1.2494
    7CHL1   C26  511   3.904   1.789   8.971  0.6990  0.4711  0.1626
    7CHL1  H26A  512   3.894   1.854   8.882 -0.0075  1.0218  0.6286
    7CHL1  H26B  513   4.008   1.786   9.012  1.6789  0.6137 -2.1698
    7CHL1  H26C  514   3.862   1.694   8.932 -0.4132  1.8745 -2.2331
    7CHL1   C27  515   3.664   1.854   9.022 -0.1454  0.3977 -0.5481
    7CHL1  H27A  516   3.606   1.765   9.051 -3.2255  2.2760 -0.4890
    7CHL1  H27B  517   3.617   1.950   9.051 -0.0045 -0.5415  3.2644
    7CHL1  H27C  518   3.674   1.848   8.911 -1.0755  0.0612 -0.6185
    8CHL1    C3  519   4.304   2.500  10.192  0.3992 -0.6407 -0.1479
    8CHL1    H3  520   4.365   2.411  10.167 -0.3360 -1.7587  1.7539
    8CHL1    O3  521   4.289   2.518  10.335 -0.3989  1.0433 -0.1072
    8CHL1   H3'  522   4.240   2.443  10.370  1.2258  0.5516  1.2826
    8CHL1    C4  523   4.348   2.629  10.130 -0.0554 -0.4540 -0.6952
    8CHL1   H4A  524   4.276   2.707  10.163 -0.9422 -0.5837 -2.2054
    8CHL1   H4B  525   4.444   2.643  10.184 -1.5687 -0.6652  2.2571
    8CHL1    C5  526   4.367   2.633   9.986  0.4809 -0.7884  0.1078
    8CHL1    C6  527   4.483   2.668   9.929 -0.6837  0.3927  0.6494
    8CHL1    H6  528   4.569   2.702   9.989  1.8734 -0.4961 -2.2487
    8CHL1    C7  529   4.504   2.660   9.779  0.3009  0.6860  0.3391
    8CHL1   H7A  530   4.557   2.750   9.743 -0.9660  1.3480  0.0822
    8CHL1   H7B  531   4.554   2.562   9.758 -1.3971 -0.0368 -0.4817
    8CHL1    C8  532   4.367   2.666   9.705 -0.2442  0.0786  0.3304
    8CHL1    H8  533   4.339   2.773   9.714 -0.9901 -0.1033  0.1794
    8CHL1   C14  534   4.391   2.636   9.558  0.7140  0.9631 -0.1870
    8CHL1   H14  535   4.428   2.531   9.556  1.3946  1.1592  1.0044
    8CHL1   C15  536   4.485   2.719   9.480 -0.4787  0.6392 -0.0074
    8CHL1  H15A  537   4.473   2.828   9.498  2.3822  1.4246 -2.1204
    8CHL1  H15B  538   4.592   2.699   9.504  0.1827  2.9558 -0.7675
    8CHL1   C16  539   4.453   2.689   9.329 -0.1400 -0.1046  0.2622
    8CHL1  H16A  540   4.440   2.787   9.279  2.8017  0.5785  0.6246
    8CHL1  H16B  541   4.540   2.631   9.291 -1.4433 -2.3223  0.4696
    8CHL1   C17  542   4.320   2.614   9.332  0.8871  0.5391 -0.4627
    8CHL1   H17  543   4.344   2.506   9.338  3.3287  1.0817  0.5849
    8CHL1   C13  544   4.264   2.642   9.470  0.3214 -0.2505  0.0300
    8CHL1   C18  545   4.190   2.772   9.473  0.0297 -0.1230  0.4770
    8CHL1  H18A  546   4.093   2.769   9.420  0.4508  3.1341 -0.7270
    8CHL1  H18B  547   4.177   2.814   9.575  0.7608 -0.4238  0.7018
    8CHL1  H18C  548   4.242   2.851   9.414 -1.0464 -1.2360 -2.0772
    8CHL1   C12  549   4.164   2.543   9.527  0.5721 -0.3056 -0.2336
    8CHL1  H12A  550   4.064   2.544   9.480  0.7701  1.9826 -0.7483
    8CHL1  H12B  551   4.201   2.439   9.515 -2.0127 -1.1303 -1.6837
    8CHL1   C11  552   4.133   2.559   9.679  0.0286  0.0665  0.2259
    8CHL1  H11A  553   4.067   2.647   9.693  0.7058  0.6499 -0.1984
    8CHL1  H11B  554   4.073   2.470   9.706  0.9524 -0.5017  0.4747
    8CHL1    C9  555   4.265   2.568   9.762  0.2176  0.2749 -0.2666
    8CHL1    H9  556   4.313   2.470   9.739 -0.6326 -0.0100 -0.8596
    8CHL1   C10  557   4.240   2.591   9.913  0.1292  0.1058 -0.6846
    8CHL1   C19  558   4.136   2.709   9.925 -0.3648  0.0029  0.0128
    8CHL1  H19A  559   4.155   2.800   9.864  1.2868  1.4855  2.5366
    8CHL1  H19B  560   4.034   2.673   9.897 -0.1293 -0.3740 -0.3803
    8CHL1  H19C  561   4.118   2.735  10.031 -0.0824 -0.8962  0.2886
    8CHL1    C1  562   4.182   2.460   9.975 -0.2618 -0.6100 -0.5323
    8CHL1   H1A  563   4.085   2.441   9.924 -0.1633  2.2825 -2.0255
    8CHL1   H1B  564   4.251   2.376   9.954 -3.3432 -3.6786  0.6924
    8CHL1    C2  565   4.173   2.458  10.130 -0.2242  0.3153  0.0204
    8CHL1   H2A  566   4.151   2.355  10.166 -0.1532  0.6775  1.1268
    8CHL1   H2B  567   4.088   2.523  10.161 -0.5072  0.0585 -0.2062
    8CHL1   C20  568   4.227   2.606   9.213  0.4653 -0.0452 -0.5667
    8CHL1   H20  569   4.130   2.572   9.254  0.5098  1.1972  0.6449
    8CHL1   C21  570   4.291   2.505   9.113  0.6826 -0.1617 -0.8205
    8CHL1  H21A  571   4.276   2.404   9.157 -1.0742  0.3873 -0.1048
    8CHL1  H21B  572   4.397   2.531   9.089  0.7277  0.5465  0.0675
    8CHL1  H21C  573   4.240   2.498   9.015  0.4961 -2.1925 -0.6160
    8CHL1   C22  574   4.199   2.738   9.131  0.6650  0.1614  0.7437
    8CHL1  H22A  575   4.166   2.820   9.199  2.1368  2.9174 -1.6510
    8CHL1  H22B  576   4.289   2.785   9.086 -0.0043  0.9175  0.1713
    8CHL1   C23  577   4.086   2.733   9.032  0.4233  0.2286  0.3426
    8CHL1  H23A  578   4.095   2.645   8.965 -1.4322  1.9856 -2.4476
    8CHL1  H23B  579   3.990   2.709   9.083 -0.4352 -0.3497 -1.4565
    8CHL1   C24  580   4.071   2.861   8.945 -0.2139  0.6528  0.1385
    8CHL1  H24A  581   4.057   2.936   9.027  0.3672 -2.0126  2.8632
    8CHL1  H24B  582   4.158   2.888   8.881  0.5130 -1.7754  0.0194
    8CHL1   C25  583   3.952   2.854   8.852  0.1840 -0.0415 -0.2573
    8CHL1   H25  584   3.870   2.808   8.912  0.0833  1.0444  0.4757
    8CHL1   C26  585   3.896   2.993   8.821  0.0624  0.6138 -0.2194
    8CHL1  H26A  586   3.799   2.987   8.768 -0.1380 -3.0597  0.2854
    8CHL1  H26B  587   3.890   3.062   8.908 -1.3137  0.8820 -0.5080
    8CHL1  H26C  588   3.966   3.042   8.751 -1.5365  0.0301 -2.3085
    8CHL1   C27  589   3.970   2.767   8.732  0.0063 -0.1557 -0.5708
    8CHL1  H27A  590   4.026   2.675   8.756 -1.7908 -1.4431 -1.1021
    8CHL1  H27B  591   3.875   2.745   8.678  0.3942  0.5260 -1.5541
    8CHL1  H27C  592   4.037   2.812   8.656  1.2857 -0.0321  0.6064
    9CHL1    C3  593   6.584   5.579  10.240  0.3992  0.5073 -0.2878
    9CHL1    H3  594   6.641   5.488  10.212 -1.2910 -1.2687  1.6767
    9CHL1    O3  595   6.621   5.610  10.372  0.0559 -0.4958 -0.4491
    9CHL1   H3'  596   6.560   5.683  10.391  1.9186  1.0530 -0.1539
    9CHL1    C4  597   6.610   5.695  10.147  0.3823 -0.0171 -0.1413
    9CHL1   H4A  598   6.547   5.784  10.168  0.0709 -0.0864 -0.7541
    9CHL1   H4B  599   6.716   5.728  10.150  0.5479 -0.5537  2.3833
    9CHL1    C5  600   6.569   5.659  10.005 -0.0430 -0.0288  0.4910
    9CHL1    C6  601   6.663   5.662   9.908 -0.1762 -0.2043  0.8564
    9CHL1    H6  602   6.767   5.690   9.931  0.3201 -2.4449  1.6743
    9CHL1    C7  603   6.638   5.648   9.757 -0.7961  0.3480 -0.7398
    9CHL1   H7A  604   6.684   5.729   9.696  0.3737  1.1064  1.0523
    9CHL1   H7B  605   6.684   5.556   9.715 -0.5476  0.7386 -1.3265
    9CHL1    C8  606   6.483   5.643   9.731 -0.3634 -0.3343 -0.8842
    9CHL1    H8  607   6.449   5.749   9.734  0.1558 -0.1400 -1.5964
    9CHL1   C14  608   6.453   5.588   9.594 -0.5603  0.2373  0.1176
    9CHL1   H14  609   6.490   5.485   9.609  3.2241  1.2939 -0.8971
    9CHL1   C15  610   6.525   5.644   9.473 -0.5699  0.1443 -0.4212
    9CHL1  H15A  611   6.533   5.754   9.482  1.1859  0.1166 -1.1104
    9CHL1  H15B  612   6.629   5.604   9.475 -0.5989 -0.1262 -2.2352
    9CHL1   C16  613   6.446   5.600   9.349  0.7126 -0.0502 -0.0996
    9CHL1  H16A  614   6.417   5.685   9.284 -0.7230  0.4170  1.0963
    9CHL1  H16B  615   6.508   5.527   9.293  1.5631 -1.0814  2.0683
    9CHL1   C17  616   6.316   5.543   9.403  0.6406 -0.0086 -0.4380
    9CHL1   H17  617   6.325   5.433   9.415 -1.3593 -0.4479 -2.3129
    9CHL1   C13  618   6.305   5.585   9.557  0.1178 -0.0780  0.0500
    9CHL1   C18  619   6.258   5.728   9.557  0.2427  0.0341  0.1520
    9CHL1  H18A  620   6.313   5.789   9.482  1.5909 -0.9067  0.3428
    9CHL1  H18B  621   6.151   5.724   9.526 -0.0155 -1.8452  1.1462
    9CHL1  H18C  622   6.250   5.778   9.656 -2.5458 -0.4851  0.2751
    9CHL1   C12  623   6.225   5.502   9.656  0.0351  0.0087 -0.0385
    9CHL1  H12A  624   6.114   5.515   9.656  0.1048  0.9926  1.7243
    9CHL1  H12B  625   6.244   5.393   9.640 -1.1459 -0.4678  1.5278
    9CHL1   C11  626   6.253   5.551   9.801 -0.0957 -0.4519 -0.4028
    9CHL1  H11A  627   6.205   5.650   9.811  0.0660 -0.2433 -1.4994
    9CHL1  H11B  628   6.201   5.487   9.875 -0.1053  0.7431  0.6545
    9CHL1    C9  629   6.403   5.562   9.831  0.3841 -0.0750 -0.2611
    9CHL1    H9  630   6.451   5.461   9.834  1.6432  0.4860 -0.7392
    9CHL1   C10  631   6.423   5.623   9.979 -0.8922  0.2677 -0.4613
    9CHL1   C19  632   6.337   5.749  10.003  0.1921  1.0701 -0.2031
    9CHL1  H19A  633   6.342   5.822   9.919 -2.7287  1.4090 -0.2088
    9CHL1  H19B  634   6.230   5.720  10.013  0.6643 -0.3670  1.0439
    9CHL1  H19C  635   6.359   5.796  10.101  2.8396 -1.0446  0.3338
    9CHL1    C1  636   6.390   5.505  10.080 -0.6362  0.4686  0.0743
    9CHL1   H1A  637   6.285   5.468  10.073 -0.6899  0.6807 -0.2902
    9CHL1   H1B  638   6.451   5.422  10.038 -1.6385  0.7228 -2.0545
    9CHL1    C2  639   6.434   5.533  10.225  0.2632 -0.3483  0.4933
    9CHL1   H2A  640   6.432   5.439  10.285  0.7457  0.1825  1.3728
    9CHL1   H2B  641   6.372   5.604  10.284 -0.2004 -0.8772  0.6487
    9CHL1   C20  642   6.191   5.575   9.306  0.6575 -0.9171 -0.1335
    9CHL1   H20  643   6.179   5.685   9.298 -0.1275 -1.0202 -0.3569
    9CHL1   C21  644   6.062   5.520   9.368 -0.0101  0.2730 -0.2304
    9CHL1  H21A  645   6.076   5.411   9.387 -2.4922  0.0578  0.6508
    9CHL1  H21B  646   5.979   5.528   9.295 -0.6839 -0.1450  0.4782
    9CHL1  H21C  647   6.033   5.578   9.458  0.8189  1.1900 -0.5290
    9CHL1   C22  648   6.217   5.514   9.166  0.3841  0.6370  0.8205
    9CHL1  H22A  649   6.318   5.525   9.121 -0.5980 -1.5182 -2.3202
    9CHL1  H22B  650   6.203   5.405   9.185 -0.1962  0.5504 -0.0284
    9CHL1   C23  651   6.112   5.567   9.062  0.2769  0.1466  0.1234
    9CHL1  H23A  652   6.021   5.606   9.113  1.9196  3.2081  0.9802
    9CHL1  H23B  653   6.159   5.660   9.023 -0.0949  0.6442  0.8330
    9CHL1   C24  654   6.087   5.468   8.945  0.2703 -0.1362 -0.7781
    9CHL1  H24A  655   6.182   5.442   8.893 -0.1060 -1.3205 -0.9076
    9CHL1  H24B  656   6.034   5.378   8.982 -0.3807 -1.0194 -3.5988
    9CHL1   C25  657   5.998   5.539   8.839  0.0301  0.5600 -0.3024
    9CHL1   H25  658   6.050   5.631   8.806  2.5372 -0.0317  1.6911
    9CHL1   C26  659   5.966   5.449   8.720 -0.0724  0.5604 -0.0612
    9CHL1  H26A  660   5.901   5.493   8.641 -0.0048  1.0043  0.1255
    9CHL1  H26B  661   6.059   5.426   8.664 -1.0311 -0.3929 -1.3451
    9CHL1  H26C  662   5.926   5.358   8.769  1.2908  0.6332  1.2397
    9CHL1   C27  663   5.864   5.579   8.901  0.0928 -0.6225 -0.1875
    9CHL1  H27A  664   5.872   5.669   8.967 -0.2271  1.2973 -2.6271
    9CHL1  H27B  665   5.780   5.600   8.831 -1.5975 -1.6985  1.4395
    9CHL1  H27C  666   5.830   5.491   8.960 -0.3069 -0.4938 -0.2212
   10CHL1    C3  667   0.011   3.251  10.000 -0.2715  0.4466 -1.0637
   10CHL1    H3  668  -0.055   3.169   9.966 -0.0416  0.2661 -1.0789
   10CHL1    O3  669   0.024   3.233  10.141 -0.3453 -0.1726  0.2027
   10CHL1   H3'  670  -0.060   3.211  10.183 -0.6137  0.4931  0.0399
   10CHL1    C4  671   0.153   3.247   9.939  0.1068  0.1155  0.0671
   10CHL1   H4A  672   0.221   3.317   9.993 -0.4891 -2.0068  3.9602
   10CHL1   H4B  673   0.188   3.148   9.975 -3.1551 -1.0061  0.4023
   10CHL1    C5  674   0.154   3.265   9.789  0.8535 -1.1254 -0.3275
   10CHL1    C6  675   0.191   3.167   9.716 -0.3265 -0.2844 -0.0859
   10CHL1    H6  676   0.229   3.074   9.759 -0.6996 -0.6614 -0.5619
   10CHL1    C7  677   0.194   3.164   9.568  1.1130 -0.5399  0.1904
   10CHL1   H7A  678   0.291   3.134   9.523  0.9302  0.7674 -1.1207
   10CHL1   H7B  679   0.114   3.096   9.532  0.2082  0.7518 -0.3134
   10CHL1    C8  680   0.157   3.305   9.510  0.6262 -0.0421  0.4092
   10CHL1    H8  681   0.248   3.368   9.521  1.8986 -1.9648  1.6370
   10CHL1   C14  682   0.129   3.290   9.357 -0.0705 -0.0979  0.1813
   10CHL1   H14  683   0.037   3.230   9.344 -0.4501  0.5837 -0.3519
   10CHL1   C15  684   0.233   3.228   9.270 -0.8298  0.3430  0.0126
   10CHL1  H15A  685   0.333   3.273   9.285 -0.0775 -1.4216  0.5406
   10CHL1  H15B  686   0.240   3.117   9.280  0.0432  0.4266  0.3736
   10CHL1   C16  687   0.177   3.262   9.122  0.6190  0.2808  0.0969
   10CHL1  H16A  688   0.262   3.312   9.071  0.5380 -0.7647 -1.1355
   10CHL1  H16B  689   0.153   3.165   9.073 -1.2923  0.6861  0.1441
   10CHL1   C17  690   0.067   3.371   9.146  0.0432  0.1077  0.9529
   10CHL1   H17  691  -0.029   3.315   9.154  0.5275 -0.7585  0.9164
   10CHL1   C13  692   0.095   3.427   9.290 -0.0422  0.4456 -0.1376
   10CHL1   C18  693   0.210   3.532   9.280  0.1276 -0.3602 -0.4476
   10CHL1  H18A  694   0.183   3.621   9.218  0.2204 -0.3055 -0.4104
   10CHL1  H18B  695   0.223   3.575   9.382 -1.2330 -1.5376  0.2604
   10CHL1  H18C  696   0.301   3.483   9.239  0.1125  0.4872 -1.5509
   10CHL1   C12  697  -0.033   3.486   9.357 -0.6728 -0.2691 -0.5265
   10CHL1  H12A  698  -0.071   3.583   9.318  1.3230  1.4364  1.4947
   10CHL1  H12B  699  -0.114   3.412   9.340  0.2379 -1.2038 -0.9011
   10CHL1   C11  700  -0.021   3.498   9.512  0.5391  0.3745 -0.0060
   10CHL1  H11A  701   0.039   3.588   9.537  0.0489  0.2292  1.8621
   10CHL1  H11B  702  -0.119   3.518   9.563  0.5721  1.1001 -0.2167
   10CHL1    C9  703   0.041   3.376   9.591 -0.0713  0.3804 -1.0229
   10CHL1    H9  704  -0.032   3.293   9.580  0.4615 -0.4648  1.3676
   10CHL1   C10  705   0.077   3.394   9.743 -0.2361 -0.1419  0.0909
   10CHL1   C19  706   0.170   3.512   9.764  0.1468  0.4013  0.3512
   10CHL1  H19A  707   0.240   3.515   9.678 -0.3752  0.4848 -0.0714
   10CHL1  H19B  708   0.111   3.605   9.750  1.2805  1.0608 -0.1709
   10CHL1  H19C  709   0.222   3.517   9.862 -0.7839  0.7950  0.8392
   10CHL1    C1  710  -0.056   3.412   9.818 -0.5747  1.5127  0.2593
   10CHL1   H1A  711  -0.079   3.520   9.816 -0.6668  1.5320  1.6778
   10CHL1   H1B  712  -0.136   3.357   9.763  1.6581 -0.9560 -0.7561
   10CHL1    C2  713  -0.055   3.383   9.971  0.2439  0.0957 -0.4303
   10CHL1   H2A  714  -0.153   3.389  10.023  0.3088 -3.1997  0.3268
   10CHL1   H2B  715   0.013   3.461  10.010  1.3656 -0.1740 -1.7683
   10CHL1   C20  716   0.055   3.473   9.025  1.0328 -0.0581 -0.4629
   10CHL1   H20  717   0.145   3.538   9.013  2.0040 -1.3400 -0.3773
   10CHL1   C21  718  -0.068   3.567   9.051  0.0420 -0.3821 -0.1002
   10CHL1  H21A  719  -0.151   3.507   9.095 -1.9701  2.2387 -0.0649
   10CHL1  H21B  720  -0.095   3.620   8.957  1.5224 -0.8536 -0.8218
   10CHL1  H21C  721  -0.026   3.633   9.130  0.7127 -0.5885 -0.2759
   10CHL1   C22  722   0.038   3.403   8.892  0.2001 -0.1581 -0.0892
   10CHL1  H22A  723  -0.035   3.320   8.891  1.4016 -1.2395 -0.5728
   10CHL1  H22B  724   0.004   3.483   8.823 -0.4483  0.3288  0.7864
   10CHL1   C23  725   0.164   3.353   8.815  0.1317 -0.5844  0.3421
   10CHL1  H23A  726   0.239   3.434   8.826 -0.1523 -0.3287  0.4078
   10CHL1  H23B  727   0.199   3.265   8.872 -0.5648 -0.1603  1.4702
   10CHL1   C24  728   0.131   3.308   8.666 -0.0563 -0.6520 -0.0133
   10CHL1  H24A  729   0.060   3.222   8.671 -2.6778  1.1598 -2.4895
   10CHL1  H24B  730   0.081   3.390   8.611 -1.6901 -0.3094  1.8457
   10CHL1   C25  731   0.258   3.266   8.581  0.6730 -0.0433 -0.3349
   10CHL1   H25  732   0.331   3.349   8.577 -0.4562  1.1509  1.9744
   10CHL1   C26  733   0.340   3.152   8.647 -0.4550 -0.2695 -0.0386
   10CHL1  H26A  734   0.392   3.189   8.738 -0.9109  0.5553 -0.0964
   10CHL1  H26B  735   0.270   3.069   8.666 -0.2233 -0.7353 -1.1455
   10CHL1  H26C  736   0.423   3.125   8.578  0.2775 -0.0270  0.7356
   10CHL1   C27  737   0.216   3.228   8.435  0.1048 -0.9489 -0.0423
   10CHL1  H27A  738   0.303   3.186   8.380  0.3775 -0.4228 -0.0190
   10CHL1  H27B  739   0.144   3.143   8.426  0.2752 -1.0302 -0.6705
   10CHL1  H27C  740   0.171   3.311   8.378 -0.0652 -0.5061  0.7213
   11CHL1    C3  741   0.997   0.232   9.963 -0.2430  0.1746 -0.7585
   11CHL1    H3  742   0.913   0.290   9.918 -1.0081 -0.2322  0.1165
   11CHL1    O3  743   1.012   0.272  10.099 -0.5155  0.6571  0.4775
   11CHL1   H3'  744   1.088   0.216  10.119  0.3730  1.9709  0.8953
   11CHL1    C4  745   0.964   0.080   9.946  0.2566  0.0779  0.1494
   11CHL1   H4A  746   1.044   0.024  10.001  2.2227  2.5158 -0.0591
   11CHL1   H4B  747   0.866   0.059   9.994  0.1976  2.6147  1.3353
   11CHL1    C5  748   0.970   0.036   9.800  0.1943 -0.5688 -0.1632
   11CHL1    C6  749   0.872  -0.031   9.738  0.4603  0.2399 -0.2879
   11CHL1    H6  750   0.789  -0.063   9.802  0.2198  2.8012  0.8119
   11CHL1    C7  751   0.864  -0.087   9.600 -0.2051  0.5675 -0.2527
   11CHL1   H7A  752   0.832  -0.193   9.594  0.1271  0.5348 -2.0989
   11CHL1   H7B  753   0.795  -0.030   9.534 -0.0319  3.0536  1.5370
   11CHL1    C8  754   1.010  -0.081   9.536 -0.7314  0.3225  0.1840
   11CHL1    H8  755   1.069  -0.168   9.571  0.3235  1.8310  2.3522
   11CHL1   C14  756   1.004  -0.094   9.387  0.4057  0.5275  0.9028
   11CHL1   H14  757   0.948  -0.011   9.338 -0.2163 -0.9684 -1.0383
   11CHL1   C15  758   0.911  -0.216   9.344 -0.3561  0.6318  0.3834
   11CHL1  H15A  759   0.918  -0.308   9.407  3.2026 -0.8341 -1.8255
   11CHL1  H15B  760   0.804  -0.187   9.349 -0.3551  0.6613  0.2464
   11CHL1   C16  761   0.956  -0.242   9.195 -0.9221 -0.5275  0.4506
   11CHL1  H16A  762   0.987  -0.348   9.181 -0.9249 -0.4012 -0.6345
   11CHL1  H16B  763   0.878  -0.204   9.125  0.6542  2.0737 -0.0321
   11CHL1   C17  764   1.078  -0.143   9.177 -0.0287  0.2030 -0.1227
   11CHL1   H17  765   1.034  -0.045   9.148 -0.4550  0.2004  0.4935
   11CHL1   C13  766   1.141  -0.113   9.315 -0.4082 -0.0597 -0.6463
   11CHL1   C18  767   1.215  -0.247   9.365  0.1616 -0.6667  0.0146
   11CHL1  H18A  768   1.244  -0.233   9.472 -1.4658  4.0174  0.0792
   11CHL1  H18B  769   1.146  -0.332   9.349  0.6471 -0.8812 -0.9858
   11CHL1  H18C  770   1.310  -0.276   9.315  0.3560 -1.9469  1.0743
   11CHL1   C12  771   1.225   0.020   9.339  0.6474  0.2107 -0.0091
   11CHL1  H12A  772   1.329   0.023   9.302  0.2297 -0.3204 -1.2879
   11CHL1  H12B  773   1.177   0.105   9.286  3.2853  1.2571 -0.8666
   11CHL1   C11  774   1.231   0.042   9.492 -0.5537  0.5033 -0.4465
   11CHL1  H11A  775   1.302  -0.035   9.531 -1.4045  0.7142  1.6188
   11CHL1  H11B  776   1.286   0.136   9.514  0.0714 -0.1781  1.0389
   11CHL1    C9  777   1.094   0.041   9.569 -0.6364  0.2247 -0.5668
   11CHL1    H9  778   1.030   0.123   9.528 -0.5112  0.6588  0.0952
   11CHL1   C10  779   1.099   0.076   9.722 -0.6236 -0.7292  0.2659
   11CHL1   C19  780   1.212  -0.002   9.788 -0.1257  0.0343  0.7375
   11CHL1  H19A  781   1.209  -0.111   9.768  0.6167  0.2000 -0.3551
   11CHL1  H19B  782   1.311   0.020   9.743 -0.5148 -4.5055 -3.1041
   11CHL1  H19C  783   1.224   0.006   9.898  0.5750 -1.4953  0.8002
   11CHL1    C1  784   1.122   0.233   9.742 -0.5600 -0.2264 -0.4615
   11CHL1   H1A  785   1.220   0.268   9.703  0.7474 -0.7784  2.1094
   11CHL1   H1B  786   1.048   0.289   9.680  1.6573  4.6342  0.7665
   11CHL1    C2  787   1.122   0.275   9.890 -0.4778 -0.4553  0.4907
   11CHL1   H2A  788   1.122   0.386   9.903  0.2664 -0.1554 -1.7042
   11CHL1   H2B  789   1.212   0.233   9.938 -0.6978 -1.5364 -0.0085
   11CHL1   C20  790   1.183  -0.174   9.064 -0.4173  0.0326  0.1100
   11CHL1   H20  791   1.232  -0.268   9.097 -0.2020  0.6823  1.7295
   11CHL1   C21  792   1.283  -0.061   9.042 -0.0064  0.6277 -0.4820
   11CHL1  H21A  793   1.343  -0.060   9.136  0.2209 -0.7913 -0.5997
   11CHL1  H21B  794   1.243   0.043   9.037  0.3408  0.8440  0.8966
   11CHL1  H21C  795   1.358  -0.078   8.962  1.1334  1.5777  0.3530
   11CHL1   C22  796   1.106  -0.202   8.932 -0.9649  0.3154 -0.1497
   11CHL1  H22A  797   1.042  -0.291   8.948 -1.7053  1.2633  2.5199
   11CHL1  H22B  798   1.035  -0.119   8.916 -0.7217  0.6566  0.5141
   11CHL1   C23  799   1.196  -0.223   8.800 -0.2546  0.1326 -0.9455
   11CHL1  H23A  800   1.240  -0.123   8.781 -2.6424  1.8263  1.7384
   11CHL1  H23B  801   1.275  -0.301   8.811 -0.9712 -0.7559 -1.8552
   11CHL1   C24  802   1.104  -0.281   8.688 -0.1658  0.5365  1.0424
   11CHL1  H24A  803   1.061  -0.375   8.728 -0.1252 -0.0610 -0.2574
   11CHL1  H24B  804   1.021  -0.211   8.665 -0.7390 -0.7856 -1.1864
   11CHL1   C25  805   1.165  -0.296   8.548 -0.4504  0.2491  0.1173
   11CHL1   H25  806   1.227  -0.204   8.539  0.7542 -0.6249 -0.8072
   11CHL1   C26  807   1.252  -0.429   8.550  0.1088 -0.7056  0.4509
   11CHL1  H26A  808   1.302  -0.437   8.451 -0.3472  2.1968 -0.0948
   11CHL1  H26B  809   1.311  -0.435   8.644  2.8042 -3.6921 -1.2289
   11CHL1  H26C  810   1.199  -0.527   8.557  1.0267 -1.2084  0.5099
   11CHL1   C27  811   1.057  -0.296   8.442 -0.5648  1.3901  0.3373
   11CHL1  H27A  812   0.982  -0.214   8.448 -3.7913 -1.3499  1.0405
   11CHL1  H27B  813   1.106  -0.305   8.343 -0.7775 -2.7475  0.4398
   11CHL1  H27C  814   0.991  -0.386   8.441  0.8555  0.3222 -0.2921
   12CHL1    C3  815   4.819   2.743  10.264 -0.4942  0.3171 -0.5635
   12CHL1    H3  816   4.724   2.689  10.247  0.0664 -1.8731  2.4901
   12CHL1    O3  817   4.839   2.710  10.403  0.3489 -0.5211 -0.1297
   12CHL1   H3'  818   4.795   2.783  10.447  2.7642  2.1219 -1.7275
   12CHL1    C4  819   4.939   2.692  10.180  0.5244 -0.3356 -0.7085
   12CHL1   H4A  820   5.025   2.753  10.214  0.5701 -0.0104 -1.4045
   12CHL1   H4B  821   4.951   2.582  10.195 -1.2320 -0.5223 -0.3513
   12CHL1    C5  822   4.907   2.723  10.037 -0.3013  0.8918  0.0493
   12CHL1    C6  823   4.893   2.623   9.947 -0.7870 -0.4299  0.1685
   12CHL1    H6  824   4.882   2.518   9.978 -0.4325 -0.4731  0.1465
   12CHL1    C7  825   4.879   2.646   9.796 -0.0115 -0.3047 -0.2856
   12CHL1   H7A  826   4.950   2.582   9.739 -1.2489 -1.1849 -0.9021
   12CHL1   H7B  827   4.777   2.624   9.757 -1.7077  1.4480  2.7221
   12CHL1    C8  828   4.913   2.793   9.761  0.1673 -0.3161 -0.8769
   12CHL1    H8  829   5.022   2.814   9.769 -0.1530  1.2946 -0.1983
   12CHL1   C14  830   4.868   2.821   9.618  0.5512 -0.7004 -0.0827
   12CHL1   H14  831   4.758   2.809   9.606 -0.0715  4.3230 -1.6904
   12CHL1   C15  832   4.911   2.734   9.497 -0.2224 -0.7892  0.5215
   12CHL1  H15A  833   5.018   2.707   9.510 -0.1036 -1.7341 -1.8479
   12CHL1  H15B  834   4.853   2.639   9.493  1.5321 -1.9553  1.3264
   12CHL1   C16  835   4.896   2.815   9.368  1.0304 -0.4396 -0.2716
   12CHL1  H16A  836   4.984   2.843   9.307  1.7509 -1.6497  0.1847
   12CHL1  H16B  837   4.823   2.764   9.301 -1.3809 -0.6861  2.3419
   12CHL1   C17  838   4.833   2.951   9.417  0.5244 -0.3811 -0.1007
   12CHL1   H17  839   4.725   2.928   9.422  0.3354 -0.5402 -3.1008
   12CHL1   C13  840   4.889   2.966   9.564  0.2040  0.3184  0.4861
   12CHL1   C18  841   5.037   3.007   9.560 -0.0823  0.1350  0.5638
   12CHL1  H18A  842   5.050   3.110   9.521 -1.2152  0.4715  1.0401
   12CHL1  H18B  843   5.077   2.988   9.663 -1.3518 -1.0016  0.8817
   12CHL1  H18C  844   5.093   2.941   9.489  0.8994  0.1260  1.3143
   12CHL1   C12  845   4.817   3.059   9.657  0.6945 -0.5172  0.1481
   12CHL1  H12A  846   4.828   3.168   9.636  3.0985 -0.4518  1.4437
   12CHL1  H12B  847   4.710   3.032   9.642  0.7433 -1.7928  1.7836
   12CHL1   C11  848   4.855   3.043   9.802  0.3532 -0.4922  0.1383
   12CHL1  H11A  849   4.957   3.082   9.824 -0.4304  1.5071  0.4756
   12CHL1  H11B  850   4.794   3.113   9.863  0.7142 -0.1994  0.1685
   12CHL1    C9  851   4.843   2.897   9.856 -0.1147 -0.6774  0.1653
   12CHL1    H9  852   4.737   2.874   9.833  1.0376 -2.2076 -5.0787
   12CHL1   C10  853   4.887   2.873  10.003 -0.0666  0.2065  0.1803
   12CHL1   C19  854   5.017   2.947  10.032 -0.0370 -0.3774  0.1655
   12CHL1  H19A  855   5.048   2.915  10.133 -1.5715  0.7151  1.0288
   12CHL1  H19B  856   5.101   2.914   9.967  1.0006 -1.4146  1.9558
   12CHL1  H19C  857   5.016   3.058  10.033 -0.3353 -0.2901 -2.4527
   12CHL1    C1  858   4.776   2.928  10.098 -0.7257  0.4893  0.3103
   12CHL1   H1A  859   4.783   3.037  10.083  0.3189  0.1067 -2.5432
   12CHL1   H1B  860   4.676   2.893  10.065 -0.5560 -0.7055  1.0057
   12CHL1    C2  861   4.796   2.892  10.245  0.4024  0.2341  0.0645
   12CHL1   H2A  862   4.706   2.926  10.300 -0.8149  0.7851 -2.1166
   12CHL1   H2B  863   4.888   2.937  10.288  0.6135 -1.2940  1.3160
   12CHL1   C20  864   4.853   3.069   9.316  0.2381  0.0387 -0.3522
   12CHL1   H20  865   4.961   3.093   9.314 -0.2671  2.6689 -0.1252
   12CHL1   C21  866   4.786   3.196   9.355  0.8814  0.6771  1.0046
   12CHL1  H21A  867   4.840   3.243   9.440 -0.8971 -0.2182  2.7015
   12CHL1  H21B  868   4.688   3.172   9.400  0.2139 -0.2743 -0.8445
   12CHL1  H21C  869   4.778   3.268   9.270 -1.3052 -1.4591 -0.7204
   12CHL1   C22  870   4.811   3.029   9.171  0.0161  0.0047 -1.0244
   12CHL1  H22A  871   4.845   2.924   9.154 -3.9212 -1.4081 -1.3337
   12CHL1  H22B  872   4.700   3.021   9.175 -0.0450  0.8959 -0.9092
   12CHL1   C23  873   4.873   3.125   9.065  0.5101  0.2383  0.2636
   12CHL1  H23A  874   4.826   3.225   9.070 -0.0179  0.1880 -2.3539
   12CHL1  H23B  875   4.981   3.149   9.076  0.9586  2.0234 -5.0129
   12CHL1   C24  876   4.841   3.079   8.922  0.5113 -0.0958 -0.3769
   12CHL1  H24A  877   4.896   2.983   8.910  1.4600  0.1208  1.8282
   12CHL1  H24B  878   4.732   3.065   8.906  0.9253 -0.8846 -3.0421
   12CHL1   C25  879   4.884   3.178   8.808  0.6156 -1.1726  0.5739
   12CHL1   H25  880   4.842   3.277   8.838  1.4280 -0.4686 -0.5248
   12CHL1   C26  881   5.035   3.197   8.791 -0.5368 -0.6126  0.2667
   12CHL1  H26A  882   5.055   3.281   8.720  0.1283 -0.3156  0.7911
   12CHL1  H26B  883   5.087   3.234   8.882 -1.5072 -0.7334  0.8830
   12CHL1  H26C  884   5.082   3.099   8.768  0.5655  0.4080 -2.1750
   12CHL1   C27  885   4.825   3.132   8.668  0.7749 -0.3731 -0.3101
   12CHL1  H27A  886   4.866   3.032   8.643  0.9011 -0.6546  0.9313
   12CHL1  H27B  887   4.717   3.117   8.686  0.6559  1.1371  0.3693
   12CHL1  H27C  888   4.847   3.216   8.599  0.4016  2.0241  2.3227
   13CHL1    C3  889   3.851   4.921  10.007 -0.3406  0.5188 -0.2418
   13CHL1    H3  890   3.815   4.824   9.967  0.6788  0.0502 -0.0363
   13CHL1    O3  891   3.919   4.916  10.134 -0.3963 -0.0498 -0.0573
   13CHL1   H3'  892   3.969   4.998  10.138 -0.0850 -0.2401 -0.0148
   13CHL1    C4  893   3.964   4.953   9.900  0.4532  0.1768 -0.7165
   13CHL1   H4A  894   4.006   5.049   9.937  0.7627 -0.4444  0.6090
   13CHL1   H4B  895   4.044   4.877   9.911  1.3079  1.1916  0.4300
   13CHL1    C5  896   3.914   4.968   9.756 -0.2595 -0.6396  0.9114
   13CHL1    C6  897   3.960   4.898   9.652 -0.2635 -0.4971  0.1419
   13CHL1    H6  898   4.039   4.823   9.669  2.2582  2.1340  0.8223
   13CHL1    C7  899   3.916   4.910   9.505  0.3878 -0.0126 -0.2973
   13CHL1   H7A  900   4.003   4.911   9.436 -0.7986 -0.1806 -1.8584
   13CHL1   H7B  901   3.850   4.824   9.483  2.3452 -2.3788  2.3190
   13CHL1    C8  902   3.824   5.035   9.481 -0.3403  0.0165 -0.2034
   13CHL1    H8  903   3.893   5.122   9.476 -1.0914  0.5836 -1.3500
   13CHL1   C14  904   3.745   5.023   9.355  0.7526  0.2118 -0.4607
   13CHL1   H14  905   3.670   4.942   9.368  0.8041  0.4980  2.4583
   13CHL1   C15  906   3.831   4.984   9.233  0.1963  0.2124 -0.6627
   13CHL1  H15A  907   3.922   5.046   9.218 -0.2156  0.6252 -1.5328
   13CHL1  H15B  908   3.871   4.881   9.236  1.4350  0.6824  0.2587
   13CHL1   C16  909   3.748   5.016   9.114  0.4397  0.5669  0.1825
   13CHL1  H16A  910   3.808   5.074   9.040  2.7078 -1.7286  0.0867
   13CHL1  H16B  911   3.707   4.923   9.070  0.2821  0.5858  0.2904
   13CHL1   C17  912   3.627   5.099   9.172 -1.0436  0.0037  0.4454
   13CHL1   H17  913   3.546   5.024   9.189  0.0222 -1.0766  0.8907
   13CHL1   C13  914   3.659   5.144   9.317  0.1020 -0.5826 -0.0382
   13CHL1   C18  915   3.753   5.272   9.310 -0.2553 -0.0726 -0.2817
   13CHL1  H18A  916   3.836   5.258   9.237  0.2320  0.8103  0.0764
   13CHL1  H18B  917   3.695   5.363   9.281 -0.7695 -0.2639  0.1331
   13CHL1  H18C  918   3.820   5.296   9.395  2.7040  2.3893 -3.0262
   13CHL1   C12  919   3.547   5.155   9.420  0.4208  0.2522  0.1853
   13CHL1  H12A  920   3.480   5.239   9.394 -1.5871 -0.9998  1.0269
   13CHL1  H12B  921   3.484   5.065   9.399  0.8251  0.2476 -1.0370
   13CHL1   C11  922   3.615   5.165   9.564 -0.5092 -0.8825  0.1065
   13CHL1  H11A  923   3.662   5.265   9.573  0.2271 -1.2283  0.2055
   13CHL1  H11B  924   3.542   5.160   9.647 -1.0575  2.4851 -0.0338
   13CHL1    C9  925   3.721   5.053   9.594 -0.4044 -1.1595 -0.3911
   13CHL1    H9  926   3.669   4.956   9.608  1.7646 -2.3509 -0.2598
   13CHL1   C10  927   3.797   5.068   9.737 -0.3313  0.7267 -0.5844
   13CHL1   C19  928   3.850   5.208   9.754  0.0871 -0.2029  0.0538
   13CHL1  H19A  929   3.894   5.232   9.853  0.1131  0.4637 -0.1198
   13CHL1  H19B  930   3.929   5.237   9.682  1.5427 -1.4935  1.0697
   13CHL1  H19C  931   3.768   5.282   9.743 -2.3521 -2.5577  0.9873
   13CHL1    C1  932   3.690   5.034   9.848 -0.3687 -0.4638 -0.5464
   13CHL1   H1A  933   3.610   5.110   9.846 -2.5535 -2.6555 -0.5500
   13CHL1   H1B  934   3.637   4.939   9.825 -0.2885 -0.4920 -0.6195
   13CHL1    C2  935   3.746   5.029   9.996  0.6682  0.6098 -0.6038
   13CHL1   H2A  936   3.665   5.013  10.071  0.5425  0.0037 -0.8569
   13CHL1   H2B  937   3.776   5.132  10.024  0.6627 -0.0154  1.8929
   13CHL1   C20  938   3.573   5.199   9.078  0.8502 -0.0869  0.3806
   13CHL1   H20  939   3.650   5.257   9.023  0.5399 -1.5382 -1.7596
   13CHL1   C21  940   3.468   5.289   9.142  0.0519  0.2318 -0.2245
   13CHL1  H21A  941   3.520   5.359   9.211 -0.5960 -0.9676  1.5412
   13CHL1  H21B  942   3.399   5.228   9.205  0.6941  2.5195  2.9157
   13CHL1  H21C  943   3.402   5.350   9.077 -2.8206 -0.7701  1.5852
   13CHL1   C22  944   3.503   5.132   8.958 -0.0724 -0.5707  0.2711
   13CHL1  H22A  945   3.580   5.065   8.914  1.1749  1.5097 -0.8801
   13CHL1  H22B  946   3.418   5.073   8.998  0.3285 -2.1768 -1.1538
   13CHL1   C23  947   3.467   5.233   8.851 -0.2551  0.4154  0.4309
   13CHL1  H23A  948   3.379   5.297   8.875  1.2231  1.9078  2.0534
   13CHL1  H23B  949   3.550   5.295   8.811 -1.6566  0.3580 -2.9717
   13CHL1   C24  950   3.432   5.142   8.726  0.8859  0.6606  0.5683
   13CHL1  H24A  951   3.521   5.088   8.687 -1.5010 -2.1565 -1.3642
   13CHL1  H24B  952   3.361   5.066   8.763  0.1930 -0.0451 -1.9877
   13CHL1   C25  953   3.367   5.207   8.602 -0.5297  0.4995  0.9107
   13CHL1   H25  954   3.258   5.228   8.610 -0.4780  1.0458  0.2603
   13CHL1   C26  955   3.434   5.345   8.563 -0.7350 -0.7546  0.0975
   13CHL1  H26A  956   3.392   5.374   8.465  5.1855  0.1140 -2.5936
   13CHL1  H26B  957   3.406   5.426   8.635 -1.0574 -0.5069 -0.3069
   13CHL1  H26C  958   3.545   5.337   8.556 -0.4646  0.9370  1.5716
   13CHL1   C27  959   3.376   5.103   8.480  1.2081  0.0450 -1.3360
   13CHL1  H27A  960   3.303   5.145   8.407 -0.5381 -2.4535 -1.1428
   13CHL1  H27B  961   3.476   5.109   8.431  1.9331  1.2258  0.1848
   13CHL1  H27C  962   3.340   5.003   8.510 -0.4398  0.5539 -1.5269
   14CHL1    C3  963   3.237   1.380  10.465 -0.4657  0.6796  0.8354
   14CHL1    H3  964   3.345   1.405  10.457 -0.5349  1.0250  1.0034
   14CHL1    O3  965   3.197   1.370  10.602 -0.1686 -0.2298  0.3930
   14CHL1   H3'  966   3.106   1.347  10.581  0.4775 -3.7252  0.7193
   14CHL1    C4  967   3.152   1.476  10.384  0.0510  1.2328 -0.0039
   14CHL1   H4A  968   3.048   1.461  10.418 -0.9361  0.5108 -3.0749
   14CHL1   H4B  969   3.172   1.577  10.425 -1.6849  1.6935 -0.2421
   14CHL1    C5  970   3.153   1.479  10.231  0.3166 -0.3582  0.7341
   14CHL1    C6  971   3.184   1.591  10.163 -0.1302  0.2541 -0.2858
   14CHL1    H6  972   3.194   1.689  10.211 -1.9915  0.8071 -0.9258
   14CHL1    C7  973   3.202   1.593  10.016 -0.0529 -0.4325 -0.1332
   14CHL1   H7A  974   3.154   1.684   9.974  1.2570 -0.5251 -1.9450
   14CHL1   H7B  975   3.309   1.606   9.989  0.4630 -2.8902  0.4808
   14CHL1    C8  976   3.149   1.470   9.947 -0.2226  0.6133  0.8210
   14CHL1    H8  977   3.038   1.469   9.945 -0.2333  1.3415  0.8842
   14CHL1   C14  978   3.201   1.472   9.802  0.8430  0.5319  0.2515
   14CHL1   H14  979   3.311   1.457   9.801  1.1050  2.2352 -0.6623
   14CHL1   C15  980   3.172   1.596   9.716  0.2187  0.3091  0.0340
   14CHL1  H15A  981   3.065   1.623   9.707  0.6245  1.8547 -0.5858
   14CHL1  H15B  982   3.238   1.683   9.738  0.2178  0.0608  1.0560
   14CHL1   C16  983   3.202   1.547   9.572 -0.5270 -0.1526 -0.0869
   14CHL1  H16A  984   3.131   1.575   9.491 -0.3779 -1.8976 -0.8828
   14CHL1  H16B  985   3.302   1.588   9.546 -0.4519  1.6347  2.6059
   14CHL1   C17  986   3.216   1.387   9.574 -0.3424  0.3373  0.5319
   14CHL1   H17  987   3.325   1.364   9.574 -0.6413 -1.2091 -0.6375
   14CHL1   C13  988   3.156   1.351   9.718  0.8229  0.3855 -0.2846
   14CHL1   C18  989   3.003   1.346   9.699  0.1948 -0.4749  0.5636
   14CHL1  H18A  990   2.966   1.440   9.652 -0.9615 -1.7431 -1.1996
   14CHL1  H18B  991   2.972   1.265   9.630 -1.7826 -0.2952  1.1839
   14CHL1  H18C  992   2.934   1.330   9.785 -0.8977  0.0837 -0.1915
   14CHL1   C12  993   3.204   1.220   9.798 -0.0203  0.2282  0.2616
   14CHL1  H12A  994   3.183   1.126   9.743 -0.2858  0.2135  0.3892
   14CHL1  H12B  995   3.315   1.230   9.803  0.1883 -2.1600  1.9320
   14CHL1   C11  996   3.153   1.215   9.942 -0.2697 -1.1159 -0.1446
   14CHL1  H11A  997   3.042   1.207   9.945 -0.7803  3.4322  0.0398
   14CHL1  H11B  998   3.196   1.133  10.002  1.5503  0.0267  0.1924
   14CHL1    C9  999   3.190   1.343  10.018 -0.0468  0.2225 -0.6314
   14CHL1    H9 1000   3.301   1.346  10.024 -0.0322 -1.4665  1.4405
   14CHL1   C10 1001   3.146   1.342  10.168  0.5660  0.2938 -0.4417
   14CHL1   C19 1002   2.996   1.303  10.168  0.6133 -0.4265  0.1234
   14CHL1  H19A 1003   2.981   1.194  10.151 -0.6641 -0.1802 -0.5310
   14CHL1  H19B 1004   2.948   1.329  10.265  0.8097  2.9678 -0.5701
   14CHL1  H19C 1005   2.933   1.349  10.088  1.2476 -0.7592 -0.5839
   14CHL1    C1 1006   3.228   1.237  10.250 -0.0080 -0.2018 -0.0083
   14CHL1   H1A 1007   3.217   1.132  10.216 -1.5974 -0.7679  2.0824
   14CHL1   H1B 1008   3.335   1.268  10.250 -0.2614  0.7334 -0.9852
   14CHL1    C2 1009   3.212   1.237  10.405  0.0479 -0.1414 -0.5223
   14CHL1   H2A 1010   3.286   1.165  10.446  1.3517  1.2792 -0.2947
   14CHL1   H2B 1011   3.111   1.201  10.435  0.7500 -2.0123 -0.2701
   14CHL1   C20 1012   3.156   1.315   9.446 -0.0215 -0.8869 -0.2327
   14CHL1   H20 1013   3.048   1.342   9.441 -0.4961 -2.6879 -0.4237
   14CHL1   C21 1014   3.154   1.160   9.464 -0.0683  0.4139  0.1339
   14CHL1  H21A 1015   3.143   1.110   9.365 -0.0728  0.4696  0.1060
   14CHL1  H21B 1016   3.066   1.131   9.525  0.6092 -1.6138  0.2061
   14CHL1  H21C 1017   3.248   1.122   9.510 -0.5206 -0.2568  0.5172
   14CHL1   C22 1018   3.225   1.355   9.313  0.8998 -0.7751  0.5298
   14CHL1  H22A 1019   3.186   1.288   9.233 -0.5250  0.0788  0.4709
   14CHL1  H22B 1020   3.195   1.458   9.286  2.6187 -0.3661  0.0315
   14CHL1   C23 1021   3.379   1.359   9.326 -0.2542  0.0460  0.4810
   14CHL1  H23A 1022   3.410   1.455   9.373  0.5700 -0.4331  0.9210
   14CHL1  H23B 1023   3.418   1.278   9.391 -0.5654  1.7939  3.0114
   14CHL1   C24 1024   3.458   1.346   9.197  0.1690  0.1826 -0.0231
   14CHL1  H24A 1025   3.456   1.445   9.146  2.7622  0.3503  0.0775
   14CHL1  H24B 1026   3.564   1.324   9.223  0.3109 -0.0282 -0.7482
   14CHL1   C25 1027   3.419   1.243   9.090  0.3588 -0.0125 -0.3440
   14CHL1   H25 1028   3.319   1.273   9.053  0.2467 -1.1286 -0.9795
   14CHL1   C26 1029   3.513   1.257   8.971 -0.0119  0.3409  0.0371
   14CHL1  H26A 1030   3.524   1.362   8.937 -2.2489  0.5390 -0.2548
   14CHL1  H26B 1031   3.611   1.225   9.013 -0.8617 -1.2234  0.9063
   14CHL1  H26C 1032   3.486   1.204   8.877 -0.0068  0.1877  0.1223
   14CHL1   C27 1033   3.421   1.092   9.144 -0.4010  0.6228 -1.3744
   14CHL1  H27A 1034   3.527   1.058   9.147 -0.2316  1.0842  2.1217
   14CHL1  H27B 1035   3.385   1.086   9.249  0.9453 -1.6638 -0.9660
   14CHL1  H27C 1036   3.364   1.028   9.074 -0.2040  2.2159 -3.0536
   15CHL1    C3 1037   2.491   0.463  10.181  0.0988  0.2028 -0.2708
   15CHL1    H3 1038   2.588   0.430  10.225  0.0949  0.4920 -0.0430
   15CHL1    O3 1039   2.404   0.438  10.285  0.0385  0.2333  0.1355
   15CHL1   H3' 1040   2.340   0.510  10.282 -1.4200 -1.0218 -2.6689
   15CHL1    C4 1041   2.472   0.615  10.161 -0.1602  0.5993 -0.0953
   15CHL1   H4A 1042   2.362   0.623  10.144 -0.1051 -1.8618 -2.1070
   15CHL1   H4B 1043   2.495   0.675  10.251  0.7182  0.3368 -0.1404
   15CHL1    C5 1044   2.542   0.666  10.041 -0.3893  0.7729  0.9259
   15CHL1    C6 1045   2.637   0.765  10.046  0.7679  0.2296  0.8396
   15CHL1    H6 1046   2.675   0.812  10.139  3.4682  1.6065 -0.8261
   15CHL1    C7 1047   2.709   0.817   9.924  0.2611 -0.3142 -0.6606
   15CHL1   H7A 1048   2.699   0.927   9.933 -2.2030 -0.4543 -0.8597
   15CHL1   H7B 1049   2.817   0.794   9.932  0.4137  0.6420  0.2567
   15CHL1    C8 1050   2.653   0.768   9.788 -0.0971 -0.0875 -0.2862
   15CHL1    H8 1051   2.566   0.834   9.766  1.2413  1.4489 -1.1887
   15CHL1   C14 1052   2.758   0.790   9.675 -0.0842  0.4233 -0.5852
   15CHL1   H14 1053   2.845   0.733   9.715 -2.5513 -2.0966  1.6443
   15CHL1   C15 1054   2.815   0.929   9.660  0.1948 -0.1844  0.0127
   15CHL1  H15A 1055   2.740   1.010   9.646  0.5761  0.1658 -0.0412
   15CHL1  H15B 1056   2.892   0.953   9.736 -0.8876 -1.9494  1.7614
   15CHL1   C16 1057   2.875   0.915   9.513 -0.3242  0.0205 -0.1956
   15CHL1  H16A 1058   2.837   1.000   9.453 -0.3902  0.2040  0.1020
   15CHL1  H16B 1059   2.986   0.920   9.511 -0.2730 -1.0014 -1.7412
   15CHL1   C17 1060   2.846   0.768   9.453 -0.3222 -0.2588 -1.1930
   15CHL1   H17 1061   2.927   0.704   9.493  0.3638  0.7924 -0.8524
   15CHL1   C13 1062   2.722   0.733   9.532  0.1759 -0.6627  0.1648
   15CHL1   C18 1063   2.583   0.793   9.481 -0.4982  0.0461  0.4053
   15CHL1  H18A 1064   2.557   0.733   9.391  0.7041 -1.1886  0.8401
   15CHL1  H18B 1065   2.501   0.780   9.555  1.4416 -1.5452  2.4195
   15CHL1  H18C 1066   2.604   0.898   9.452  0.4024 -0.3637 -0.4989
   15CHL1   C12 1067   2.702   0.579   9.551  0.3714 -0.3973 -1.1129
   15CHL1  H12A 1068   2.645   0.543   9.463 -1.3338 -2.6874  0.8028
   15CHL1  H12B 1069   2.807   0.543   9.559  0.7475  1.0606  1.7165
   15CHL1   C11 1070   2.606   0.541   9.668 -0.6850  0.4178 -0.7531
   15CHL1  H11A 1071   2.503   0.546   9.627 -0.2816 -0.8061 -2.0267
   15CHL1  H11B 1072   2.624   0.434   9.692 -2.6695  0.1466 -0.3673
   15CHL1    C9 1073   2.627   0.617   9.800 -0.8581  0.6558 -0.3585
   15CHL1    H9 1074   2.722   0.572   9.839 -0.4546 -1.0205 -3.0308
   15CHL1   C10 1075   2.522   0.581   9.912 -0.1820 -0.2095 -0.1354
   15CHL1   C19 1076   2.379   0.610   9.863 -0.2606 -0.1434  0.5013
   15CHL1  H19A 1077   2.363   0.528   9.790  0.3996 -2.0343  2.3842
   15CHL1  H19B 1078   2.298   0.607   9.939  1.2202 -2.5101  2.1264
   15CHL1  H19C 1079   2.366   0.709   9.815 -0.4359  0.2682  1.3698
   15CHL1    C1 1080   2.541   0.426   9.945  0.3227 -0.3602 -0.5205
   15CHL1   H1A 1081   2.529   0.360   9.856  0.8173  0.4322 -1.1989
   15CHL1   H1B 1082   2.646   0.403   9.974  0.8082  2.2824  0.0430
   15CHL1    C2 1083   2.452   0.376  10.064  0.0662 -0.5012  0.9938
   15CHL1   H2A 1084   2.477   0.269  10.083 -2.7562 -1.5507 -0.5815
   15CHL1   H2B 1085   2.345   0.387  10.038  0.4723 -0.6538 -0.9313
   15CHL1   C20 1086   2.842   0.773   9.306 -0.2657  0.3378 -0.2813
   15CHL1   H20 1087   2.746   0.821   9.273 -0.9679 -0.8842 -0.0713
   15CHL1   C21 1088   2.836   0.633   9.243 -0.3421 -0.1437  1.2355
   15CHL1  H21A 1089   2.835   0.637   9.132  2.7826 -0.0862  1.1290
   15CHL1  H21B 1090   2.737   0.588   9.264 -0.0714 -2.3545 -1.6496
   15CHL1  H21C 1091   2.928   0.575   9.266  0.8046  1.4271  0.8549
   15CHL1   C22 1092   2.961   0.848   9.245  0.1176 -0.4937  0.2927
   15CHL1  H22A 1093   2.956   0.956   9.271  2.5842 -0.3888  0.6079
   15CHL1  H22B 1094   3.057   0.812   9.287  0.1914  1.4057  1.8922
   15CHL1   C23 1095   2.974   0.843   9.089  0.1214  0.5254  0.1267
   15CHL1  H23A 1096   3.048   0.916   9.050 -0.2953  0.1902 -1.3663
   15CHL1  H23B 1097   3.003   0.744   9.049  0.5330  0.5961  0.2420
   15CHL1   C24 1098   2.851   0.881   9.005  0.1175 -0.2755  0.1270
   15CHL1  H24A 1099   2.771   0.809   9.032 -0.5455  1.5099  3.4856
   15CHL1  H24B 1100   2.826   0.985   9.034  0.3708  0.2077 -1.3077
   15CHL1   C25 1101   2.867   0.882   8.851 -0.6970  0.3848  0.1928
   15CHL1   H25 1102   2.969   0.921   8.833 -0.6329 -0.1066 -0.5390
   15CHL1   C26 1103   2.839   0.749   8.787 -0.1645  0.0000  0.3072
   15CHL1  H26A 1104   2.906   0.678   8.840 -1.2269 -1.1850  0.1192
   15CHL1  H26B 1105   2.734   0.723   8.815 -0.0959 -1.5731 -0.7557
   15CHL1  H26C 1106   2.857   0.765   8.679 -1.6808  2.2061  0.3091
   15CHL1   C27 1107   2.771   0.994   8.785  0.4494  0.1700 -0.0816
   15CHL1  H27A 1108   2.796   1.090   8.835 -0.7559 -1.4288  4.0620
   15CHL1  H27B 1109   2.775   0.993   8.674 -0.2985  0.6279 -0.1204
   15CHL1  H27C 1110   2.664   0.971   8.806 -0.3330  2.5113 -1.1359
   16CHL1    C3 1111   3.673   6.768  10.287 -0.6613 -0.2253  0.0090
   16CHL1    H3 1112   3.587   6.832  10.258  1.4715  3.1085  0.4173
   16CHL1    O3 1113   3.681   6.758  10.432 -0.1001 -0.4045  0.5048
   16CHL1   H3' 1114   3.767   6.719  10.451  0.2081 -0.4896 -0.9895
   16CHL1    C4 1115   3.654   6.625  10.238 -0.1042  0.5537  0.1805
   16CHL1   H4A 1116   3.737   6.566  10.282  0.5371 -0.3874 -2.1336
   16CHL1   H4B 1117   3.566   6.575  10.284  0.6001  0.7830  1.8570
   16CHL1    C5 1118   3.654   6.623  10.091  0.0149 -0.2119 -0.2118
   16CHL1    C6 1119   3.559   6.563  10.024 -0.1659  0.4538  0.2340
   16CHL1    H6 1120   3.463   6.543  10.073 -0.3494 -2.4540 -1.0769
   16CHL1    C7 1121   3.565   6.552   9.875  0.1059  0.3230 -0.4213
   16CHL1   H7A 1122   3.522   6.456   9.839 -1.4938 -0.3349  2.9162
   16CHL1   H7B 1123   3.510   6.635   9.826  2.8670  2.4116 -0.2348
   16CHL1    C8 1124   3.703   6.564   9.809 -0.3325 -0.2180  0.0759
   16CHL1    H8 1125   3.760   6.471   9.833  0.0759  0.5877  2.5294
   16CHL1   C14 1126   3.685   6.596   9.666 -0.1035 -0.2178 -0.1307
   16CHL1   H14 1127   3.628   6.691   9.666 -0.9113 -0.6894 -0.1645
   16CHL1   C15 1128   3.598   6.505   9.578 -0.1878  0.0514 -0.3952
   16CHL1  H15A 1129   3.634   6.400   9.580 -0.8824 -0.1937 -0.5474
   16CHL1  H15B 1130   3.492   6.498   9.613  0.5671 -0.3807  2.0231
   16CHL1   C16 1131   3.615   6.562   9.440 -0.0975 -0.3858 -0.7852
   16CHL1  H16A 1132   3.623   6.479   9.367  0.7141  1.2260 -2.6200
   16CHL1  H16B 1133   3.530   6.631   9.418 -2.1901 -2.1452  1.1848
   16CHL1   C17 1134   3.753   6.648   9.440 -0.0457  0.8929  0.1740
   16CHL1   H17 1135   3.709   6.750   9.435 -2.7091 -0.2235 -1.1484
   16CHL1   C13 1136   3.814   6.623   9.585 -0.1115  0.6039  0.0461
   16CHL1   C18 1137   3.894   6.496   9.580 -0.1004 -0.1501  0.1270
   16CHL1  H18A 1138   3.933   6.476   9.682  0.8373  1.3945  0.1030
   16CHL1  H18B 1139   3.842   6.401   9.554 -0.4579  0.7114 -2.5582
   16CHL1  H18C 1140   3.977   6.495   9.507  0.1939 -2.8326  0.3725
   16CHL1   C12 1141   3.890   6.739   9.652 -0.0719  0.8120  0.4552
   16CHL1  H12A 1142   3.989   6.750   9.602 -0.4992 -0.5587 -0.7643
   16CHL1  H12B 1143   3.834   6.834   9.638  1.0250  1.4214  0.0154
   16CHL1   C11 1144   3.910   6.717   9.796 -0.3083 -0.0017 -0.2528
   16CHL1  H11A 1145   3.984   6.641   9.826 -1.0690 -0.0597  1.6613
   16CHL1  H11B 1146   3.943   6.814   9.839 -1.2732  0.7019 -1.0424
   16CHL1    C9 1147   3.778   6.680   9.871 -0.7292 -0.1788 -0.2017
   16CHL1    H9 1148   3.715   6.771   9.861  0.7323  0.7141 -1.7055
   16CHL1   C10 1149   3.785   6.674  10.029  0.2766  0.1591  0.2685
   16CHL1   C19 1150   3.906   6.584  10.067 -0.0399  0.1972 -0.0648
   16CHL1  H19A 1151   4.004   6.624  10.035 -0.0254  0.5748  0.4394
   16CHL1  H19B 1152   3.914   6.552  10.173 -1.3733 -2.7474 -0.7551
   16CHL1  H19C 1153   3.904   6.493  10.004 -0.2105 -0.8132  1.3675
   16CHL1    C1 1154   3.796   6.823  10.085 -0.0664  0.0241  0.2593
   16CHL1   H1A 1155   3.893   6.856  10.042  0.0771  0.2578  0.7563
   16CHL1   H1B 1156   3.708   6.881  10.050  1.0181  1.0623 -0.8254
   16CHL1    C2 1157   3.802   6.824  10.235 -0.0672  0.5386 -0.1404
   16CHL1   H2A 1158   3.812   6.924  10.283  0.0421  0.0026  0.9957
   16CHL1   H2B 1159   3.885   6.761  10.275 -1.0531 -0.8963 -0.2878
   16CHL1   C20 1160   3.829   6.639   9.304  0.2883 -0.4999  0.1397
   16CHL1   H20 1161   3.884   6.543   9.292  0.3567 -0.4208 -0.1963
   16CHL1   C21 1162   3.943   6.747   9.310 -0.1474  0.3832  0.2281
   16CHL1  H21A 1163   4.005   6.749   9.217  1.3334  1.1279  1.1972
   16CHL1  H21B 1164   4.023   6.736   9.386  2.0784  2.7233 -1.5560
   16CHL1  H21C 1165   3.909   6.853   9.318  0.8446  0.6627  0.8303
   16CHL1   C22 1166   3.742   6.664   9.179 -0.1011  0.0741 -0.5314
   16CHL1  H22A 1167   3.641   6.618   9.190 -0.2484  0.5332  0.0730
   16CHL1  H22B 1168   3.729   6.774   9.175  2.8708  0.4916 -1.0457
   16CHL1   C23 1169   3.815   6.610   9.050  0.1882 -0.2246 -0.4390
   16CHL1  H23A 1170   3.906   6.673   9.037 -0.0753  1.1500  3.1833
   16CHL1  H23B 1171   3.840   6.504   9.066 -2.2463 -0.6187  1.2775
   16CHL1   C24 1172   3.722   6.650   8.926  0.1422 -0.2897  0.4941
   16CHL1  H24A 1173   3.624   6.600   8.940 -0.1337  0.0836 -0.0763
   16CHL1  H24B 1174   3.698   6.757   8.940 -0.0319  0.2246 -2.8729
   16CHL1   C25 1175   3.774   6.607   8.798  0.2856 -0.5027  0.4619
   16CHL1   H25 1176   3.797   6.500   8.811  0.5528 -0.3879  0.9505
   16CHL1   C26 1177   3.656   6.625   8.700 -0.6404 -0.4131  0.6896
   16CHL1  H26A 1178   3.707   6.588   8.608  1.0336  1.7291  0.6551
   16CHL1  H26B 1179   3.566   6.561   8.704 -0.7011 -0.2659  2.2318
   16CHL1  H26C 1180   3.635   6.732   8.679  2.4793 -0.0339 -1.1969
   16CHL1   C27 1181   3.895   6.688   8.754  0.5189 -0.1937 -0.3850
   16CHL1  H27A 1182   3.983   6.639   8.800 -0.4457  0.1966  1.9954
   16CHL1  H27B 1183   3.907   6.670   8.645  1.1383 -0.2229 -0.3155
   16CHL1  H27C 1184   3.892   6.796   8.778  0.1378 -0.5942  1.5410
   17CHL1    C3 1185   0.169   5.391  10.195  0.8668  0.1009 -0.2029
   17CHL1    H3 1186   0.086   5.465  10.190  1.9758  1.3996 -0.3101
   17CHL1    O3 1187   0.234   5.388  10.321  0.0070 -0.2468  0.3470
   17CHL1   H3' 1188   0.306   5.329  10.297 -0.6023  0.0437 -2.6591
   17CHL1    C4 1189   0.106   5.248  10.169  0.1780  0.6079 -0.1154
   17CHL1   H4A 1190   0.179   5.168  10.194 -2.0649 -1.2686  0.7060
   17CHL1   H4B 1191   0.034   5.231  10.251  0.8982 -2.5312 -0.0083
   17CHL1    C5 1192   0.032   5.247  10.039 -0.2164 -0.0400  0.9841
   17CHL1    C6 1193  -0.097   5.218  10.026  0.5639 -0.6424 -0.0547
   17CHL1    H6 1194  -0.153   5.191  10.117  1.3004  0.1857  0.6593
   17CHL1    C7 1195  -0.164   5.217   9.889 -0.5679 -0.4559  0.0995
   17CHL1   H7A 1196  -0.237   5.135   9.873 -2.0072  1.1806 -2.6156
   17CHL1   H7B 1197  -0.206   5.319   9.875  1.2805  0.5265  1.3606
   17CHL1    C8 1198  -0.058   5.202   9.775  0.0375 -0.5189  0.0038
   17CHL1    H8 1199  -0.015   5.100   9.774  0.5030 -0.3253 -0.2976
   17CHL1   C14 1200  -0.129   5.219   9.642 -0.0073 -0.8825  0.7421
   17CHL1   H14 1201  -0.168   5.322   9.655  0.5533 -0.5207 -0.3291
   17CHL1   C15 1202  -0.254   5.143   9.608 -0.1209  0.2512 -0.2871
   17CHL1  H15A 1203  -0.234   5.035   9.629  0.1038  0.5118  0.8719
   17CHL1  H15B 1204  -0.344   5.173   9.665 -1.4333 -0.2392 -2.0243
   17CHL1   C16 1205  -0.276   5.160   9.455 -0.9144 -0.2640  0.4987
   17CHL1  H16A 1206  -0.281   5.059   9.409 -3.0610  0.9490 -2.2237
   17CHL1  H16B 1207  -0.364   5.223   9.430 -0.6340  0.1000  0.4134
   17CHL1   C17 1208  -0.140   5.234   9.407 -0.2908  0.4519  0.3539
   17CHL1   H17 1209  -0.154   5.345   9.413 -1.2044  0.3072  1.2366
   17CHL1   C13 1210  -0.041   5.214   9.514  0.1847 -0.3705  0.5680
   17CHL1   C18 1211   0.020   5.080   9.497 -0.2005  0.2955 -1.0331
   17CHL1  H18A 1212  -0.047   4.992   9.501  1.6552 -1.1488  0.2007
   17CHL1  H18B 1213   0.070   5.071   9.398 -0.3555 -0.6373 -1.0344
   17CHL1  H18C 1214   0.097   5.060   9.575 -2.4563 -0.9718  0.9996
   17CHL1   C12 1215   0.062   5.330   9.532  0.0491  1.2528  0.2684
   17CHL1  H12A 1216   0.137   5.327   9.450  2.0676  0.9598  2.0534
   17CHL1  H12B 1217   0.010   5.428   9.531 -3.3131 -0.3839  0.6030
   17CHL1   C11 1218   0.138   5.318   9.668 -0.1721  0.5402 -0.0879
   17CHL1  H11A 1219   0.211   5.235   9.658  2.1841  2.5840 -1.1874
   17CHL1  H11B 1220   0.207   5.406   9.668  0.4974  0.0255  0.3124
   17CHL1    C9 1221   0.054   5.299   9.792  0.9345 -0.1278  0.0346
   17CHL1    H9 1222   0.001   5.396   9.809  1.8777  0.1442  1.5842
   17CHL1   C10 1223   0.129   5.286   9.922 -1.0073  1.0128  0.4607
   17CHL1   C19 1224   0.231   5.170   9.919  0.1965  0.2039  0.2008
   17CHL1  H19A 1225   0.173   5.076   9.905  1.1226 -0.3405 -0.0560
   17CHL1  H19B 1226   0.298   5.192   9.833 -1.1742  1.7074 -0.5469
   17CHL1  H19C 1227   0.293   5.161  10.010  0.0058 -1.0936  0.2205
   17CHL1    C1 1228   0.214   5.419   9.946 -0.8101  0.6556 -0.4088
   17CHL1   H1A 1229   0.293   5.439   9.871  0.9717 -2.3406  0.5247
   17CHL1   H1B 1230   0.144   5.506   9.942 -0.5804  0.9927  1.6521
   17CHL1    C2 1231   0.270   5.428  10.087  0.0444 -0.4608 -0.5049
   17CHL1   H2A 1232   0.318   5.527  10.103 -1.0262 -0.1827  1.1620
   17CHL1   H2B 1233   0.351   5.353  10.093  1.7810  1.2274 -1.5774
   17CHL1   C20 1234  -0.101   5.199   9.261  0.5947  0.4445  0.0400
   17CHL1   H20 1235  -0.089   5.089   9.248 -1.3766  0.1457  0.4429
   17CHL1   C21 1236   0.022   5.258   9.204  0.8287 -0.0426 -0.5803
   17CHL1  H21A 1237   0.020   5.369   9.200  4.3630  0.0978 -1.3656
   17CHL1  H21B 1238   0.037   5.233   9.097  0.5784 -0.5936 -0.4908
   17CHL1  H21C 1239   0.112   5.226   9.261 -0.0563  1.1853  1.6278
   17CHL1   C22 1240  -0.224   5.238   9.168  0.8922 -0.6021 -0.1905
   17CHL1  H22A 1241  -0.323   5.200   9.201  0.1078  1.4536  0.0318
   17CHL1  H22B 1242  -0.234   5.349   9.170 -1.4063 -0.7637  0.1125
   17CHL1   C23 1243  -0.223   5.190   9.024  0.6540  0.3342  0.1463
   17CHL1  H23A 1244  -0.137   5.233   8.968  0.7896 -1.3988 -1.0639
   17CHL1  H23B 1245  -0.210   5.080   9.028 -1.9729 -0.0545 -0.1157
   17CHL1   C24 1246  -0.358   5.229   8.950 -0.0864  0.8887  0.4465
   17CHL1  H24A 1247  -0.439   5.184   9.011 -0.0412 -0.0742 -0.1896
   17CHL1  H24B 1248  -0.367   5.340   8.955 -2.4332  0.7521  0.4207
   17CHL1   C25 1249  -0.373   5.207   8.802 -0.4110 -0.2322 -0.2565
   17CHL1   H25 1250  -0.477   5.224   8.770  0.1173 -0.2310 -2.0524
   17CHL1   C26 1251  -0.287   5.310   8.732 -0.4079  0.4155 -0.1163
   17CHL1  H26A 1252  -0.308   5.311   8.623 -0.6328 -0.2457 -0.0842
   17CHL1  H26B 1253  -0.308   5.413   8.768 -1.5074  0.7558 -1.6178
   17CHL1  H26C 1254  -0.180   5.285   8.746 -0.5724 -0.8043 -0.9197
   17CHL1   C27 1255  -0.341   5.063   8.752 -0.1384  0.5135  0.0105
   17CHL1  H27A 1256  -0.343   5.078   8.642 -1.2483  1.9832  0.2003
   17CHL1  H27B 1257  -0.243   5.030   8.793 -0.4342 -0.9956 -0.4217
   17CHL1  H27C 1258  -0.408   4.986   8.795  2.3201  0.7749  4.9757
   18CHL1    C3 1259   6.299   2.208  10.113  0.1135  1.4021 -1.0248
   18CHL1    H3 1260   6.398   2.164  10.139 -0.5035  0.9989  0.8442
   18CHL1    O3 1261   6.258   2.203  10.252 -0.4597  0.1131 -0.4194
   18CHL1   H3' 1262   6.180   2.258  10.250 -0.4305  0.1720 -0.0347
   18CHL1    C4 1263   6.318   2.343  10.051 -0.5941 -0.0856  0.4847
   18CHL1   H4A 1264   6.226   2.399  10.076 -0.3618  0.5466 -0.0430
   18CHL1   H4B 1265   6.407   2.367  10.113  1.4733 -3.2543 -0.9364
   18CHL1    C5 1266   6.366   2.342   9.908 -0.2093  0.1251  0.2371
   18CHL1    C6 1267   6.466   2.420   9.865  0.6144 -0.8015 -0.0195
   18CHL1    H6 1268   6.518   2.491   9.931  0.6283  1.3624 -2.2128
   18CHL1    C7 1269   6.511   2.437   9.722 -0.7325 -0.7511  0.2967
   18CHL1   H7A 1270   6.508   2.546   9.700  0.4442 -0.6427  0.6328
   18CHL1   H7B 1271   6.609   2.387   9.705  0.0274  0.0219  2.1686
   18CHL1    C8 1272   6.411   2.369   9.625 -0.5476 -0.2187  0.1096
   18CHL1    H8 1273   6.321   2.434   9.616  0.9332  2.1642  1.5383
   18CHL1   C14 1274   6.471   2.347   9.489 -0.3093  0.7494 -0.5722
   18CHL1   H14 1275   6.552   2.273   9.507 -1.9692 -0.5894  2.0875
   18CHL1   C15 1276   6.530   2.476   9.417 -0.5237 -0.1047  0.8618
   18CHL1  H15A 1277   6.462   2.563   9.399 -3.2622 -2.2353  0.1685
   18CHL1  H15B 1278   6.625   2.504   9.466 -0.8718  0.4527  1.2317
   18CHL1   C16 1279   6.545   2.427   9.271 -0.3338  0.2339 -0.3171
   18CHL1  H16A 1280   6.488   2.496   9.205  0.0297 -1.2358 -2.2820
   18CHL1  H16B 1281   6.651   2.427   9.237 -0.0442  1.8960  0.4882
   18CHL1   C17 1282   6.481   2.284   9.258  0.5314 -0.5529  0.6956
   18CHL1   H17 1283   6.564   2.213   9.273  1.2838 -0.2271 -1.5352
   18CHL1   C13 1284   6.386   2.277   9.383 -0.0200  0.5166 -0.3549
   18CHL1   C18 1285   6.256   2.355   9.351 -0.0720  0.0620  0.0560
   18CHL1  H18A 1286   6.294   2.451   9.308  1.7708 -0.5555  0.2406
   18CHL1  H18B 1287   6.192   2.308   9.274 -2.6818  0.6874  1.6772
   18CHL1  H18C 1288   6.195   2.381   9.441  0.6823  4.1947 -0.4245
   18CHL1   C12 1289   6.354   2.131   9.438  0.2238  0.4908 -0.7946
   18CHL1  H12A 1290   6.288   2.081   9.363  0.8338  0.1465 -1.1122
   18CHL1  H12B 1291   6.444   2.067   9.450 -0.4807 -0.7551 -1.9554
   18CHL1   C11 1292   6.283   2.141   9.574  0.4166 -0.6509  0.4595
   18CHL1  H11A 1293   6.186   2.192   9.555  2.0772  1.7120 -2.7624
   18CHL1  H11B 1294   6.282   2.039   9.616  1.0176 -0.8457  0.0148
   18CHL1    C9 1295   6.360   2.235   9.677  0.2515  0.1842  0.1540
   18CHL1    H9 1296   6.457   2.184   9.691  0.5898  0.6534 -0.4455
   18CHL1   C10 1297   6.294   2.248   9.816 -0.2016 -0.0562  0.1286
   18CHL1   C19 1298   6.149   2.306   9.796 -0.1924 -0.6193  0.3443
   18CHL1  H19A 1299   6.158   2.397   9.732  1.5402 -0.7407  0.3558
   18CHL1  H19B 1300   6.100   2.232   9.729  0.5760 -0.9152  0.0942
   18CHL1  H19C 1301   6.083   2.327   9.883  1.8581 -1.7458  2.2838
   18CHL1    C1 1302   6.280   2.111   9.887 -0.1007 -0.3900 -0.0844
   18CHL1   H1A 1303   6.211   2.045   9.830  0.3815 -0.5747 -0.4619
   18CHL1   H1B 1304   6.375   2.054   9.889 -0.8227 -1.6428  3.0297
   18CHL1    C2 1305   6.217   2.116  10.027 -0.1284  0.9233 -0.0675
   18CHL1   H2A 1306   6.216   2.014  10.071  0.2722  1.0725  0.3042
   18CHL1   H2B 1307   6.111   2.148  10.025 -1.1838 -2.2633 -1.3171
   18CHL1   C20 1308   6.426   2.243   9.115  0.5441  0.0668  1.1059
   18CHL1   H20 1309   6.348   2.317   9.087  0.7112 -0.0699  0.2590
   18CHL1   C21 1310   6.366   2.105   9.117  0.0301  0.0966  0.1090
   18CHL1  H21A 1311   6.434   2.033   9.168  0.6516 -0.1849 -1.0716
   18CHL1  H21B 1312   6.375   2.063   9.014  0.6336  1.2888 -0.3389
   18CHL1  H21C 1313   6.262   2.105   9.154 -0.3225 -0.1690 -0.8463
   18CHL1   C22 1314   6.539   2.251   9.002 -0.1687 -0.1457 -0.4190
   18CHL1  H22A 1315   6.487   2.224   8.907 -0.1690  1.5304 -0.9194
   18CHL1  H22B 1316   6.579   2.354   8.995 -0.4523  0.1995  2.1911
   18CHL1   C23 1317   6.654   2.154   9.026 -0.3172 -0.9089 -0.1653
   18CHL1  H23A 1318   6.701   2.184   9.122 -0.6253 -1.6833  0.2368
   18CHL1  H23B 1319   6.613   2.051   9.026  0.4373 -1.2251 -1.2939
   18CHL1   C24 1320   6.776   2.157   8.926  0.0303 -0.3615 -0.2875
   18CHL1  H24A 1321   6.734   2.161   8.824 -0.6231  4.0351 -0.0349
   18CHL1  H24B 1322   6.833   2.249   8.953  2.2764 -0.4247 -4.0955
   18CHL1   C25 1323   6.878   2.041   8.926  0.5982  0.6237 -0.1449
   18CHL1   H25 1324   6.821   1.949   8.904  1.5582  0.6974 -3.5479
   18CHL1   C26 1325   6.975   2.057   8.810 -0.6937  0.0482 -0.4760
   18CHL1  H26A 1326   7.004   1.952   8.785 -1.5952 -0.3537  0.1213
   18CHL1  H26B 1327   6.924   2.101   8.722 -0.0506 -1.1662 -1.5139
   18CHL1  H26C 1328   7.063   2.122   8.830 -1.2374  0.9320 -0.9207
   18CHL1   C27 1329   6.963   2.007   9.054 -1.0374 -0.1872 -0.5728
   18CHL1  H27A 1330   7.038   1.929   9.027  0.7659  1.6509 -1.1498
   18CHL1  H27B 1331   7.025   2.093   9.087 -1.5511  0.0666 -0.2607
   18CHL1  H27C 1332   6.903   1.967   9.138  0.1627 -0.6601  0.0928
   19CHL1    C3 1333   1.901   5.731  10.161  0.5855  0.4522  0.5890
   19CHL1    H3 1334   1.942   5.834  10.148 -1.3384  1.0684 -1.2883
   19CHL1    O3 1335   1.894   5.712  10.300  0.0472 -0.1133 -0.1174
   19CHL1   H3' 1336   1.901   5.797  10.344  0.3706 -0.3420  0.2839
   19CHL1    C4 1337   1.757   5.729  10.097  0.0746  0.3245 -1.1533
   19CHL1   H4A 1338   1.715   5.627  10.108 -0.5178  0.4871 -1.8840
   19CHL1   H4B 1339   1.697   5.805  10.151 -2.1764 -1.3444 -1.1793
   19CHL1    C5 1340   1.764   5.757   9.953  0.3604 -0.0133 -0.2029
   19CHL1    C6 1341   1.680   5.843   9.904  0.2551  0.1194  1.1599
   19CHL1    H6 1342   1.616   5.901   9.973  0.7151 -0.7819  2.3786
   19CHL1    C7 1343   1.673   5.871   9.756 -0.3309 -1.1246  0.4865
   19CHL1   H7A 1344   1.572   5.877   9.710  0.7051 -3.1587 -2.3433
   19CHL1   H7B 1345   1.711   5.975   9.743  2.2101 -2.2199 -1.9241
   19CHL1    C8 1346   1.756   5.780   9.664 -0.6298 -0.6372 -0.9642
   19CHL1    H8 1347   1.693   5.693   9.634  0.3343 -1.7924  0.2374
   19CHL1   C14 1348   1.789   5.849   9.529 -0.1976  0.0421 -0.1035
   19CHL1   H14 1349   1.852   5.930   9.570  1.3319 -0.3140 -1.6248
   19CHL1   C15 1350   1.671   5.909   9.457 -0.1867  0.9038  0.5851
   19CHL1  H15A 1351   1.594   5.837   9.423 -0.3557  1.1972  0.3312
   19CHL1  H15B 1352   1.617   5.993   9.506  1.1975  1.6121  0.9528
   19CHL1   C16 1353   1.738   5.961   9.331  0.2776  0.5315  0.7467
   19CHL1  H16A 1354   1.670   5.945   9.245  0.9954  0.0621  0.2454
   19CHL1  H16B 1355   1.749   6.071   9.341  1.1832  0.6142 -0.6836
   19CHL1   C17 1356   1.872   5.882   9.314 -0.0473  0.3235 -0.8923
   19CHL1   H17 1357   1.948   5.959   9.338 -0.6246  0.8464 -0.7334
   19CHL1   C13 1358   1.875   5.776   9.429 -0.1815 -0.1217 -0.0270
   19CHL1   C18 1359   1.795   5.654   9.376  0.1480 -0.2737  0.7656
   19CHL1  H18A 1360   1.721   5.685   9.299 -0.3486 -0.3971  1.1886
   19CHL1  H18B 1361   1.861   5.590   9.312  0.6736 -2.0771  2.9839
   19CHL1  H18C 1362   1.752   5.588   9.455 -0.3665 -1.1749 -0.2401
   19CHL1   C12 1363   2.004   5.739   9.500 -0.1102 -0.2913 -0.3068
   19CHL1  H12A 1364   2.069   5.678   9.434 -0.8124 -2.2095  0.6800
   19CHL1  H12B 1365   2.058   5.832   9.525 -0.1957 -0.3215 -0.0014
   19CHL1   C11 1366   1.975   5.659   9.632 -0.9180 -0.8945 -0.5054
   19CHL1  H11A 1367   1.914   5.570   9.605  1.5583 -1.8818 -3.3767
   19CHL1  H11B 1368   2.075   5.628   9.669 -0.2037  1.4476 -0.3076
   19CHL1    C9 1369   1.885   5.740   9.730 -0.2791  0.7812  0.4098
   19CHL1    H9 1370   1.941   5.834   9.745 -0.8667  0.9973  1.3193
   19CHL1   C10 1371   1.867   5.676   9.878 -0.3865  0.2854  0.5782
   19CHL1   C19 1372   1.826   5.529   9.853  0.3705 -0.7079 -0.5661
   19CHL1  H19A 1373   1.898   5.467   9.795 -0.5176 -1.4312 -0.9051
   19CHL1  H19B 1374   1.785   5.488   9.948  0.2816 -0.9945 -0.7290
   19CHL1  H19C 1375   1.731   5.535   9.796  0.2707  2.2489 -0.2616
   19CHL1    C1 1376   2.005   5.672   9.942  0.1415  0.4835 -1.0359
   19CHL1   H1A 1377   2.077   5.605   9.891  1.0901  1.1567 -0.6160
   19CHL1   H1B 1378   2.047   5.775   9.941  0.2449  0.5346  1.4036
   19CHL1    C2 1379   1.991   5.631  10.091  0.0582  0.5840  0.5312
   19CHL1   H2A 1380   2.094   5.636  10.132  0.3928 -1.6008  0.0548
   19CHL1   H2B 1381   1.949   5.529  10.105  0.2227  0.4779  0.2633
   19CHL1   C20 1382   1.913   5.843   9.170 -0.2519  0.2571  0.2771
   19CHL1   H20 1383   1.845   5.762   9.135 -1.5590  1.0006  0.9856
   19CHL1   C21 1384   2.058   5.800   9.173 -0.5603 -0.2960 -0.7144
   19CHL1  H21A 1385   2.122   5.869   9.232  0.2378 -0.7617 -1.0212
   19CHL1  H21B 1386   2.102   5.807   9.071 -1.5081 -0.9051 -1.1843
   19CHL1  H21C 1387   2.059   5.696   9.214 -1.7232  0.0126  0.1381
   19CHL1   C22 1388   1.901   5.960   9.066  0.5057  0.3350  0.2677
   19CHL1  H22A 1389   1.817   6.023   9.101 -1.5533 -2.5032  0.8089
   19CHL1  H22B 1390   1.990   6.025   9.077  0.6255  0.0433  1.1094
   19CHL1   C23 1391   1.883   5.909   8.930 -0.2389 -0.4289 -0.6871
   19CHL1  H23A 1392   1.983   5.872   8.898  0.9608  1.8356  0.2220
   19CHL1  H23B 1393   1.810   5.826   8.917 -0.1734 -0.7169  0.6371
   19CHL1   C24 1394   1.842   6.031   8.839  0.4497  0.0704  0.3290
   19CHL1  H24A 1395   1.754   6.087   8.876  0.2365  1.3197 -1.8663
   19CHL1  H24B 1396   1.922   6.108   8.836 -0.8334  1.5675  2.3013
   19CHL1   C25 1397   1.807   6.001   8.696  0.0678 -0.5015  0.6599
   19CHL1   H25 1398   1.725   5.927   8.688  0.0623 -0.3919 -0.4305
   19CHL1   C26 1399   1.777   6.134   8.626 -0.0755  0.3981 -0.0291
   19CHL1  H26A 1400   1.695   6.184   8.681  0.6112  1.8964 -0.3139
   19CHL1  H26B 1401   1.858   6.209   8.618 -0.9201  1.2905 -0.3455
   19CHL1  H26C 1402   1.739   6.108   8.524  0.7433 -0.9746 -0.0141
   19CHL1   C27 1403   1.926   5.934   8.625  0.0320 -0.5487  0.1719
   19CHL1  H27A 1404   1.903   5.877   8.533  0.0602 -0.4174  0.0834
   19CHL1  H27B 1405   2.008   6.006   8.606  0.5629 -1.5367 -1.4886
   19CHL1  H27C 1406   1.979   5.863   8.692  0.6113 -0.5017 -0.2295
   20CHL1    C3 1407   4.942   6.356  10.224  0.2726  0.0002 -0.2702
   20CHL1    H3 1408   4.967   6.464  10.225  1.6225 -0.2895 -0.6085
   20CHL1    O3 1409   4.923   6.309  10.359 -0.2184 -0.4636  0.4067
   20CHL1   H3' 1410   4.902   6.216  10.350 -0.3946 -0.3639 -0.3295
   20CHL1    C4 1411   4.811   6.317  10.145 -0.1740  0.1624 -0.0097
   20CHL1   H4A 1412   4.804   6.208  10.163 -1.3385  0.2725  0.2904
   20CHL1   H4B 1413   4.724   6.361  10.198  1.9001  3.2192  1.1519
   20CHL1    C5 1414   4.811   6.343   9.999  0.1713 -0.2144 -0.5708
   20CHL1    C6 1415   4.711   6.410   9.940  0.1811 -0.4032 -0.1332
   20CHL1    H6 1416   4.618   6.439   9.991 -0.6659 -1.0972 -1.2412
   20CHL1    C7 1417   4.703   6.431   9.795 -0.0698 -0.2762 -0.0280
   20CHL1   H7A 1418   4.607   6.388   9.759 -0.0817 -1.7121  1.6254
   20CHL1   H7B 1419   4.708   6.538   9.766 -1.3549 -0.1584  0.1135
   20CHL1    C8 1420   4.807   6.352   9.708 -0.2337 -0.3741 -0.0233
   20CHL1    H8 1421   4.776   6.245   9.710  1.7190 -0.9660  0.9192
   20CHL1   C14 1422   4.817   6.407   9.565 -0.0926 -0.3269 -0.1449
   20CHL1   H14 1423   4.859   6.508   9.585 -0.4848  0.0490 -1.1311
   20CHL1   C15 1424   4.684   6.425   9.486 -0.3153 -0.6390  0.2759
   20CHL1  H15A 1425   4.613   6.342   9.505 -1.0899 -0.0827 -0.1451
   20CHL1  H15B 1426   4.636   6.519   9.521  1.6660  0.0512  1.3240
   20CHL1   C16 1427   4.729   6.436   9.344  0.1311 -0.0577 -0.1311
   20CHL1  H16A 1428   4.689   6.350   9.286  0.9847 -1.2471  0.9805
   20CHL1  H16B 1429   4.697   6.529   9.294 -0.3062 -0.4709 -0.6362
   20CHL1   C17 1430   4.884   6.413   9.345 -0.0218  0.7797  0.1342
   20CHL1   H17 1431   4.932   6.513   9.351  0.1052  0.6962  0.5289
   20CHL1   C13 1432   4.917   6.337   9.474 -0.0576  0.2714 -0.1841
   20CHL1   C18 1433   4.881   6.188   9.450 -0.1220  0.6570  0.4002
   20CHL1  H18A 1434   4.776   6.188   9.414 -0.5409  3.4880  1.3813
   20CHL1  H18B 1435   4.954   6.133   9.386 -1.2289  0.2756 -0.5710
   20CHL1  H18C 1436   4.893   6.137   9.548  2.9258  1.3133  0.4843
   20CHL1   C12 1437   5.051   6.352   9.539 -0.5075  0.4793 -0.6009
   20CHL1  H12A 1438   5.137   6.306   9.487  1.8401  1.5834  2.0015
   20CHL1  H12B 1439   5.076   6.460   9.543 -0.7758  0.5720 -1.2873
   20CHL1   C11 1440   5.054   6.294   9.681  0.3508 -0.7478  0.0157
   20CHL1  H11A 1441   5.059   6.183   9.678 -3.7781 -1.1186  1.4662
   20CHL1  H11B 1442   5.144   6.322   9.740 -0.1829 -1.1536  1.0506
   20CHL1    C9 1443   4.945   6.351   9.775 -0.1794  0.5721 -0.1475
   20CHL1    H9 1444   4.977   6.457   9.782  3.2377 -0.3984  0.8349
   20CHL1   C10 1445   4.934   6.293   9.922 -0.2536 -0.4698  0.4265
   20CHL1   C19 1446   4.933   6.137   9.919 -0.3388  0.2016 -0.0760
   20CHL1  H19A 1447   4.909   6.097  10.020 -1.1905 -1.2887 -0.8253
   20CHL1  H19B 1448   4.859   6.112   9.839  1.2344  4.3330 -3.2394
   20CHL1  H19C 1449   5.033   6.102   9.885  0.3714  0.9106  1.2032
   20CHL1    C1 1450   5.059   6.345  10.010 -0.2867 -0.0411  0.1097
   20CHL1   H1A 1451   5.157   6.315   9.967 -1.1277 -0.8199 -1.3688
   20CHL1   H1B 1452   5.038   6.451  10.034 -0.3356 -0.4326  1.9581
   20CHL1    C2 1453   5.058   6.292  10.159 -0.4885 -0.0728  0.1804
   20CHL1   H2A 1454   5.146   6.322  10.220  0.2375 -0.6471 -0.5625
   20CHL1   H2B 1455   5.057   6.181  10.157 -1.4895 -0.0641 -0.8688
   20CHL1   C20 1456   4.920   6.367   9.213  0.2585  0.0690  0.5275
   20CHL1   H20 1457   4.874   6.267   9.198 -1.2304  0.7590  0.2542
   20CHL1   C21 1458   5.065   6.359   9.197 -0.0207  0.6729 -0.1328
   20CHL1  H21A 1459   5.116   6.351   9.295  1.1196  0.3736 -0.7320
   20CHL1  H21B 1460   5.104   6.454   9.155  0.8901  0.1413 -0.5405
   20CHL1  H21C 1461   5.096   6.270   9.137  0.1938 -1.0290  2.3338
   20CHL1   C22 1462   4.868   6.447   9.092  0.0662  0.2887 -0.5317
   20CHL1  H22A 1463   4.757   6.445   9.093  0.0730 -0.3030  0.9669
   20CHL1  H22B 1464   4.904   6.549   9.117  1.2827 -0.2411 -0.0635
   20CHL1   C23 1465   4.919   6.401   8.955  0.1130  1.1723 -0.0280
   20CHL1  H23A 1466   5.024   6.436   8.942  0.0738  2.1428  1.9077
   20CHL1  H23B 1467   4.924   6.290   8.956  1.7708  1.1959 -1.1485
   20CHL1   C24 1468   4.835   6.453   8.840 -0.2155  0.8246  0.0882
   20CHL1  H24A 1469   4.736   6.405   8.854 -1.0275  1.8882 -1.7177
   20CHL1  H24B 1470   4.819   6.562   8.853 -1.5987  0.5871  0.5321
   20CHL1   C25 1471   4.888   6.411   8.695  1.0129  0.0968 -0.5342
   20CHL1   H25 1472   4.990   6.455   8.688  1.8020 -1.6272 -0.3709
   20CHL1   C26 1473   4.896   6.261   8.657 -0.5576  0.9025 -0.9428
   20CHL1  H26A 1474   4.943   6.206   8.742 -1.0321  1.4319 -0.3256
   20CHL1  H26B 1475   4.795   6.218   8.644  0.5599 -1.3063 -3.0408
   20CHL1  H26C 1476   4.935   6.240   8.555 -3.4987  1.6277 -2.2984
   20CHL1   C27 1477   4.812   6.491   8.584 -0.4569 -0.0075 -0.0996
   20CHL1  H27A 1478   4.868   6.460   8.493 -0.1308  1.5802 -0.4561
   20CHL1  H27B 1479   4.703   6.469   8.577 -0.9253  1.4327  1.8603
   20CHL1  H27C 1480   4.815   6.599   8.608 -1.1957 -0.4800  2.4318
   21CHL1    C3 1481   4.663   3.465  10.286 -0.0039 -0.8178 -0.7014
   21CHL1    H3 1482   4.770   3.452  10.261 -0.1338 -0.7379 -1.3126
   21CHL1    O3 1483   4.631   3.439  10.424 -0.8719  0.3484 -0.6319
   21CHL1   H3' 1484   4.696   3.488  10.475 -0.1523 -2.7146  1.7246
   21CHL1    C4 1485   4.640   3.615  10.246  0.7520 -0.2535 -0.0879
   21CHL1   H4A 1486   4.537   3.641  10.279  1.4501 -0.1854  2.1810
   21CHL1   H4B 1487   4.714   3.678  10.299 -0.9279  1.4650  0.3366
   21CHL1    C5 1488   4.644   3.632  10.099 -0.4685  0.5484 -0.9854
   21CHL1    C6 1489   4.727   3.723  10.042 -0.1832  1.1744 -0.2405
   21CHL1    H6 1490   4.774   3.799  10.107 -0.7658  0.3026  1.2466
   21CHL1    C7 1491   4.744   3.742   9.898 -0.1369  0.1717  0.7691
   21CHL1   H7A 1492   4.741   3.852   9.882 -0.1468  0.0949  0.2570
   21CHL1   H7B 1493   4.837   3.700   9.854  0.4085  2.1304 -0.0667
   21CHL1    C8 1494   4.626   3.665   9.818  0.2636 -1.2064 -0.4160
   21CHL1    H8 1495   4.533   3.724   9.838  1.9367  1.1810  0.7596
   21CHL1   C14 1496   4.654   3.675   9.665 -0.0720 -0.3150 -0.5097
   21CHL1   H14 1497   4.757   3.638   9.644  1.1942  2.0595  1.0708
   21CHL1   C15 1498   4.657   3.822   9.607 -1.1355 -0.1967  0.2847
   21CHL1  H15A 1499   4.576   3.877   9.659 -1.0162 -0.2543  0.5327
   21CHL1  H15B 1500   4.759   3.866   9.607 -0.3311 -1.9343  0.7797
   21CHL1   C16 1501   4.633   3.792   9.457 -0.3346  0.8836  0.0210
   21CHL1  H16A 1502   4.546   3.852   9.423  0.6632  1.2195 -2.1005
   21CHL1  H16B 1503   4.725   3.820   9.403  0.7376  0.2776  1.4553
   21CHL1   C17 1504   4.595   3.641   9.437  0.5076  0.0019 -0.6455
   21CHL1   H17 1505   4.694   3.590   9.427  1.2401  0.9687  1.0419
   21CHL1   C13 1506   4.549   3.601   9.581 -0.4058 -0.0468 -0.3923
   21CHL1   C18 1507   4.401   3.659   9.609 -0.0632  0.3304  0.2575
   21CHL1  H18A 1508   4.381   3.650   9.718 -0.9875 -1.0473 -0.0030
   21CHL1  H18B 1509   4.386   3.765   9.580 -0.0291  0.3374  0.2652
   21CHL1  H18C 1510   4.321   3.596   9.565 -1.3373  2.0234  0.0425
   21CHL1   C12 1511   4.552   3.454   9.632 -0.1402 -0.3622 -0.8337
   21CHL1  H12A 1512   4.485   3.384   9.578 -1.2658 -0.5013  0.6955
   21CHL1  H12B 1513   4.652   3.407   9.631  0.2962  0.3426  2.1540
   21CHL1   C11 1514   4.510   3.441   9.778 -0.0727  0.1868  0.7587
   21CHL1  H11A 1515   4.402   3.466   9.782  0.0286  0.5773  1.0172
   21CHL1  H11B 1516   4.518   3.337   9.817 -2.8174 -0.4647 -0.1827
   21CHL1    C9 1517   4.602   3.526   9.870  0.2574  0.3730  0.3389
   21CHL1    H9 1518   4.702   3.477   9.860 -0.7615 -1.7698 -0.0651
   21CHL1   C10 1519   4.566   3.521  10.019  0.7866  0.5320 -0.2252
   21CHL1   C19 1520   4.416   3.559  10.045 -0.4730 -0.1025  0.2707
   21CHL1  H19A 1521   4.388   3.664  10.023  0.0833 -0.2449 -1.2453
   21CHL1  H19B 1522   4.341   3.498   9.989 -1.0991  0.9371 -0.0489
   21CHL1  H19C 1523   4.391   3.544  10.152  1.5795  0.7087  0.9124
   21CHL1    C1 1524   4.610   3.380  10.061  0.0119  0.0630 -0.5846
   21CHL1   H1A 1525   4.549   3.301  10.012 -0.2951  0.1406 -0.3269
   21CHL1   H1B 1526   4.718   3.363  10.041  0.4483  1.1872  0.6990
   21CHL1    C2 1527   4.597   3.354  10.207  0.2432 -0.7216  0.4023
   21CHL1   H2A 1528   4.646   3.255  10.224 -0.3182 -1.1455 -0.3586
   21CHL1   H2B 1529   4.490   3.352  10.236 -0.6785 -1.8039 -2.6763
   21CHL1   C20 1530   4.500   3.627   9.320  0.0180  0.0447  0.1118
   21CHL1   H20 1531   4.405   3.682   9.337 -1.7174 -1.1764 -4.2267
   21CHL1   C21 1532   4.467   3.482   9.305  0.0693  0.8099 -0.3459
   21CHL1  H21A 1533   4.559   3.420   9.307 -0.9693 -0.7722  1.8809
   21CHL1  H21B 1534   4.407   3.459   9.214 -0.9572 -1.1506  0.7518
   21CHL1  H21C 1535   4.407   3.445   9.391  1.9659 -1.1831  0.2031
   21CHL1   C22 1536   4.547   3.686   9.189 -0.6108  0.5752 -0.0229
   21CHL1  H22A 1537   4.575   3.792   9.208 -0.5901  1.1537 -2.8895
   21CHL1  H22B 1538   4.635   3.638   9.142 -0.2920  1.9949 -0.9525
   21CHL1   C23 1539   4.434   3.697   9.091  0.4964 -0.8690 -1.1724
   21CHL1  H23A 1540   4.420   3.594   9.053  1.8740 -1.5240 -0.0122
   21CHL1  H23B 1541   4.342   3.743   9.132  1.3052  1.0505 -1.4140
   21CHL1   C24 1542   4.473   3.785   8.981  0.6188 -0.5973  0.8826
   21CHL1  H24A 1543   4.515   3.883   9.013  1.1542  0.0145 -1.5319
   21CHL1  H24B 1544   4.553   3.732   8.925  0.0855  0.6528 -1.1533
   21CHL1   C25 1545   4.360   3.807   8.871 -0.8295 -0.5068  0.2091
   21CHL1   H25 1546   4.279   3.859   8.926 -1.7570 -2.3267  0.6376
   21CHL1   C26 1547   4.399   3.892   8.751  0.4540 -0.7005 -0.3438
   21CHL1  H26A 1548   4.470   3.827   8.695  0.9201 -2.2836  1.9289
   21CHL1  H26B 1549   4.312   3.907   8.683 -0.5225 -1.5175  0.6768
   21CHL1  H26C 1550   4.432   3.992   8.786  1.3336 -0.7148 -1.0919
   21CHL1   C27 1551   4.300   3.673   8.816 -0.4191 -0.1290 -0.0905
   21CHL1  H27A 1552   4.376   3.624   8.752 -0.8271  0.9771 -1.4598
   21CHL1  H27B 1553   4.280   3.606   8.903 -0.7075 -1.3706 -1.0924
   21CHL1  H27C 1554   4.214   3.696   8.749  0.9808 -0.7649 -2.1650
   22CHL1    C3 1555   5.223   3.975  10.020 -0.3029 -0.0708 -0.7690
   22CHL1    H3 1556   5.205   4.081   9.993 -2.0677  0.0627  0.7003
   22CHL1    O3 1557   5.199   3.964  10.160  0.1971  0.0819  0.3174
   22CHL1   H3' 1558   5.243   4.036  10.204  1.9002 -0.1334 -0.9160
   22CHL1    C4 1559   5.116   3.889   9.947 -0.2120 -0.0761 -0.1754
   22CHL1   H4A 1560   5.126   3.788   9.992 -2.4770  0.1135  0.9274
   22CHL1   H4B 1561   5.017   3.933   9.972 -1.1765 -1.7083 -0.9377
   22CHL1    C5 1562   5.138   3.902   9.798 -0.2072  0.3936  0.1881
   22CHL1    C6 1563   5.036   3.934   9.718 -0.1826  0.1910  0.2465
   22CHL1    H6 1564   4.936   3.944   9.763  0.2634 -2.6167  2.0865
   22CHL1    C7 1565   5.043   3.939   9.568 -0.0607 -0.3251 -0.5171
   22CHL1   H7A 1566   4.955   3.895   9.516 -1.3511  3.3940 -1.8055
   22CHL1   H7B 1567   5.033   4.047   9.547 -1.6200 -0.4510 -0.5098
   22CHL1    C8 1568   5.177   3.895   9.510  0.1469  0.2285 -0.2039
   22CHL1    H8 1569   5.176   3.784   9.508 -2.4888  0.1521  1.2826
   22CHL1   C14 1570   5.204   3.958   9.378  1.0641 -0.6888  0.0350
   22CHL1   H14 1571   5.228   4.063   9.404  2.0136 -1.1413  1.0592
   22CHL1   C15 1572   5.097   3.946   9.268  0.4355 -0.4843 -0.1089
   22CHL1  H15A 1573   5.058   3.843   9.258 -0.6055 -0.0248 -0.9980
   22CHL1  H15B 1574   5.014   4.015   9.295  2.0267  0.6193  2.4305
   22CHL1   C16 1575   5.176   3.992   9.145 -0.6217 -0.6105  0.7222
   22CHL1  H16A 1576   5.164   3.912   9.069 -1.1930  0.2805 -0.1353
   22CHL1  H16B 1577   5.149   4.088   9.096 -2.5593 -0.3230  2.2442
   22CHL1   C17 1578   5.324   4.003   9.184 -0.2435 -0.1084 -0.4810
   22CHL1   H17 1579   5.340   4.106   9.222  2.1070 -1.2917  2.0369
   22CHL1   C13 1580   5.333   3.919   9.313 -0.5172  0.2716 -0.1272
   22CHL1   C18 1581   5.333   3.769   9.272  0.2509  0.0791 -0.4768
   22CHL1  H18A 1582   5.255   3.746   9.196  0.0429  0.6369 -0.4422
   22CHL1  H18B 1583   5.435   3.748   9.234  0.5442  0.3160  0.1625
   22CHL1  H18C 1584   5.298   3.702   9.353 -1.4870  0.1755 -1.1115
   22CHL1   C12 1585   5.449   3.951   9.397  0.2004  0.2454 -0.2565
   22CHL1  H12A 1586   5.546   3.919   9.355  0.6336 -1.4830  1.8544
   22CHL1  H12B 1587   5.443   4.060   9.418 -2.9357 -0.1455  1.6170
   22CHL1   C11 1588   5.433   3.890   9.545 -0.3541 -0.3386  0.9384
   22CHL1  H11A 1589   5.444   3.780   9.549  1.3492 -0.1846  1.8322
   22CHL1  H11B 1590   5.506   3.938   9.614 -0.0865  0.7021 -0.0385
   22CHL1    C9 1591   5.297   3.929   9.603  0.0641 -0.4039 -0.6977
   22CHL1    H9 1592   5.287   4.039   9.616 -0.4857 -0.4771 -0.4691
   22CHL1   C10 1593   5.287   3.873   9.751  0.2803 -0.3083  0.0390
   22CHL1   C19 1594   5.293   3.718   9.760  0.2889  0.4387  0.2712
   22CHL1  H19A 1595   5.388   3.679   9.717 -0.7871 -1.1883 -0.7768
   22CHL1  H19B 1596   5.292   3.687   9.866 -1.4322 -1.0349 -0.1082
   22CHL1  H19C 1597   5.213   3.664   9.704  0.5697  0.5048 -0.2050
   22CHL1    C1 1598   5.388   3.950   9.844  0.2298  0.1892 -0.2297
   22CHL1   H1A 1599   5.493   3.917   9.830 -0.5893 -2.3111 -0.9585
   22CHL1   H1B 1600   5.382   4.058   9.820  1.3175  0.3685  0.2444
   22CHL1    C2 1601   5.361   3.929   9.989 -0.6150  0.0690 -0.2333
   22CHL1   H2A 1602   5.441   3.981  10.046 -0.7418 -1.8178  1.8128
   22CHL1   H2B 1603   5.377   3.820  10.000 -1.9198 -0.0832  0.3000
   22CHL1   C20 1604   5.430   3.977   9.074  0.3285 -0.0697 -0.3822
   22CHL1   H20 1605   5.456   3.869   9.072 -1.3164 -0.5574  1.7019
   22CHL1   C21 1606   5.558   4.060   9.106 -0.2747 -0.0848 -0.3426
   22CHL1  H21A 1607   5.532   4.166   9.130 -0.6792 -0.7222  2.3645
   22CHL1  H21B 1608   5.641   4.071   9.033  0.8807  3.1198  1.2618
   22CHL1  H21C 1609   5.601   4.017   9.199  0.4207 -0.8320 -0.9994
   22CHL1   C22 1610   5.392   4.023   8.930 -0.1810  0.1268 -0.6399
   22CHL1  H22A 1611   5.291   4.001   8.888 -0.3056  0.9468 -0.7821
   22CHL1  H22B 1612   5.391   4.133   8.946 -0.5350  0.1529 -0.8191
   22CHL1   C23 1613   5.476   3.971   8.805 -0.0127  0.0923 -0.8892
   22CHL1  H23A 1614   5.585   3.991   8.820  0.2044 -0.5421 -1.5305
   22CHL1  H23B 1615   5.464   3.861   8.808 -0.6539  0.1689 -0.5564
   22CHL1   C24 1616   5.429   4.031   8.671  0.1572  0.0613 -0.1030
   22CHL1  H24A 1617   5.505   4.023   8.591 -1.2407  0.2191 -1.4935
   22CHL1  H24B 1618   5.331   3.995   8.632  1.3046  0.9502 -4.3121
   22CHL1   C25 1619   5.402   4.188   8.657 -0.4780  0.0924 -0.0147
   22CHL1   H25 1620   5.323   4.215   8.730 -0.2880 -0.3088  0.3409
   22CHL1   C26 1621   5.534   4.270   8.681  0.3818  0.0875 -0.0746
   22CHL1  H26A 1622   5.559   4.250   8.787 -1.5182 -2.8549 -0.0725
   22CHL1  H26B 1623   5.618   4.241   8.615  0.6897 -0.8204  0.6988
   22CHL1  H26C 1624   5.502   4.377   8.676  0.2128  0.0123 -0.6950
   22CHL1   C27 1625   5.343   4.225   8.522  0.1321 -0.4209  0.1268
   22CHL1  H27A 1626   5.332   4.335   8.529  3.4569  0.0126  0.0904
   22CHL1  H27B 1627   5.417   4.206   8.442  0.8064  0.9741  0.3988
   22CHL1  H27C 1628   5.240   4.188   8.503 -0.5710  0.9273  1.1466
   23CHL1    C3 1629   0.919   5.492  10.358  0.5171  0.3326  0.2629
   23CHL1    H3 1630   1.019   5.463  10.317 -0.8176  0.2366 -3.2953
   23CHL1    O3 1631   0.923   5.537  10.494  0.1614 -0.2322  0.8449
   23CHL1   H3' 1632   0.853   5.602  10.496 -1.5115 -1.7200 -2.2298
   23CHL1    C4 1633   0.881   5.613  10.280  0.0409  0.3734 -0.3419
   23CHL1   H4A 1634   0.794   5.671  10.318  0.0822  0.6444 -0.6481
   23CHL1   H4B 1635   0.971   5.679  10.290 -0.1979  0.9450 -1.7103
   23CHL1    C5 1636   0.875   5.572  10.136  0.5245  0.2457  0.3619
   23CHL1    C6 1637   0.956   5.620  10.043 -0.3297  0.2015  0.4318
   23CHL1    H6 1638   1.034   5.693  10.067 -0.6611  0.8690 -0.4694
   23CHL1    C7 1639   0.952   5.578   9.896 -0.3524 -0.9015 -0.4926
   23CHL1   H7A 1640   0.979   5.664   9.831 -1.3132 -1.1255 -1.1951
   23CHL1   H7B 1641   1.028   5.498   9.878  0.6106 -0.3389  0.8653
   23CHL1    C8 1642   0.813   5.525   9.860  0.0691  0.4611 -0.5101
   23CHL1    H8 1643   0.750   5.615   9.875 -0.5855 -0.2980  1.5346
   23CHL1   C14 1644   0.803   5.475   9.718 -0.3447 -0.2997  0.0852
   23CHL1   H14 1645   0.873   5.389   9.714 -2.0060 -1.8836  2.1146
   23CHL1   C15 1646   0.849   5.574   9.617  0.3220 -0.5467  0.6543
   23CHL1  H15A 1647   0.797   5.670   9.639 -0.2915 -0.6960 -0.1114
   23CHL1  H15B 1648   0.959   5.590   9.613  0.4240 -1.4151 -0.3517
   23CHL1   C16 1649   0.781   5.523   9.486 -0.2172 -0.3426 -0.0873
   23CHL1  H16A 1650   0.701   5.592   9.452 -1.5194 -1.8543 -0.2312
   23CHL1  H16B 1651   0.842   5.501   9.396 -1.9424 -2.5597 -0.8097
   23CHL1   C17 1652   0.703   5.391   9.530 -1.0645  0.2439 -0.8626
   23CHL1   H17 1653   0.776   5.307   9.530 -0.6790  0.4397  2.5200
   23CHL1   C13 1654   0.673   5.418   9.680  1.6505 -0.3034 -0.9300
   23CHL1   C18 1655   0.561   5.522   9.694 -0.2231 -0.1591 -0.0630
   23CHL1  H18A 1656   0.554   5.588   9.604  3.0048  0.3122 -0.1026
   23CHL1  H18B 1657   0.459   5.480   9.702 -1.2840  1.8080 -1.9776
   23CHL1  H18C 1658   0.570   5.588   9.783 -1.0383  1.4820 -1.1404
   23CHL1   C12 1659   0.639   5.296   9.766 -0.0721  0.9893  0.5062
   23CHL1  H12A 1660   0.537   5.264   9.736  0.7417 -1.3893  0.0210
   23CHL1  H12B 1661   0.708   5.211   9.747 -2.0592 -1.3028  2.8171
   23CHL1   C11 1662   0.637   5.346   9.914  0.6538 -0.1047  0.1329
   23CHL1  H11A 1663   0.554   5.419   9.921  1.8282  1.1987  0.9336
   23CHL1  H11B 1664   0.614   5.259   9.979  1.9698 -2.3678 -2.2311
   23CHL1    C9 1665   0.771   5.414   9.955 -0.6142 -0.0419  0.1512
   23CHL1    H9 1666   0.847   5.334   9.940 -1.3760 -1.1536  1.8918
   23CHL1   C10 1667   0.774   5.461  10.100 -0.1269 -0.1242 -0.6962
   23CHL1   C19 1668   0.642   5.529  10.144  0.4276 -0.3468 -0.4356
   23CHL1  H19A 1669   0.599   5.593  10.064  0.5663 -1.8479 -1.7584
   23CHL1  H19B 1670   0.559   5.456  10.155 -0.3876  0.5255 -0.6262
   23CHL1  H19C 1671   0.644   5.581  10.242  1.1309 -0.1108 -0.5698
   23CHL1    C1 1672   0.795   5.338  10.194  0.0188  0.3035 -1.1746
   23CHL1   H1A 1673   0.707   5.270  10.202  0.1050  0.3768  0.8510
   23CHL1   H1B 1674   0.884   5.275  10.173  0.8317  1.4524 -1.2463
   23CHL1    C2 1675   0.813   5.382  10.343 -0.7711 -0.2825 -0.1540
   23CHL1   H2A 1676   0.846   5.301  10.411  0.0955  0.1977  0.0167
   23CHL1   H2B 1677   0.717   5.429  10.370 -0.9426  0.8214 -2.4007
   23CHL1   C20 1678   0.586   5.350   9.437 -0.5909  0.0536  0.6822
   23CHL1   H20 1679   0.490   5.391   9.473 -1.5932 -1.2590 -0.3732
   23CHL1   C21 1680   0.573   5.192   9.450  0.2074 -0.6188  0.1944
   23CHL1  H21A 1681   0.660   5.133   9.415  0.9902 -0.0721  1.1549
   23CHL1  H21B 1682   0.477   5.156   9.407  0.4077  0.9351 -1.7109
   23CHL1  H21C 1683   0.560   5.179   9.560 -0.2475  1.0016  0.3635
   23CHL1   C22 1684   0.594   5.404   9.284 -0.4004 -0.5750  0.2251
   23CHL1  H22A 1685   0.575   5.513   9.285 -3.3745 -0.9958 -0.4015
   23CHL1  H22B 1686   0.684   5.366   9.232  0.2053  1.4189 -0.2414
   23CHL1   C23 1687   0.474   5.345   9.201 -0.9694 -0.1974 -0.1276
   23CHL1  H23A 1688   0.490   5.235   9.200 -0.0720 -0.1852 -3.9164
   23CHL1  H23B 1689   0.376   5.369   9.248  0.0277  1.9758  0.9798
   23CHL1   C24 1690   0.468   5.396   9.059  0.3662  0.8303  0.1808
   23CHL1  H24A 1691   0.480   5.507   9.058  1.1113  0.8001  1.7742
   23CHL1  H24B 1692   0.552   5.359   8.997  1.6801  3.0682  0.5135
   23CHL1   C25 1693   0.333   5.364   8.986 -0.0100  0.1708 -0.4110
   23CHL1   H25 1694   0.249   5.385   9.056  1.6476  1.4292  1.3001
   23CHL1   C26 1695   0.295   5.463   8.874 -0.6627  0.8780  0.8379
   23CHL1  H26A 1696   0.297   5.569   8.906  0.7167  0.3657  2.5890
   23CHL1  H26B 1697   0.366   5.433   8.794 -1.2096  0.4689  0.5000
   23CHL1  H26C 1698   0.196   5.427   8.838  0.3850 -0.3761 -0.9716
   23CHL1   C27 1699   0.324   5.211   8.939  0.4704 -0.7026 -1.1855
   23CHL1  H27A 1700   0.367   5.149   9.021  1.4330 -0.5725 -1.5770
   23CHL1  H27B 1701   0.217   5.184   8.927  0.3170  0.3692 -2.3884
   23CHL1  H27C 1702   0.378   5.199   8.843 -0.1508  3.0619 -2.1657
   24CHL1    C3 1703   2.112   6.651  10.110  0.0141  0.8880 -0.3972
   24CHL1    H3 1704   2.209   6.598  10.113 -0.2926  0.3507  1.3628
   24CHL1    O3 1705   2.064   6.633  10.241 -0.0921 -0.2935  0.0730
   24CHL1   H3' 1706   1.972   6.660  10.245 -0.3157 -1.1359  0.7608
   24CHL1    C4 1707   2.131   6.798  10.082 -0.7303 -0.1465  0.1071
   24CHL1   H4A 1708   2.036   6.853  10.090 -0.5726  0.3149 -0.9156
   24CHL1   H4B 1709   2.197   6.841  10.161 -3.6206  0.9914  2.0485
   24CHL1    C5 1710   2.181   6.826   9.943 -0.4310  0.1718  0.7019
   24CHL1    C6 1711   2.296   6.888   9.914  0.4975 -0.0963 -0.0380
   24CHL1    H6 1712   2.364   6.911   9.997  1.9860  2.8603 -1.9112
   24CHL1    C7 1713   2.334   6.936   9.780  0.2713 -0.3539 -0.5986
   24CHL1   H7A 1714   2.356   7.044   9.794 -0.8669  0.0915 -1.9653
   24CHL1   H7B 1715   2.424   6.883   9.742  0.0624 -0.8517 -0.4049
   24CHL1    C8 1716   2.226   6.923   9.674 -0.1753 -0.5010  0.5668
   24CHL1    H8 1717   2.160   7.012   9.687  1.8383  0.8213  2.6028
   24CHL1   C14 1718   2.283   6.923   9.538 -0.2657  0.0319  0.5025
   24CHL1   H14 1719   2.357   6.840   9.535 -1.3825 -0.9833  0.0735
   24CHL1   C15 1720   2.371   7.037   9.498  0.4912 -0.5585 -0.4617
   24CHL1  H15A 1721   2.323   7.131   9.531  0.0835 -0.9438  0.0592
   24CHL1  H15B 1722   2.469   7.039   9.550 -0.1168  0.0888  0.6873
   24CHL1   C16 1723   2.392   7.031   9.344 -0.5630 -0.4441 -0.9236
   24CHL1  H16A 1724   2.396   7.133   9.299  3.0993 -0.4260 -0.8766
   24CHL1  H16B 1725   2.491   6.983   9.326  1.7299  3.1678  0.7975
   24CHL1   C17 1726   2.284   6.929   9.296  0.4689 -0.1316  0.0082
   24CHL1   H17 1727   2.335   6.831   9.285  0.2432 -0.1234 -1.2629
   24CHL1   C13 1728   2.187   6.909   9.420 -0.3836  0.1803 -0.1112
   24CHL1   C18 1729   2.083   7.021   9.422  0.2654  0.4230 -0.4612
   24CHL1  H18A 1730   2.007   6.992   9.347  0.9439 -2.6708 -0.0883
   24CHL1  H18B 1731   2.015   7.022   9.509 -0.8379  2.2473 -1.2989
   24CHL1  H18C 1732   2.136   7.117   9.401  2.6179 -0.5393  0.6072
   24CHL1   C12 1733   2.142   6.760   9.439  0.1759 -0.2474 -0.3240
   24CHL1  H12A 1734   2.062   6.734   9.368  0.3392  0.3246 -0.7173
   24CHL1  H12B 1735   2.235   6.698   9.440  1.4711  1.6036  1.5817
   24CHL1   C11 1736   2.070   6.748   9.574 -0.2595 -0.9894  0.5279
   24CHL1  H11A 1737   1.990   6.824   9.584  0.0578 -0.5390 -0.2606
   24CHL1  H11B 1738   2.012   6.655   9.594 -1.4643 -0.3457  0.1237
   24CHL1    C9 1739   2.163   6.785   9.697 -0.2494 -1.1633 -0.2305
   24CHL1    H9 1740   2.245   6.710   9.700  2.4915  1.5663 -1.6939
   24CHL1   C10 1741   2.087   6.775   9.833 -0.1975  0.0673 -0.4246
   24CHL1   C19 1742   1.948   6.855   9.839 -0.7147 -0.7037 -0.5182
   24CHL1  H19A 1743   1.967   6.961   9.815 -2.0823 -0.4501 -0.5818
   24CHL1  H19B 1744   1.894   6.821   9.748  0.7347 -1.1471 -1.2429
   24CHL1  H19C 1745   1.896   6.835   9.936 -1.0234  2.2036 -0.0142
   24CHL1    C1 1746   2.070   6.622   9.867  0.2339  0.0310 -0.2420
   24CHL1   H1A 1747   1.996   6.572   9.801 -1.1249  0.5518  0.8477
   24CHL1   H1B 1748   2.167   6.575   9.840 -0.0871 -1.1802  0.6207
   24CHL1    C2 1749   2.016   6.590  10.018  0.5159 -0.4370  1.0143
   24CHL1   H2A 1750   2.004   6.480  10.025  1.5550 -0.5593  1.0328
   24CHL1   H2B 1751   1.917   6.641  10.026  1.0279  1.1686 -1.7081
   24CHL1   C20 1752   2.224   6.947   9.147 -0.0544 -0.9328 -0.0791
   24CHL1   H20 1753   2.156   7.034   9.159  0.4568 -0.1729 -2.3044
   24CHL1   C21 1754   2.145   6.821   9.091 -0.0061  0.1301  0.4022
   24CHL1  H21A 1755   2.085   6.861   9.008 -0.7941 -0.3118  0.7492
   24CHL1  H21B 1756   2.066   6.784   9.159  0.1547 -0.8693  0.0659
   24CHL1  H21C 1757   2.208   6.735   9.059 -1.7555 -1.8191  1.8812
   24CHL1   C22 1758   2.334   6.996   9.043  0.2974  1.2116  0.1314
   24CHL1  H22A 1759   2.393   7.082   9.082  0.9069  1.0058 -0.3196
   24CHL1  H22B 1760   2.407   6.914   9.028  0.2826  0.9905  1.1927
   24CHL1   C23 1761   2.280   7.044   8.907 -0.0337 -0.0143 -0.2069
   24CHL1  H23A 1762   2.231   6.959   8.856  0.5752 -0.0148 -0.8081
   24CHL1  H23B 1763   2.205   7.124   8.928  1.8481  1.8158 -0.0748
   24CHL1   C24 1764   2.381   7.099   8.810 -0.0050  0.1914  0.8652
   24CHL1  H24A 1765   2.438   7.168   8.877  1.8149  0.7138 -1.0840
   24CHL1  H24B 1766   2.442   7.011   8.780 -0.6121  0.1471 -0.3257
   24CHL1   C25 1767   2.315   7.172   8.690 -0.5726  0.3884 -0.1524
   24CHL1   H25 1768   2.243   7.244   8.733 -1.9047 -0.2887 -1.1798
   24CHL1   C26 1769   2.427   7.250   8.616  0.5998 -0.0827 -0.8004
   24CHL1  H26A 1770   2.385   7.295   8.524  0.1342  1.2160  0.0189
   24CHL1  H26B 1771   2.471   7.331   8.679 -0.0243  1.2495 -2.0260
   24CHL1  H26C 1772   2.512   7.179   8.603  1.9149  1.1289  0.7134
   24CHL1   C27 1773   2.252   7.073   8.584 -0.4119 -0.0240 -0.3800
   24CHL1  H27A 1774   2.155   7.034   8.623  0.2923  0.4119  2.0002
   24CHL1  H27B 1775   2.219   7.128   8.494 -0.8293  0.2396 -0.0665
   24CHL1  H27C 1776   2.330   6.997   8.559 -0.6415 -0.6668  0.7679
   25CHL1    C3 1777   3.389   0.753  10.442  0.7344 -0.1230  0.4356
   25CHL1    H3 1778   3.491   0.714  10.419  0.7815 -0.6529  1.5131
   25CHL1    O3 1779   3.394   0.761  10.582  0.6015 -0.3292  0.1594
   25CHL1   H3' 1780   3.460   0.831  10.590  1.4695 -0.9359 -1.2033
   25CHL1    C4 1781   3.381   0.891  10.369 -0.0600  0.1488  0.1846
   25CHL1   H4A 1782   3.286   0.945  10.389 -1.1303 -1.4129 -0.4441
   25CHL1   H4B 1783   3.466   0.944  10.416  0.2129 -2.1097  2.4648
   25CHL1    C5 1784   3.387   0.880  10.222  0.1587 -0.4576  0.2460
   25CHL1    C6 1785   3.478   0.948  10.154  0.6586 -0.3169  0.5862
   25CHL1    H6 1786   3.532   1.028  10.205 -0.6036  1.7678 -1.1536
   25CHL1    C7 1787   3.503   0.921  10.006  0.2090 -0.2945  0.7462
   25CHL1   H7A 1788   3.520   1.022   9.963  1.1329  1.1325  4.1663
   25CHL1   H7B 1789   3.598   0.868   9.982  0.5652  1.0030 -0.8836
   25CHL1    C8 1790   3.392   0.842   9.931  0.8061 -0.6587 -0.1033
   25CHL1    H8 1791   3.294   0.895   9.928 -0.6355 -3.1329  0.2354
   25CHL1   C14 1792   3.429   0.800   9.788  0.1213 -0.2887 -0.0112
   25CHL1   H14 1793   3.522   0.743   9.811  0.2432  0.4197  1.3775
   25CHL1   C15 1794   3.475   0.926   9.701  0.0683  0.3167 -0.8721
   25CHL1  H15A 1795   3.408   1.012   9.726 -0.7324 -0.6193  0.3093
   25CHL1  H15B 1796   3.579   0.961   9.719  0.2124 -0.4078 -0.2756
   25CHL1   C16 1797   3.446   0.864   9.564 -0.9683 -0.3816  0.8849
   25CHL1  H16A 1798   3.380   0.927   9.500  1.7405 -0.2583 -2.0104
   25CHL1  H16B 1799   3.540   0.858   9.506 -2.1642 -1.8969 -0.9969
   25CHL1   C17 1800   3.394   0.714   9.585  0.0786 -0.8919  0.1277
   25CHL1   H17 1801   3.483   0.648   9.589  0.5800 -0.1860  1.0350
   25CHL1   C13 1802   3.324   0.719   9.718 -0.1811 -0.4260 -0.1997
   25CHL1   C18 1803   3.191   0.799   9.697 -0.1734  0.4133 -0.1625
   25CHL1  H18A 1804   3.128   0.723   9.646 -0.1892 -0.4384  1.0787
   25CHL1  H18B 1805   3.148   0.831   9.794  0.7058 -1.8057  1.0484
   25CHL1  H18C 1806   3.202   0.886   9.629  2.3487  0.0772 -0.2907
   25CHL1   C12 1807   3.317   0.590   9.797  0.2322  0.7879 -0.0657
   25CHL1  H12A 1808   3.258   0.515   9.741  2.3632 -0.0736 -1.3031
   25CHL1  H12B 1809   3.417   0.542   9.797 -0.3017 -0.4312  2.0544
   25CHL1   C11 1810   3.275   0.612   9.944 -0.0500 -0.7877 -0.3477
   25CHL1  H11A 1811   3.172   0.652   9.956 -0.1237 -0.7374 -1.1158
   25CHL1  H11B 1812   3.272   0.520  10.006  1.4333 -0.8145 -0.2937
   25CHL1    C9 1813   3.352   0.722  10.019 -0.3535 -0.2085  0.0502
   25CHL1    H9 1814   3.453   0.676  10.032  0.9401  1.8044 -1.8923
   25CHL1   C10 1815   3.302   0.761  10.159 -0.2976  0.5957 -0.2342
   25CHL1   C19 1816   3.162   0.830  10.154 -0.0873  0.7282  0.5749
   25CHL1  H19A 1817   3.078   0.771  10.112  2.8999 -1.7279 -2.6200
   25CHL1  H19B 1818   3.134   0.849  10.260 -1.1728  0.4379  0.3533
   25CHL1  H19C 1819   3.173   0.922  10.093  2.0136 -0.0521 -0.3130
   25CHL1    C1 1820   3.288   0.638  10.245  0.2368  0.0463 -0.1066
   25CHL1   H1A 1821   3.202   0.575  10.216 -0.4805  0.5568  0.8733
   25CHL1   H1B 1822   3.378   0.576  10.223 -0.6885 -1.7113  0.8668
   25CHL1    C2 1823   3.283   0.659  10.399  0.1982 -0.2384  0.3120
   25CHL1   H2A 1824   3.294   0.557  10.442  1.1727 -0.3729 -0.2386
   25CHL1   H2B 1825   3.184   0.703  10.424 -0.5490 -0.4849 -1.9897
   25CHL1   C20 1826   3.313   0.676   9.461 -0.9104 -0.5118  0.1483
   25CHL1   H20 1827   3.231   0.748   9.442  0.5444  0.6207 -2.3443
   25CHL1   C21 1828   3.249   0.537   9.476  0.0323 -0.0776  0.0176
   25CHL1  H21A 1829   3.189   0.523   9.384  0.8466  0.5932 -0.6320
   25CHL1  H21B 1830   3.169   0.536   9.553 -1.2463  1.8949 -1.2043
   25CHL1  H21C 1831   3.330   0.465   9.501 -0.6527 -0.4117  1.3651
   25CHL1   C22 1832   3.408   0.676   9.327  1.0002 -0.2837 -0.0682
   25CHL1  H22A 1833   3.475   0.764   9.323  0.5995  0.0124 -0.4066
   25CHL1  H22B 1834   3.461   0.579   9.322  0.7615 -0.5664  1.9563
   25CHL1   C23 1835   3.307   0.705   9.218  0.0369 -0.0710 -0.2916
   25CHL1  H23A 1836   3.216   0.642   9.226  0.9168 -1.0939  4.7789
   25CHL1  H23B 1837   3.268   0.807   9.238 -1.2564 -0.7658  0.9054
   25CHL1   C24 1838   3.364   0.711   9.075 -0.3752 -0.0826  0.4642
   25CHL1  H24A 1839   3.298   0.774   9.012  3.1847  1.4829 -2.0275
   25CHL1  H24B 1840   3.457   0.769   9.088 -1.1424  0.6874  3.2250
   25CHL1   C25 1841   3.393   0.567   9.012 -0.0416 -0.4051 -0.1730
   25CHL1   H25 1842   3.359   0.492   9.087  0.6198 -0.0463  0.4969
   25CHL1   C26 1843   3.301   0.556   8.888  0.2496 -0.4599 -0.8646
   25CHL1  H26A 1844   3.291   0.447   8.869 -2.5203 -0.1408 -1.5707
   25CHL1  H26B 1845   3.202   0.599   8.910  0.8559 -0.4493  2.1785
   25CHL1  H26C 1846   3.346   0.611   8.801  3.9340 -1.0730  0.4505
   25CHL1   C27 1847   3.537   0.544   8.958 -0.2722 -0.5008 -0.7508
   25CHL1  H27A 1848   3.597   0.522   9.049 -1.8372 -2.1603 -0.0410
   25CHL1  H27B 1849   3.533   0.453   8.894 -0.4042 -1.3670  0.4395
   25CHL1  H27C 1850   3.565   0.637   8.905 -2.9655  1.6946  1.4361
   26CHL1    C3 1851   6.193   2.849  10.056  0.3334 -0.2841 -0.2036
   26CHL1    H3 1852   6.083   2.850  10.040 -0.0213  5.6530  0.3637
   26CHL1    O3 1853   6.217   2.803  10.187 -0.3352  0.2003  0.4908
   26CHL1   H3' 1854   6.307   2.833  10.201  0.7978 -1.4674 -2.4375
   26CHL1    C4 1855   6.273   2.754   9.967  0.2891 -0.1423  0.0895
   26CHL1   H4A 1856   6.371   2.739  10.017 -0.5318 -1.3977  1.4102
   26CHL1   H4B 1857   6.207   2.664   9.969 -1.5839  1.0421 -2.3786
   26CHL1    C5 1858   6.300   2.805   9.830  0.0015  0.0984 -0.3159
   26CHL1    C6 1859   6.275   2.726   9.724 -0.3313  0.3489  0.5379
   26CHL1    H6 1860   6.236   2.626   9.745 -1.2213  0.3299 -1.0010
   26CHL1    C7 1861   6.280   2.759   9.577 -0.6653  0.4026 -0.2184
   26CHL1   H7A 1862   6.337   2.682   9.521 -0.1801 -1.5686  2.7008
   26CHL1   H7B 1863   6.174   2.751   9.542 -0.8427 -0.9380  0.5184
   26CHL1    C8 1864   6.348   2.897   9.554 -0.0311 -0.3172 -0.0418
   26CHL1    H8 1865   6.458   2.887   9.566 -0.1647 -1.1648  0.5407
   26CHL1   C14 1866   6.319   2.943   9.412  0.1656 -0.4854  0.5469
   26CHL1   H14 1867   6.209   2.957   9.417  0.2801  0.1676  1.4828
   26CHL1   C15 1868   6.356   2.851   9.300  0.1114  0.0792  0.5033
   26CHL1  H15A 1869   6.460   2.815   9.311 -0.0572 -0.6762 -0.2833
   26CHL1  H15B 1870   6.287   2.764   9.303  2.4866 -1.8869  3.2157
   26CHL1   C16 1871   6.351   2.949   9.180 -0.5229  0.0213  0.4118
   26CHL1  H16A 1872   6.450   2.930   9.132  0.1951  0.5145  1.6572
   26CHL1  H16B 1873   6.265   2.923   9.114 -1.4227 -0.1304  1.6238
   26CHL1   C17 1874   6.340   3.094   9.234 -0.6576 -0.2974  0.4773
   26CHL1   H17 1875   6.231   3.113   9.228 -0.7611 -1.1835 -4.9202
   26CHL1   C13 1876   6.369   3.082   9.384 -0.7691 -0.5747  0.2690
   26CHL1   C18 1877   6.528   3.105   9.399  0.6277  0.9837 -0.0820
   26CHL1  H18A 1878   6.571   3.205   9.377 -0.0084  1.6192  1.4286
   26CHL1  H18B 1879   6.554   3.078   9.504  0.8605 -0.6384 -0.5242
   26CHL1  H18C 1880   6.575   3.026   9.338 -1.7855 -1.5640  1.1364
   26CHL1   C12 1881   6.296   3.182   9.475  0.5372 -0.8724  0.7813
   26CHL1  H12A 1882   6.337   3.285   9.471 -0.4490 -0.4805  0.6799
   26CHL1  H12B 1883   6.187   3.198   9.464  0.7045 -0.4353 -0.3032
   26CHL1   C11 1884   6.319   3.141   9.624  0.4405  0.4112  0.8184
   26CHL1  H11A 1885   6.427   3.154   9.644 -0.1438  2.3313  3.2203
   26CHL1  H11B 1886   6.258   3.209   9.687 -1.3265 -0.3449  0.0148
   26CHL1    C9 1887   6.290   2.994   9.659  0.3690  0.0355  0.2503
   26CHL1    H9 1888   6.179   2.985   9.657  0.3111  0.6230  0.7848
   26CHL1   C10 1889   6.324   2.958   9.804 -0.2056 -0.3305 -0.0087
   26CHL1   C19 1890   6.477   2.983   9.836  0.2266 -0.2596  0.0922
   26CHL1  H19A 1891   6.537   2.931   9.759 -0.9241 -2.7440  0.7932
   26CHL1  H19B 1892   6.504   3.091   9.844 -0.7255 -0.1263  2.3384
   26CHL1  H19C 1893   6.502   2.932   9.932 -1.5809 -0.5694  0.4357
   26CHL1    C1 1894   6.243   3.044   9.908  0.1930 -0.1321 -0.7415
   26CHL1   H1A 1895   6.271   3.151   9.912  1.0183 -0.3768  1.0144
   26CHL1   H1B 1896   6.137   3.035   9.874  0.1698 -0.3259 -0.6203
   26CHL1    C2 1897   6.250   2.990  10.047 -0.4126 -0.7217 -0.7029
   26CHL1   H2A 1898   6.194   3.049  10.123  1.8942  0.4292  0.1992
   26CHL1   H2B 1899   6.356   2.984  10.077 -0.7906 -1.6787  0.5018
   26CHL1   C20 1900   6.406   3.206   9.143 -0.1231  1.0873  0.4246
   26CHL1   H20 1901   6.517   3.202   9.150 -0.0544 -0.7677 -0.9041
   26CHL1   C21 1902   6.370   3.341   9.196 -0.0871 -0.2934  0.2476
   26CHL1  H21A 1903   6.260   3.354   9.197 -0.0390  0.1828 -0.0094
   26CHL1  H21B 1904   6.410   3.423   9.132  0.2125  1.4157  2.4769
   26CHL1  H21C 1905   6.412   3.344   9.299 -0.1693 -2.3340  0.3781
   26CHL1   C22 1906   6.366   3.184   9.000  0.5528 -0.1578  0.1769
   26CHL1  H22A 1907   6.404   3.084   8.973  1.0371 -0.6485  2.4808
   26CHL1  H22B 1908   6.256   3.192   8.988  0.5977  0.7978  0.2943
   26CHL1   C23 1909   6.426   3.285   8.905 -0.1673  0.2712  0.6845
   26CHL1  H23A 1910   6.381   3.385   8.922 -1.8040 -0.4902  1.0323
   26CHL1  H23B 1911   6.531   3.300   8.937 -0.3008  0.4790  1.0327
   26CHL1   C24 1912   6.407   3.269   8.749 -0.5357 -0.1814 -0.5355
   26CHL1  H24A 1913   6.457   3.347   8.688 -1.3534  2.0811  1.5222
   26CHL1  H24B 1914   6.458   3.177   8.713 -0.1982  0.7379 -2.5177
   26CHL1   C25 1915   6.259   3.260   8.705 -0.3110  0.1971 -0.4247
   26CHL1   H25 1916   6.211   3.184   8.771 -0.5358  0.6523 -0.0578
   26CHL1   C26 1917   6.179   3.396   8.710 -0.1702  0.5826  0.2677
   26CHL1  H26A 1918   6.204   3.450   8.616 -2.3756  2.3081  0.5747
   26CHL1  H26B 1919   6.069   3.381   8.711 -0.1588 -0.3270 -2.6669
   26CHL1  H26C 1920   6.215   3.455   8.797  2.5338 -0.3440 -0.1447
   26CHL1   C27 1921   6.255   3.208   8.553 -0.0497 -0.1750 -0.3053
   26CHL1  H27A 1922   6.301   3.107   8.545  1.7089  0.4882  0.9384
   26CHL1  H27B 1923   6.153   3.212   8.508 -0.4183  0.1400  0.5424
   26CHL1  H27C 1924   6.316   3.281   8.497  0.2153 -1.9449 -2.4962
   27CHL1    C3 1925   3.788   1.365  10.410 -0.8267 -0.3512 -0.3135
   27CHL1    H3 1926   3.777   1.475  10.399  0.2604 -0.2888 -1.0472
   27CHL1    O3 1927   3.767   1.321  10.547 -0.5806  0.0188  0.1948
   27CHL1   H3' 1928   3.773   1.225  10.547 -1.2241 -0.0295 -0.5862
   27CHL1    C4 1929   3.684   1.285  10.339  0.5523  0.0203  0.7508
   27CHL1   H4A 1930   3.686   1.178  10.367 -2.7136 -0.4230 -0.3197
   27CHL1   H4B 1931   3.582   1.318  10.370  0.9211  1.1282  0.8527
   27CHL1    C5 1932   3.700   1.285  10.188 -0.4030 -0.0169 -0.1636
   27CHL1    C6 1933   3.598   1.323  10.107  0.3945 -0.6676  0.0578
   27CHL1    H6 1934   3.499   1.331  10.153  0.0631 -2.9092 -0.1572
   27CHL1    C7 1935   3.610   1.334   9.960 -0.8151 -0.1807  0.0219
   27CHL1   H7A 1936   3.523   1.285   9.911 -2.9068  1.5830  1.7664
   27CHL1   H7B 1937   3.617   1.439   9.924  1.0602 -1.2226 -3.0414
   27CHL1    C8 1938   3.739   1.282   9.901 -0.1416  0.9538 -0.0469
   27CHL1    H8 1939   3.732   1.171   9.901  1.2314  0.8408 -0.4856
   27CHL1   C14 1940   3.765   1.325   9.763 -0.2103  0.3137  0.1065
   27CHL1   H14 1941   3.785   1.434   9.776 -1.3903  0.3282  2.3605
   27CHL1   C15 1942   3.647   1.315   9.666 -0.3938  0.6407 -0.3480
   27CHL1  H15A 1943   3.610   1.210   9.664 -1.8619  1.0838  0.8979
   27CHL1  H15B 1944   3.571   1.393   9.689  0.0099  1.3766 -1.4681
   27CHL1   C16 1945   3.710   1.335   9.529  0.6427  0.2076  0.4297
   27CHL1  H16A 1946   3.675   1.253   9.463  1.4807 -0.0404  0.2847
   27CHL1  H16B 1947   3.688   1.439   9.494 -0.3010  0.6571  2.2380
   27CHL1   C17 1948   3.864   1.333   9.558 -0.3639  0.0377  0.1270
   27CHL1   H17 1949   3.895   1.439   9.571 -0.5093  0.2303 -1.0128
   27CHL1   C13 1950   3.882   1.264   9.695 -0.6365  0.4485  0.0873
   27CHL1   C18 1951   3.871   1.110   9.686  0.3974  0.5034  0.1054
   27CHL1  H18A 1952   3.893   1.065   9.786  0.4385  1.8492  0.7250
   27CHL1  H18B 1953   3.770   1.076   9.656  0.3218  1.8585 -1.2660
   27CHL1  H18C 1954   3.937   1.072   9.605 -1.0160 -1.3344 -0.2521
   27CHL1   C12 1955   4.010   1.295   9.774  0.1560 -0.2093  0.0667
   27CHL1  H12A 1956   4.093   1.229   9.741  0.2401  0.6269 -1.4774
   27CHL1  H12B 1957   4.051   1.396   9.755  0.3238 -0.3577 -0.3891
   27CHL1   C11 1958   3.996   1.271   9.926 -0.5615 -0.1435 -0.1419
   27CHL1  H11A 1959   4.012   1.164   9.952 -1.3538 -0.2123  0.0915
   27CHL1  H11B 1960   4.071   1.333   9.979  1.9040  0.1989 -3.7287
   27CHL1    C9 1961   3.861   1.309   9.987 -0.0588 -0.6101 -0.1698
   27CHL1    H9 1962   3.876   1.419   9.990  2.0925 -0.8472  0.0053
   27CHL1   C10 1963   3.842   1.264  10.135 -0.4515  0.0118  0.2199
   27CHL1   C19 1964   3.864   1.111  10.145  0.2023 -0.1631  0.3091
   27CHL1  H19A 1965   3.823   1.068  10.238  0.0818 -0.6662  0.0307
   27CHL1  H19B 1966   3.817   1.049  10.065  0.3956  1.6230 -1.2660
   27CHL1  H19C 1967   3.975   1.097  10.142  0.2811  0.0890  1.5574
   27CHL1    C1 1968   3.955   1.341  10.219  0.5493 -0.0053  0.1909
   27CHL1   H1A 1969   4.055   1.295  10.200  1.0729  1.3125 -0.3671
   27CHL1   H1B 1970   3.965   1.450  10.202  0.5629  0.0352  0.4510
   27CHL1    C2 1971   3.930   1.327  10.368  0.1782  0.4214  0.3501
   27CHL1   H2A 1972   4.004   1.387  10.426 -0.5026 -1.4701  3.4285
   27CHL1   H2B 1973   3.944   1.219  10.392 -0.7847  0.0398 -0.7423
   27CHL1   C20 1974   3.942   1.277   9.434 -1.0479 -0.6476 -0.5573
   27CHL1   H20 1975   3.942   1.166   9.427 -0.6788 -0.6956  0.1122
   27CHL1   C21 1976   4.092   1.310   9.441 -0.4417 -0.2449 -0.3864
   27CHL1  H21A 1977   4.110   1.419   9.432  1.1869 -0.5547 -1.2192
   27CHL1  H21B 1978   4.152   1.276   9.354 -0.8289 -1.6412 -0.1362
   27CHL1  H21C 1979   4.143   1.270   9.531  0.8662 -1.4621 -1.6268
   27CHL1   C22 1980   3.880   1.317   9.293 -0.5791  0.3754 -0.2301
   27CHL1  H22A 1981   3.799   1.244   9.276 -0.9808  0.8816 -0.5120
   27CHL1  H22B 1982   3.832   1.415   9.315 -1.1329  0.1901 -0.6154
   27CHL1   C23 1983   3.977   1.324   9.180 -0.2039 -0.1005  0.0388
   27CHL1  H23A 1984   4.055   1.401   9.201  0.4048 -1.1308  1.8400
   27CHL1  H23B 1985   4.037   1.231   9.192  0.4525  0.3841  0.6299
   27CHL1   C24 1986   3.920   1.331   9.039  0.3415 -0.2541 -0.0245
   27CHL1  H24A 1987   3.877   1.232   9.011  0.6720 -0.8113  1.3776
   27CHL1  H24B 1988   3.845   1.413   9.034  1.9893  1.3040 -0.3123
   27CHL1   C25 1989   4.027   1.362   8.929  0.1305 -0.5745 -1.0870
   27CHL1   H25 1990   4.088   1.443   8.977  0.1383 -1.9569  1.3926
   27CHL1   C26 1991   4.120   1.238   8.925  0.2653 -0.7202 -0.4469
   27CHL1  H26A 1992   4.153   1.198   9.023 -1.5907 -0.5037  0.3021
   27CHL1  H26B 1993   4.062   1.157   8.874 -1.1374 -1.2424  1.7979
   27CHL1  H26C 1994   4.202   1.266   8.855 -0.2675 -0.6599 -1.0606
   27CHL1   C27 1995   3.971   1.405   8.796 -0.1888 -0.0621  0.3294
   27CHL1  H27A 1996   3.901   1.490   8.810 -1.2673 -0.6251 -1.3433
   27CHL1  H27B 1997   4.053   1.435   8.727  0.1360  1.4691  1.3300
   27CHL1  H27C 1998   3.900   1.328   8.758  0.6039 -0.7922  0.3036
   28CHL1    C3 1999   2.629   6.224  10.195  0.2971 -0.0808  0.6993
   28CHL1    H3 2000   2.715   6.286  10.229  1.0540 -1.9009  2.2475
   28CHL1    O3 2001   2.587   6.141  10.305  0.0414  0.1442  0.4351
   28CHL1   H3' 2002   2.655   6.075  10.317  0.8944  0.9105 -0.0323
   28CHL1    C4 2003   2.509   6.303  10.147  0.9090 -0.2597  0.6327
   28CHL1   H4A 2004   2.425   6.232  10.133  1.3564 -0.6850  0.0778
   28CHL1   H4B 2005   2.469   6.371  10.226 -1.9767  0.6156 -1.4148
   28CHL1    C5 2006   2.535   6.368  10.014  0.4397 -0.6212  0.5761
   28CHL1    C6 2007   2.503   6.496   9.988 -0.2125  0.4717 -0.1769
   28CHL1    H6 2008   2.463   6.559  10.069  4.8586  0.0933  3.0385
   28CHL1    C7 2009   2.533   6.564   9.856  0.0316  0.2456 -0.3376
   28CHL1   H7A 2010   2.462   6.644   9.827 -0.7948  0.1193  1.2061
   28CHL1   H7B 2011   2.632   6.614   9.863  0.5843 -0.4169 -2.5560
   28CHL1    C8 2012   2.556   6.468   9.736 -0.2922  0.3891  0.4383
   28CHL1    H8 2013   2.458   6.420   9.712  0.3065 -1.0058  0.6941
   28CHL1   C14 2014   2.607   6.535   9.607  0.1969  0.2251 -0.4094
   28CHL1   H14 2015   2.698   6.591   9.638  0.6208  0.2016 -1.5871
   28CHL1   C15 2016   2.523   6.643   9.549 -0.0053 -1.3594  0.2531
   28CHL1  H15A 2017   2.417   6.609   9.553 -0.1520 -0.8082  1.6469
   28CHL1  H15B 2018   2.540   6.738   9.605 -1.0279  0.0660 -1.7024
   28CHL1   C16 2019   2.570   6.663   9.406  0.9352 -0.1343  0.0313
   28CHL1  H16A 2020   2.482   6.659   9.338  0.6096  0.6665  0.3989
   28CHL1  H16B 2021   2.613   6.764   9.391 -1.6904  1.3083  1.5572
   28CHL1   C17 2022   2.664   6.550   9.380  0.6871  0.1291 -0.8464
   28CHL1   H17 2023   2.766   6.581   9.412  0.8628 -1.6479  0.4513
   28CHL1   C13 2024   2.636   6.445   9.491  0.3938  0.2409 -0.5010
   28CHL1   C18 2025   2.509   6.366   9.452 -0.0196 -0.1404 -0.2847
   28CHL1  H18A 2026   2.434   6.433   9.405 -2.7704 -1.4724  1.9278
   28CHL1  H18B 2027   2.538   6.290   9.377 -0.7472 -0.2924 -0.4178
   28CHL1  H18C 2028   2.469   6.311   9.539  1.7553 -0.2448  0.5171
   28CHL1   C12 2029   2.754   6.340   9.533  0.2013  0.1583  0.1579
   28CHL1  H12A 2030   2.775   6.270   9.449  0.9289 -0.2016  0.6253
   28CHL1  H12B 2031   2.839   6.406   9.562 -0.2894  1.2512 -0.8372
   28CHL1   C11 2032   2.709   6.264   9.661  1.0152  0.1977  0.2462
   28CHL1  H11A 2033   2.625   6.196   9.635 -0.2427  1.6892  0.2722
   28CHL1  H11B 2034   2.805   6.217   9.690  1.6271  1.8321  0.9398
   28CHL1    C9 2035   2.656   6.360   9.782  0.3215 -0.2340 -0.0972
   28CHL1    H9 2036   2.743   6.425   9.803 -0.2519  0.4647  0.1310
   28CHL1   C10 2037   2.609   6.280   9.906 -0.2584 -0.4441 -0.5345
   28CHL1   C19 2038   2.505   6.178   9.860  0.5094 -0.3001 -0.3382
   28CHL1  H19A 2039   2.454   6.126   9.944 -0.2166  0.5242 -0.2566
   28CHL1  H19B 2040   2.437   6.239   9.798  2.3041  2.6362  0.3319
   28CHL1  H19C 2041   2.543   6.101   9.790  0.6936 -0.7300  0.2225
   28CHL1    C1 2042   2.725   6.208   9.964 -0.8349 -0.0270 -0.1957
   28CHL1   H1A 2043   2.781   6.142   9.895 -0.0165  0.2656  0.1810
   28CHL1   H1B 2044   2.800   6.284   9.994 -1.6857 -0.0221  2.1561
   28CHL1    C2 2045   2.687   6.128  10.085  0.2575 -0.1160  0.5458
   28CHL1   H2A 2046   2.780   6.080  10.124  1.4776  1.4017 -0.3897
   28CHL1   H2B 2047   2.609   6.053  10.061 -1.6426  1.6676  0.9107
   28CHL1   C20 2048   2.671   6.514   9.228  0.0300 -0.0777 -0.4449
   28CHL1   H20 2049   2.570   6.486   9.192  0.1989 -1.6759  0.2229
   28CHL1   C21 2050   2.757   6.390   9.212  0.1787  0.0983  0.5647
   28CHL1  H21A 2051   2.710   6.302   9.261  3.1181 -0.8717  1.8615
   28CHL1  H21B 2052   2.850   6.404   9.270  0.5828 -0.0949 -0.0286
   28CHL1  H21C 2053   2.767   6.367   9.104 -1.8229  0.2786  0.2981
   28CHL1   C22 2054   2.732   6.632   9.143  0.1126  0.9372 -0.4817
   28CHL1  H22A 2055   2.667   6.720   9.160  0.2446  0.9809 -0.2023
   28CHL1  H22B 2056   2.837   6.645   9.177 -1.0259 -0.1097  4.1955
   28CHL1   C23 2057   2.720   6.606   8.991  0.1122  0.0164  0.4690
   28CHL1  H23A 2058   2.787   6.521   8.965 -1.3477 -1.1286  0.3060
   28CHL1  H23B 2059   2.619   6.577   8.954  1.0200 -0.7198 -1.6227
   28CHL1   C24 2060   2.763   6.729   8.915  0.4031 -0.5924  0.1037
   28CHL1  H24A 2061   2.718   6.822   8.956  1.6128  2.0542 -3.9716
   28CHL1  H24B 2062   2.874   6.737   8.917  0.3383  0.4947 -0.5579
   28CHL1   C25 2063   2.742   6.732   8.757 -0.1683  0.2220 -0.1458
   28CHL1   H25 2064   2.776   6.830   8.719 -0.6572  0.2439 -0.5289
   28CHL1   C26 2065   2.816   6.618   8.676 -0.1841 -0.7903  0.2202
   28CHL1  H26A 2066   2.925   6.630   8.688  0.0407  0.6375 -2.5143
   28CHL1  H26B 2067   2.783   6.515   8.702  0.7822 -0.5873  2.4542
   28CHL1  H26C 2068   2.787   6.629   8.569 -0.7206  0.7148  0.4928
   28CHL1   C27 2069   2.590   6.731   8.733 -0.0193  0.3468  0.6080
   28CHL1  H27A 2070   2.532   6.643   8.766  1.2513 -0.4970  0.6749
   28CHL1  H27B 2071   2.552   6.827   8.773  2.7729  0.7536  2.5749
   28CHL1  H27C 2072   2.568   6.737   8.624 -3.0238  0.6068  1.1361
   29CHL1    C3 2073   4.952   3.815   6.640  0.5970 -0.2516 -0.0504
   29CHL1    H3 2074   5.030   3.894   6.645  1.8323 -1.3843 -0.8697
   29CHL1    O3 2075   4.923   3.782   6.508  0.9173  0.3750 -0.2218
   29CHL1   H3' 2076   4.912   3.865   6.462  3.9077  0.4180 -1.0739
   29CHL1    C4 2077   5.023   3.688   6.703 -0.3275  0.2674  0.1326
   29CHL1   H4A 2078   4.955   3.603   6.681  0.4414 -0.1604 -0.6479
   29CHL1   H4B 2079   5.121   3.665   6.657  1.0758 -0.1509  3.0761
   29CHL1    C5 2080   5.040   3.683   6.854 -0.3301 -0.0545 -0.7146
   29CHL1    C6 2081   5.157   3.647   6.912 -0.2648 -0.6017 -0.0417
   29CHL1    H6 2082   5.248   3.619   6.857  0.2649 -1.9733  1.4533
   29CHL1    C7 2083   5.172   3.640   7.061 -0.3870 -0.0058  0.7053
   29CHL1   H7A 2084   5.226   3.545   7.081 -0.4485 -0.4373 -1.0188
   29CHL1   H7B 2085   5.239   3.716   7.105 -0.2854  0.5200 -0.3388
   29CHL1    C8 2086   5.044   3.658   7.146  0.2158 -0.2902  0.7463
   29CHL1    H8 2087   4.993   3.560   7.158 -0.3636  0.0884  1.5221
   29CHL1   C14 2088   5.076   3.708   7.284 -0.1500 -0.5698  0.5442
   29CHL1   H14 2089   5.139   3.800   7.277  3.1878 -2.8043 -2.8668
   29CHL1   C15 2090   5.162   3.622   7.360  0.0941  0.0295  0.0531
   29CHL1  H15A 2091   5.117   3.520   7.362  0.1372  0.0209  1.7168
   29CHL1  H15B 2092   5.266   3.631   7.323  0.8545 -0.2604  2.0337
   29CHL1   C16 2093   5.160   3.679   7.501 -0.0223 -0.0151  0.0388
   29CHL1  H16A 2094   5.130   3.597   7.571  0.3289  1.4903  2.0471
   29CHL1  H16B 2095   5.254   3.732   7.527  0.1206 -0.4215  0.3626
   29CHL1   C17 2096   5.032   3.775   7.510 -1.1712  0.3164 -0.1807
   29CHL1   H17 2097   5.066   3.880   7.498 -1.3587  0.4121  0.1132
   29CHL1   C13 2098   4.951   3.738   7.378  0.3008 -0.5896  0.2138
   29CHL1   C18 2099   4.873   3.619   7.409  0.6194 -0.0714 -0.7341
   29CHL1  H18A 2100   4.789   3.632   7.480  0.7417  0.3673 -0.6629
   29CHL1  H18B 2101   4.817   3.575   7.324 -0.4448 -1.4279  0.6182
   29CHL1  H18C 2102   4.935   3.550   7.469 -1.2177  0.2887  1.7304
   29CHL1   C12 2103   4.876   3.855   7.314 -0.3657  0.3475 -0.2056
   29CHL1  H12A 2104   4.790   3.863   7.384  0.8065 -1.0010  1.4739
   29CHL1  H12B 2105   4.951   3.937   7.317  0.1664  0.0939 -3.4855
   29CHL1   C11 2106   4.828   3.822   7.174 -0.3020 -0.7758 -0.6684
   29CHL1  H11A 2107   4.751   3.742   7.183 -1.8577  0.8752  1.5979
   29CHL1  H11B 2108   4.780   3.906   7.120 -1.7154 -0.9454  0.2715
   29CHL1    C9 2109   4.952   3.775   7.080  0.2545  0.1879 -0.0167
   29CHL1    H9 2110   5.014   3.867   7.072 -0.3052  0.4607 -1.6241
   29CHL1   C10 2111   4.908   3.733   6.935  0.3312  0.3516 -0.1627
   29CHL1   C19 2112   4.806   3.614   6.930  0.0989 -0.5226  0.8038
   29CHL1  H19A 2113   4.844   3.528   6.989 -1.7617 -3.0350 -1.3932
   29CHL1  H19B 2114   4.705   3.632   6.974 -0.4679 -1.9009  0.1281
   29CHL1  H19C 2115   4.782   3.592   6.824 -0.3837 -0.1541  0.8298
   29CHL1    C1 2116   4.860   3.864   6.863 -0.1678  0.2587 -0.5832
   29CHL1   H1A 2117   4.775   3.906   6.921  1.1608  1.3202  0.6804
   29CHL1   H1B 2118   4.935   3.944   6.882 -2.5314  2.4360  0.2434
   29CHL1    C2 2119   4.825   3.858   6.712  0.9231 -1.0889  0.7465
   29CHL1   H2A 2120   4.781   3.953   6.677 -0.8454 -0.9104  3.1451
   29CHL1   H2B 2121   4.754   3.774   6.693  1.9616 -1.5992 -1.1609
   29CHL1   C20 2122   4.962   3.771   7.650  0.6481  0.2981  0.0264
   29CHL1   H20 2123   4.918   3.669   7.664  0.7810  0.1750 -0.4524
   29CHL1   C21 2124   4.851   3.887   7.671 -0.3806  0.0946 -0.0750
   29CHL1  H21A 2125   4.808   3.897   7.773 -0.6357  0.8777 -0.2528
   29CHL1  H21B 2126   4.769   3.868   7.599 -0.4447  0.5314 -0.1205
   29CHL1  H21C 2127   4.903   3.984   7.656  0.0948 -0.2305 -0.5536
   29CHL1   C22 2128   5.070   3.785   7.764  0.0809  0.1049 -0.4054
   29CHL1  H22A 2129   5.146   3.704   7.762 -0.9786 -0.9842  1.1018
   29CHL1  H22B 2130   5.118   3.884   7.748 -0.5424  0.6132  0.7693
   29CHL1   C23 2131   5.005   3.769   7.901 -0.3513 -0.4424  0.6164
   29CHL1  H23A 2132   4.941   3.856   7.929  1.8793  0.6297  2.7460
   29CHL1  H23B 2133   4.937   3.682   7.906  0.3619 -0.9728  1.0948
   29CHL1   C24 2134   5.111   3.739   8.006 -0.2467  0.1025 -0.9239
   29CHL1  H24A 2135   5.141   3.632   7.995 -1.7004 -0.1988 -2.1932
   29CHL1  H24B 2136   5.188   3.819   8.005 -0.2830  0.1587 -0.1000
   29CHL1   C25 2137   5.069   3.762   8.153 -0.2877  0.2139 -0.3916
   29CHL1   H25 2138   4.976   3.705   8.173 -0.5814  1.5121  2.4792
   29CHL1   C26 2139   5.181   3.724   8.249 -0.1116 -0.0385 -0.6915
   29CHL1  H26A 2140   5.271   3.779   8.216 -0.3170  0.1994 -0.8578
   29CHL1  H26B 2141   5.161   3.753   8.355  1.7473  2.6450 -0.9908
   29CHL1  H26C 2142   5.200   3.615   8.256  0.3346  0.0084 -1.1142
   29CHL1   C27 2143   5.041   3.913   8.175  0.5217  0.1997 -0.1961
   29CHL1  H27A 2144   5.120   3.987   8.154  0.2954  0.3581 -0.5033
   29CHL1  H27B 2145   4.952   3.944   8.116 -0.7554 -0.4941  1.2889
   29CHL1  H27C 2146   5.028   3.928   8.284  0.4636  0.0435 -0.1813
   30CHL1    C3 2147   3.728   2.288   7.409 -0.5723 -0.5601 -0.4659
   30CHL1    H3 2148   3.708   2.192   7.462 -1.1835  0.1324  0.6088
   30CHL1    O3 2149   3.679   2.268   7.282 -0.1521  0.3940  0.1998
   30CHL1   H3' 2150   3.713   2.335   7.223 -1.4549  0.6642 -0.2742
   30CHL1    C4 2151   3.655   2.411   7.465  0.7820 -0.1162  0.5295
   30CHL1   H4A 2152   3.672   2.499   7.400 -1.5360  1.3030  1.7179
   30CHL1   H4B 2153   3.544   2.399   7.459  0.7851 -0.6059  1.3032
   30CHL1    C5 2154   3.703   2.443   7.604 -0.5523  0.2369 -0.1445
   30CHL1    C6 2155   3.622   2.428   7.710  0.1473 -0.1067 -0.0459
   30CHL1    H6 2156   3.521   2.390   7.692  0.5969 -2.0539  1.2029
   30CHL1    C7 2157   3.670   2.458   7.853  0.5204  1.1627 -0.1144
   30CHL1   H7A 2158   3.593   2.520   7.904 -0.8155  1.5354 -2.4546
   30CHL1   H7B 2159   3.690   2.363   7.907 -1.6353 -0.0691 -1.3212
   30CHL1    C8 2160   3.796   2.542   7.857 -0.6499 -0.0031 -0.3777
   30CHL1    H8 2161   3.771   2.649   7.840  0.1271  0.1934 -0.2967
   30CHL1   C14 2162   3.862   2.523   7.993 -0.2934  0.4085 -0.5033
   30CHL1   H14 2163   3.873   2.413   8.001  1.6274  0.7181  3.4047
   30CHL1   C15 2164   3.778   2.571   8.118  0.1403  0.7025  0.0410
   30CHL1  H15A 2165   3.723   2.663   8.089 -0.5443  0.6702  1.1741
   30CHL1  H15B 2166   3.701   2.494   8.136 -0.5583  1.1034 -1.1456
   30CHL1   C16 2167   3.883   2.588   8.228  0.1511 -0.4365 -0.1580
   30CHL1  H16A 2168   3.860   2.684   8.279 -1.8814 -0.5365 -0.8034
   30CHL1  H16B 2169   3.878   2.504   8.301  2.3684 -1.7800 -1.4043
   30CHL1   C17 2170   4.029   2.578   8.165  0.2975  0.1862  0.0064
   30CHL1   H17 2171   4.056   2.473   8.188 -0.9404  0.1726  1.5233
   30CHL1   C13 2172   4.002   2.598   8.011  0.3750  0.2697 -0.8411
   30CHL1   C18 2173   3.975   2.756   7.993  0.4698  0.4312  0.0239
   30CHL1  H18A 2174   3.898   2.794   8.063  2.1435  1.8124  1.1778
   30CHL1  H18B 2175   4.063   2.818   8.020  0.9723 -0.7161  1.0984
   30CHL1  H18C 2176   3.955   2.787   7.888 -0.2287 -1.2547 -0.3773
   30CHL1   C12 2177   4.094   2.546   7.911 -1.2270 -0.2486  0.1223
   30CHL1  H12A 2178   4.191   2.600   7.902 -1.2892 -0.1210  0.2062
   30CHL1  H12B 2179   4.109   2.437   7.919  1.7778  0.0876  0.6742
   30CHL1   C11 2180   4.040   2.554   7.768  1.0267  0.1288  0.4135
   30CHL1  H11A 2181   4.038   2.660   7.735 -2.1819  0.7248  2.1134
   30CHL1  H11B 2182   4.112   2.507   7.698  0.2849 -0.0999 -0.2125
   30CHL1    C9 2183   3.896   2.487   7.753 -0.4302  0.0110 -0.5730
   30CHL1    H9 2184   3.918   2.382   7.781 -0.4001  0.5495  1.5841
   30CHL1   C10 2185   3.851   2.478   7.605  0.0691  0.0573  0.0739
   30CHL1   C19 2186   3.877   2.614   7.537  0.0586  0.0158 -0.6861
   30CHL1  H19A 2187   3.835   2.621   7.434  1.5444 -0.7983 -1.3824
   30CHL1  H19B 2188   3.844   2.700   7.599 -0.5204  0.5444 -1.6897
   30CHL1  H19C 2189   3.984   2.639   7.520 -0.6874  2.2131 -2.6683
   30CHL1    C1 2190   3.937   2.373   7.528  0.0445  0.2550  0.3832
   30CHL1   H1A 2191   4.031   2.421   7.495 -0.8313  1.0001 -1.1550
   30CHL1   H1B 2192   3.964   2.283   7.586  0.9689  1.4824  1.9278
   30CHL1    C2 2193   3.872   2.332   7.398 -0.5608 -0.6931 -0.7169
   30CHL1   H2A 2194   3.934   2.255   7.348 -0.3056 -0.2377 -1.1131
   30CHL1   H2B 2195   3.875   2.427   7.340 -0.0335  0.0492  0.4924
   30CHL1   C20 2196   4.138   2.662   8.231  0.0867  0.4889  0.7241
   30CHL1   H20 2197   4.124   2.772   8.230 -0.2701  0.4558 -1.1641
   30CHL1   C21 2198   4.272   2.646   8.159 -0.6832  0.4757  0.2273
   30CHL1  H21A 2199   4.297   2.539   8.140  1.5707  0.5092  2.4082
   30CHL1  H21B 2200   4.361   2.689   8.210  0.5098 -1.2072 -0.3030
   30CHL1  H21C 2201   4.273   2.693   8.058  1.2414  0.0196 -0.0180
   30CHL1   C22 2202   4.152   2.627   8.387  0.1560  0.3130 -0.0960
   30CHL1  H22A 2203   4.078   2.681   8.450 -1.2841 -1.1169 -0.5088
   30CHL1  H22B 2204   4.124   2.521   8.399  0.2126 -0.0440 -2.6353
   30CHL1   C23 2205   4.289   2.639   8.448 -0.4055  0.0337 -0.0377
   30CHL1  H23A 2206   4.291   2.597   8.551  1.8796  0.2183  0.0506
   30CHL1  H23B 2207   4.367   2.577   8.398 -1.1245 -0.8829 -0.0614
   30CHL1   C24 2208   4.338   2.780   8.467 -0.4598 -0.4321  0.3110
   30CHL1  H24A 2209   4.384   2.820   8.374  2.3176 -1.8940  0.9450
   30CHL1  H24B 2210   4.253   2.847   8.491  2.3231  3.2243  0.6985
   30CHL1   C25 2211   4.440   2.798   8.583 -0.5576  0.3502  0.1959
   30CHL1   H25 2212   4.401   2.749   8.675  0.5124  0.0998  0.5353
   30CHL1   C26 2213   4.575   2.727   8.542  0.2236 -0.1218  0.3425
   30CHL1  H26A 2214   4.649   2.771   8.613  1.0601  0.6166 -0.9291
   30CHL1  H26B 2215   4.558   2.618   8.555 -0.2485 -0.0261  0.5570
   30CHL1  H26C 2216   4.614   2.745   8.439  0.6474  2.0959  0.8512
   30CHL1   C27 2217   4.453   2.949   8.615 -0.0655 -0.5745 -0.3808
   30CHL1  H27A 2218   4.520   2.957   8.703 -0.2480 -0.9952 -0.2029
   30CHL1  H27B 2219   4.503   3.000   8.530 -1.1546 -1.9846 -1.9390
   30CHL1  H27C 2220   4.348   2.982   8.632  0.4635  1.1292 -0.1781
   31CHL1    C3 2221   1.771   3.954   6.811 -0.0366 -0.0304  0.2058
   31CHL1    H3 2222   1.820   3.855   6.818 -1.0434 -0.7122 -1.5368
   31CHL1    O3 2223   1.724   3.962   6.676  0.0648 -0.1617  0.1970
   31CHL1   H3' 2224   1.798   3.959   6.615 -0.3610  1.4601 -0.4606
   31CHL1    C4 2225   1.656   3.982   6.913  0.1031 -0.2853  0.1543
   31CHL1   H4A 2226   1.608   4.074   6.872  0.4528  0.0621  0.5184
   31CHL1   H4B 2227   1.576   3.908   6.892  0.0242 -0.0483 -0.4102
   31CHL1    C5 2228   1.697   4.007   7.057 -0.8114 -0.1181  1.0572
   31CHL1    C6 2229   1.637   3.938   7.156  0.0615 -0.1643 -0.2856
   31CHL1    H6 2230   1.547   3.878   7.136  0.9809 -0.8916 -2.6469
   31CHL1    C7 2231   1.670   3.979   7.297  0.2351  0.3616 -0.0350
   31CHL1   H7A 2232   1.576   3.965   7.355  1.0822 -1.6459  0.9811
   31CHL1   H7B 2233   1.734   3.896   7.334 -0.6625  0.3110  1.4963
   31CHL1    C8 2234   1.746   4.111   7.327  0.2918  0.0916  0.5711
   31CHL1    H8 2235   1.670   4.192   7.318  0.7897  0.3940 -1.4925
   31CHL1   C14 2236   1.806   4.111   7.463  0.7750  0.7989 -0.3755
   31CHL1   H14 2237   1.885   4.034   7.472  0.2597  0.5354  4.1820
   31CHL1   C15 2238   1.710   4.087   7.575 -0.5099  0.8248 -0.3906
   31CHL1  H15A 2239   1.611   4.129   7.548 -0.6610  0.7014 -0.0367
   31CHL1  H15B 2240   1.689   3.980   7.596 -0.2822  0.3124 -2.4879
   31CHL1   C16 2241   1.781   4.142   7.696  0.8367  0.2222  0.2250
   31CHL1  H16A 2242   1.716   4.214   7.749  0.4178  2.2769 -2.8092
   31CHL1  H16B 2243   1.815   4.056   7.758  0.2221 -0.8820 -0.9063
   31CHL1   C17 2244   1.910   4.209   7.649 -0.5740  0.4288  0.3571
   31CHL1   H17 2245   1.995   4.139   7.640 -0.7531  0.1656  0.7091
   31CHL1   C13 2246   1.879   4.239   7.499 -0.3776  0.0296  0.0208
   31CHL1   C18 2247   1.777   4.356   7.488  0.3548 -0.4669  0.7377
   31CHL1  H18A 2248   1.819   4.458   7.506  3.6789 -1.3130 -1.3375
   31CHL1  H18B 2249   1.743   4.367   7.383  0.7261  0.7816  0.7345
   31CHL1  H18C 2250   1.689   4.354   7.556  1.5515 -0.7931  2.3279
   31CHL1   C12 2251   1.996   4.254   7.397 -0.1517  0.0717 -0.5438
   31CHL1  H12A 2252   2.052   4.348   7.411  1.1268 -0.9203  1.3199
   31CHL1  H12B 2253   2.071   4.172   7.409  1.5115  1.8362  2.0822
   31CHL1   C11 2254   1.947   4.247   7.250  0.3337  0.4830  0.1846
   31CHL1  H11A 2255   1.892   4.342   7.231 -3.7503 -1.5613  0.7500
   31CHL1  H11B 2256   2.042   4.247   7.191 -0.3294 -1.8354 -1.0038
   31CHL1    C9 2257   1.859   4.125   7.219 -0.2275 -0.4401 -0.6128
   31CHL1    H9 2258   1.923   4.036   7.235 -2.0590 -1.6801  0.0467
   31CHL1   C10 2259   1.809   4.120   7.078 -0.5501  0.3483 -0.0699
   31CHL1   C19 2260   1.746   4.257   7.040  0.3850  0.6333 -0.0924
   31CHL1  H19A 2261   1.828   4.326   7.012  1.1030 -1.0346 -2.4257
   31CHL1  H19B 2262   1.678   4.238   6.953  0.3901  1.0053 -0.1780
   31CHL1  H19C 2263   1.680   4.291   7.123  1.1585  1.3437  0.2360
   31CHL1    C1 2264   1.925   4.080   6.976 -0.1991  0.5621 -0.5309
   31CHL1   H1A 2265   2.010   4.152   6.983  0.2454 -0.0701  0.8078
   31CHL1   H1B 2266   1.975   3.990   7.018 -0.7293  0.0001 -1.0917
   31CHL1    C2 2267   1.887   4.061   6.834 -0.3949  0.3204  0.1662
   31CHL1   H2A 2268   1.971   4.009   6.782 -0.1707  0.3011  0.5463
   31CHL1   H2B 2269   1.865   4.157   6.783 -0.2583 -1.2519 -3.1265
   31CHL1   C20 2270   1.958   4.326   7.733 -0.3244  1.0215  0.0691
   31CHL1   H20 2271   1.880   4.404   7.746  0.0983  1.8248 -1.7843
   31CHL1   C21 2272   2.068   4.412   7.661 -0.5421  0.4320  0.3070
   31CHL1  H21A 2273   2.025   4.478   7.583 -1.6817 -0.7753 -0.1238
   31CHL1  H21B 2274   2.153   4.355   7.617  2.2992  3.1083  1.9644
   31CHL1  H21C 2275   2.105   4.478   7.743 -0.8309  1.4294 -0.3528
   31CHL1   C22 2276   2.004   4.274   7.874  0.5625 -0.6928 -0.1192
   31CHL1  H22A 2277   1.917   4.215   7.910 -1.6442  1.2237 -1.9728
   31CHL1  H22B 2278   2.099   4.218   7.866  1.3297  0.1427  2.2153
   31CHL1   C23 2279   2.024   4.384   7.974  0.0101  0.7587  0.1118
   31CHL1  H23A 2280   2.125   4.424   7.954  1.3210 -2.6495 -0.9133
   31CHL1  H23B 2281   1.946   4.460   7.953 -0.0893  0.4546 -0.6610
   31CHL1   C24 2282   2.010   4.337   8.116 -0.5131 -0.2121 -0.0449
   31CHL1  H24A 2283   1.913   4.284   8.119 -1.7737  1.8613 -1.9738
   31CHL1  H24B 2284   2.082   4.254   8.136  0.7621  0.3733 -1.9101
   31CHL1   C25 2285   2.023   4.454   8.223  0.5005  0.4380 -0.5020
   31CHL1   H25 2286   1.945   4.529   8.197  0.5504  0.3858 -0.8060
   31CHL1   C26 2287   1.984   4.395   8.365 -0.0746  0.0475 -0.4623
   31CHL1  H26A 2288   1.891   4.333   8.366 -2.1389  2.7865 -2.9994
   31CHL1  H26B 2289   2.071   4.347   8.414 -0.7046  2.8221  3.8202
   31CHL1  H26C 2290   1.962   4.482   8.430  0.5059  0.8325 -1.2941
   31CHL1   C27 2291   2.163   4.513   8.230  0.0917 -0.1760 -0.4404
   31CHL1  H27A 2292   2.200   4.554   8.133 -1.3337 -0.1376 -0.9940
   31CHL1  H27B 2293   2.233   4.438   8.271  0.2183  0.4249  0.4650
   31CHL1  H27C 2294   2.173   4.599   8.299  0.2081  0.0197 -0.6979
   32CHL1    C3 2295   3.222   2.564   7.070 -0.0904 -1.0526 -0.2707
   32CHL1    H3 2296   3.195   2.471   7.125 -1.6361  0.4723  1.6935
   32CHL1    O3 2297   3.194   2.544   6.932  0.6592 -0.1702  0.7749
   32CHL1   H3' 2298   3.182   2.632   6.898 -1.2177 -0.2194  1.1867
   32CHL1    C4 2299   3.136   2.678   7.138  0.4188  0.0369 -0.4349
   32CHL1   H4A 2300   3.139   2.767   7.071  0.5424 -1.1498 -2.0387
   32CHL1   H4B 2301   3.032   2.643   7.152  0.5035 -0.2496 -0.5148
   32CHL1    C5 2302   3.189   2.694   7.288 -0.4446  0.2447  0.4934
   32CHL1    C6 2303   3.107   2.684   7.396 -0.8434 -0.2694 -0.4446
   32CHL1    H6 2304   3.001   2.659   7.378 -0.6460 -0.4361 -1.3981
   32CHL1    C7 2305   3.136   2.710   7.537 -0.3002  0.4708 -0.4558
   32CHL1   H7A 2306   3.054   2.762   7.592 -0.8533 -1.8323  1.0508
   32CHL1   H7B 2307   3.171   2.618   7.590  1.4676  1.9005  1.0117
   32CHL1    C8 2308   3.266   2.801   7.532 -0.2114 -0.6025 -0.1781
   32CHL1    H8 2309   3.239   2.892   7.475  1.4986  0.3312  0.4268
   32CHL1   C14 2310   3.316   2.837   7.678 -0.4339 -0.0993  0.3114
   32CHL1   H14 2311   3.342   2.739   7.724 -1.1879 -0.6076 -0.3149
   32CHL1   C15 2312   3.218   2.901   7.781  0.2014  0.0070  0.1887
   32CHL1  H15A 2313   3.132   2.956   7.738 -0.2292 -0.6404  0.2195
   32CHL1  H15B 2314   3.176   2.814   7.836 -0.2474 -0.6415 -1.1226
   32CHL1   C16 2315   3.305   2.978   7.882  0.4073 -0.1779  0.0654
   32CHL1  H16A 2316   3.280   3.086   7.870  0.9349 -0.0728 -0.1016
   32CHL1  H16B 2317   3.276   2.951   7.986 -2.2340 -1.8157 -1.0024
   32CHL1   C17 2318   3.452   2.956   7.835 -0.0232 -0.4239  0.1343
   32CHL1   H17 2319   3.502   2.863   7.870 -0.2627  0.1934  2.2822
   32CHL1   C13 2320   3.440   2.932   7.681 -0.2912 -0.0182  0.6183
   32CHL1   C18 2321   3.403   3.059   7.600  0.2401 -0.3757 -0.2784
   32CHL1  H18A 2322   3.401   3.026   7.494  3.1452  1.8851 -1.1512
   32CHL1  H18B 2323   3.300   3.095   7.624  0.7113  0.9754 -0.2393
   32CHL1  H18C 2324   3.477   3.138   7.622 -1.1187  0.4767  1.5558
   32CHL1   C12 2325   3.556   2.843   7.618  0.5512  0.4973  0.2792
   32CHL1  H12A 2326   3.648   2.903   7.607 -1.0355  2.9440 -0.4813
   32CHL1  H12B 2327   3.560   2.749   7.677 -0.7561  1.2606  1.6556
   32CHL1   C11 2328   3.517   2.799   7.473  0.0914  0.7238 -0.0985
   32CHL1  H11A 2329   3.516   2.897   7.420 -2.2725  1.5587  1.3154
   32CHL1  H11B 2330   3.595   2.731   7.432 -1.0774 -2.2088  2.1620
   32CHL1    C9 2331   3.379   2.734   7.456  0.3488  0.5519 -0.5357
   32CHL1    H9 2332   3.377   2.632   7.501 -2.1650  1.0440  0.6484
   32CHL1   C10 2333   3.338   2.729   7.310  0.6274  0.1196  0.0595
   32CHL1   C19 2334   3.359   2.867   7.231  0.0302 -0.1061 -0.4995
   32CHL1  H19A 2335   3.303   2.956   7.268  2.2673  1.2536 -0.1810
   32CHL1  H19B 2336   3.467   2.890   7.224 -0.2753  1.7143  0.1903
   32CHL1  H19C 2337   3.325   2.838   7.129  0.9770 -2.7456 -0.1332
   32CHL1    C1 2338   3.422   2.622   7.232  0.1488 -0.4620  0.1288
   32CHL1   H1A 2339   3.522   2.666   7.216  0.1031 -0.8298 -1.3305
   32CHL1   H1B 2340   3.426   2.529   7.294 -0.3952 -0.0773  0.7633
   32CHL1    C2 2341   3.370   2.591   7.079 -0.2707 -0.9766 -0.3374
   32CHL1   H2A 2342   3.438   2.510   7.044  2.4275 -0.3030  2.8005
   32CHL1   H2B 2343   3.406   2.677   7.019 -1.4276 -0.1476  0.1059
   32CHL1   C20 2344   3.541   3.067   7.880 -0.3101  0.7127 -0.5866
   32CHL1   H20 2345   3.508   3.162   7.833 -0.8805 -0.2079 -2.1199
   32CHL1   C21 2346   3.684   3.044   7.825  0.4963 -0.3872 -0.1892
   32CHL1  H21A 2347   3.697   3.059   7.716  1.3767 -2.4249 -0.4211
   32CHL1  H21B 2348   3.724   2.940   7.835  0.4368 -0.2753  1.5109
   32CHL1  H21C 2349   3.761   3.109   7.872 -0.6948  1.2688 -0.4494
   32CHL1   C22 2350   3.542   3.082   8.034  0.1807  0.6773  0.3633
   32CHL1  H22A 2351   3.591   3.180   8.056  1.8444 -0.3188  1.2974
   32CHL1  H22B 2352   3.439   3.080   8.075 -0.9237 -0.4951 -2.2706
   32CHL1   C23 2353   3.614   2.972   8.118 -0.6628 -0.0664 -0.9830
   32CHL1  H23A 2354   3.572   2.869   8.118  0.8511 -0.7043 -0.4599
   32CHL1  H23B 2355   3.714   2.958   8.073 -0.9974 -0.4830 -1.6200
   32CHL1   C24 2356   3.640   3.028   8.259  0.1227  0.0307 -0.2288
   32CHL1  H24A 2357   3.692   3.125   8.250 -2.1293  1.2671 -0.5001
   32CHL1  H24B 2358   3.540   3.031   8.307  0.5332 -0.2908  0.6739
   32CHL1   C25 2359   3.731   2.934   8.338 -0.0414 -0.1629  0.4001
   32CHL1   H25 2360   3.814   2.916   8.266  0.6732  2.0189  0.5910
   32CHL1   C26 2361   3.791   3.002   8.455 -0.3566  0.0965 -0.4292
   32CHL1  H26A 2362   3.872   2.938   8.496  2.3321  0.8397 -4.0206
   32CHL1  H26B 2363   3.848   3.090   8.418  1.1370 -0.5525  0.2410
   32CHL1  H26C 2364   3.716   3.018   8.535  0.6120 -1.6728  0.9121
   32CHL1   C27 2365   3.654   2.812   8.397 -0.2378  0.0375  0.2222
   32CHL1  H27A 2366   3.724   2.755   8.461 -1.9361 -0.7544  1.4498
   32CHL1  H27B 2367   3.572   2.842   8.464 -1.2372  2.6347 -1.9725
   32CHL1  H27C 2368   3.623   2.748   8.311  2.6004  0.5693 -1.3240
   33CHL1    C3 2369   4.128   3.014   6.783 -0.2781  0.5645 -0.6907
   33CHL1    H3 2370   4.173   2.915   6.804  1.3630  0.8949 -2.2822
   33CHL1    O3 2371   4.089   3.031   6.645 -0.2333 -0.0314 -0.0273
   33CHL1   H3' 2372   4.057   3.120   6.630  0.3832  0.2394  0.2350
   33CHL1    C4 2373   4.001   3.020   6.874 -0.0098  0.1351  0.4650
   33CHL1   H4A 2374   3.945   3.110   6.840 -0.2485 -0.2370 -0.1374
   33CHL1   H4B 2375   3.949   2.927   6.842  0.7374  0.4885 -1.9873
   33CHL1    C5 2376   4.017   3.022   7.026  0.7944  0.8380 -0.0105
   33CHL1    C6 2377   3.965   2.931   7.108  0.4656 -0.0932  0.1747
   33CHL1    H6 2378   3.900   2.852   7.070 -0.7748  1.4384 -1.0181
   33CHL1    C7 2379   3.992   2.932   7.257 -0.1600 -0.3516  0.0631
   33CHL1   H7A 2380   3.899   2.920   7.317 -0.6643  1.7192 -0.2167
   33CHL1   H7B 2381   4.057   2.846   7.283 -0.7788 -0.7975  0.1603
   33CHL1    C8 2382   4.050   3.069   7.318  0.8345 -0.1523  0.3236
   33CHL1    H8 2383   3.969   3.145   7.308  1.8067  0.8161 -0.4356
   33CHL1   C14 2384   4.106   3.049   7.455 -0.7187 -0.1497 -0.5991
   33CHL1   H14 2385   4.191   2.979   7.441 -0.2413  0.7848 -2.7020
   33CHL1   C15 2386   4.017   2.982   7.560 -0.2005  0.0990  0.2185
   33CHL1  H15A 2387   3.916   3.026   7.549  0.6997  1.8283 -1.7252
   33CHL1  H15B 2388   4.014   2.871   7.564 -0.9466  0.0616 -1.1163
   33CHL1   C16 2389   4.069   3.030   7.696  0.6479 -0.3871  0.2829
   33CHL1  H16A 2390   3.984   3.084   7.744  1.9559  2.2597 -0.1912
   33CHL1  H16B 2391   4.095   2.945   7.763  2.6944 -0.6569 -0.7831
   33CHL1   C17 2392   4.188   3.120   7.665  0.3801 -0.0761 -0.2896
   33CHL1   H17 2393   4.266   3.041   7.660 -0.2908 -1.0179  2.5518
   33CHL1   C13 2394   4.162   3.173   7.522  0.5380 -0.1311 -0.1347
   33CHL1   C18 2395   4.053   3.278   7.535 -0.5931  0.0177  0.1631
   33CHL1  H18A 2396   3.997   3.285   7.439 -0.3558 -1.1778 -0.0775
   33CHL1  H18B 2397   3.976   3.251   7.611 -0.5512 -2.1933 -0.5248
   33CHL1  H18C 2398   4.103   3.370   7.571 -0.5787 -0.4069  1.2913
   33CHL1   C12 2399   4.279   3.216   7.436  0.0326  0.0525  0.1918
   33CHL1  H12A 2400   4.303   3.312   7.486 -2.6586  0.5222  0.7654
   33CHL1  H12B 2401   4.353   3.134   7.443 -1.5984 -1.5505 -0.3360
   33CHL1   C11 2402   4.233   3.239   7.293 -0.4101 -0.0777  0.4631
   33CHL1  H11A 2403   4.177   3.335   7.291  2.2965  1.6114 -1.5441
   33CHL1  H11B 2404   4.319   3.268   7.229 -1.5097  0.3725 -0.8843
   33CHL1    C9 2405   4.162   3.115   7.224  0.0490  0.0300  0.0218
   33CHL1    H9 2406   4.230   3.027   7.229  0.4101  0.3336  0.5594
   33CHL1   C10 2407   4.116   3.135   7.074 -0.2863 -0.4503 -0.0663
   33CHL1   C19 2408   4.051   3.275   7.059 -0.0362  0.1140  0.0881
   33CHL1  H19A 2409   3.960   3.264   7.121  0.7515 -1.6669  1.0164
   33CHL1  H19B 2410   4.113   3.359   7.098  0.2638  0.7196 -1.6203
   33CHL1  H19C 2411   4.021   3.291   6.953  0.4815 -1.3635 -0.3067
   33CHL1    C1 2412   4.238   3.129   6.975 -0.5813 -0.0314 -0.9265
   33CHL1   H1A 2413   4.297   3.215   7.014  0.2897 -0.8168 -0.4669
   33CHL1   H1B 2414   4.297   3.038   6.998  3.1996  1.9656 -1.8958
   33CHL1    C2 2415   4.222   3.125   6.822  0.1963  0.4477  0.3111
   33CHL1   H2A 2416   4.318   3.121   6.766 -1.0797 -1.7181 -1.9672
   33CHL1   H2B 2417   4.175   3.225   6.805  0.8772  0.7553  0.2297
   33CHL1   C20 2418   4.234   3.212   7.789  0.2240 -0.9671  0.0440
   33CHL1   H20 2419   4.179   3.308   7.787  0.1168 -0.9969  1.0172
   33CHL1   C21 2420   4.379   3.254   7.777  0.0450 -0.0373  0.4822
   33CHL1  H21A 2421   4.446   3.194   7.842  1.1305 -0.1270 -0.6684
   33CHL1  H21B 2422   4.398   3.360   7.801  1.1957 -0.2180  0.4380
   33CHL1  H21C 2423   4.408   3.243   7.670 -1.8982 -1.6881  0.0517
   33CHL1   C22 2424   4.207   3.154   7.927 -0.7494 -0.3671  0.2016
   33CHL1  H22A 2425   4.107   3.106   7.940 -2.2833  2.4913 -0.1101
   33CHL1  H22B 2426   4.287   3.079   7.946  1.4822  1.0989 -2.6977
   33CHL1   C23 2427   4.206   3.259   8.045 -0.0682  0.4038 -0.2587
   33CHL1  H23A 2428   4.299   3.320   8.045  0.3167 -0.1767 -0.5245
   33CHL1  H23B 2429   4.123   3.329   8.024 -0.9693 -0.2635  0.9278
   33CHL1   C24 2430   4.184   3.191   8.185  0.2557  0.6737 -0.1487
   33CHL1  H24A 2431   4.084   3.142   8.179 -0.6620  2.3577  0.6510
   33CHL1  H24B 2432   4.250   3.106   8.213 -1.3968 -1.7236 -2.8589
   33CHL1   C25 2433   4.151   3.277   8.300  0.1836  0.1661  0.0784
   33CHL1   H25 2434   4.225   3.360   8.305  0.4879  0.3604 -4.3424
   33CHL1   C26 2435   4.009   3.337   8.301 -0.3520 -0.2536  0.1934
   33CHL1  H26A 2436   4.003   3.422   8.372  3.2302 -0.1060  0.5247
   33CHL1  H26B 2437   3.993   3.375   8.198 -1.0454 -1.6845 -0.2595
   33CHL1  H26C 2438   3.930   3.263   8.323  0.1401 -0.2754  1.9904
   33CHL1   C27 2439   4.154   3.196   8.424 -0.3279  0.0223  0.5143
   33CHL1  H27A 2440   4.095   3.102   8.413 -0.5968  0.3688 -1.4332
   33CHL1  H27B 2441   4.256   3.157   8.445 -0.5032  0.0441  1.4140
   33CHL1  H27C 2442   4.132   3.255   8.515  1.3030 -1.0978  1.7003
   34CHL1    C3 2443   4.952   2.268   7.054  0.5233  0.2092  1.1303
   34CHL1    H3 2444   4.957   2.379   7.047 -2.2551  0.3799  0.5512
   34CHL1    O3 2445   4.904   2.209   6.933  0.1425 -0.7267 -0.0069
   34CHL1   H3' 2446   4.964   2.250   6.869 -1.7410  1.3300 -0.5635
   34CHL1    C4 2447   5.078   2.200   7.100  0.1366  0.3272  0.6479
   34CHL1   H4A 2448   5.077   2.089   7.114 -0.0271  0.6035  3.2512
   34CHL1   H4B 2449   5.153   2.217   7.020  0.9242  2.0901  1.7170
   34CHL1    C5 2450   5.122   2.261   7.228 -0.3687 -0.6160 -0.1476
   34CHL1    C6 2451   5.243   2.311   7.249 -0.0700 -0.4676 -0.2147
   34CHL1    H6 2452   5.313   2.313   7.165 -1.6376  2.1007 -1.5756
   34CHL1    C7 2453   5.297   2.378   7.379  0.1928  0.2657  0.3691
   34CHL1   H7A 2454   5.398   2.339   7.402  0.4693  1.0099  0.4374
   34CHL1   H7B 2455   5.303   2.488   7.366  0.9698  0.3206  1.0961
   34CHL1    C8 2456   5.207   2.343   7.497  0.0225 -1.0006 -0.7890
   34CHL1    H8 2457   5.228   2.237   7.521 -1.0023 -1.3705 -1.4508
   34CHL1   C14 2458   5.228   2.438   7.614  0.6603  0.5607 -0.0934
   34CHL1   H14 2459   5.218   2.540   7.571  0.7108  0.8336  0.5314
   34CHL1   C15 2460   5.376   2.452   7.664  0.1443 -0.4587 -0.7796
   34CHL1  H15A 2461   5.412   2.348   7.675  0.5236 -0.0868  2.7107
   34CHL1  H15B 2462   5.437   2.515   7.595 -1.0492  1.5406 -0.0852
   34CHL1   C16 2463   5.353   2.525   7.798  0.0772 -0.3240 -0.6423
   34CHL1  H16A 2464   5.401   2.470   7.882 -0.2778  2.8009  1.8288
   34CHL1  H16B 2465   5.393   2.629   7.802 -1.8306  0.4622  3.5399
   34CHL1   C17 2466   5.195   2.532   7.818  0.1653 -0.9893 -0.3114
   34CHL1   H17 2467   5.162   2.625   7.766  0.4026 -0.7471 -0.0310
   34CHL1   C13 2468   5.137   2.423   7.734 -0.4916 -0.6980 -0.6841
   34CHL1   C18 2469   5.163   2.282   7.801  0.4592 -0.1180  0.0939
   34CHL1  H18A 2470   5.133   2.203   7.730  0.3133 -1.7424  1.8982
   34CHL1  H18B 2471   5.271   2.268   7.823  1.0864  1.0389 -1.9450
   34CHL1  H18C 2472   5.094   2.266   7.887  0.7755 -0.7879  0.2231
   34CHL1   C12 2473   4.995   2.446   7.686 -0.0344 -0.7429 -0.0240
   34CHL1  H12A 2474   4.920   2.434   7.768  0.6727  1.2407  0.9710
   34CHL1  H12B 2475   4.988   2.555   7.666 -2.7801 -0.8601 -0.1844
   34CHL1   C11 2476   4.956   2.352   7.578 -0.4450  0.1893  0.0289
   34CHL1  H11A 2477   4.956   2.247   7.615  2.4308  0.8288  2.1982
   34CHL1  H11B 2478   4.860   2.373   7.525 -0.0350  1.1923 -0.3451
   34CHL1    C9 2479   5.058   2.352   7.458 -0.3317 -0.4802 -0.2863
   34CHL1    H9 2480   5.048   2.457   7.424  0.4518 -0.3868 -0.2275
   34CHL1   C10 2481   5.013   2.259   7.337 -1.2427 -0.7291  0.3437
   34CHL1   C19 2482   5.010   2.110   7.388  0.0974 -0.0724 -0.0483
   34CHL1  H19A 2483   4.954   2.101   7.484  0.1750  0.3825  0.0419
   34CHL1  H19B 2484   4.960   2.058   7.303  0.6560  0.3528 -0.6435
   34CHL1  H19C 2485   5.115   2.082   7.410 -0.0368 -0.3328  0.2663
   34CHL1    C1 2486   4.874   2.313   7.283  1.0786 -0.3137 -0.1968
   34CHL1   H1A 2487   4.788   2.298   7.351  0.2510  0.1728 -1.1153
   34CHL1   H1B 2488   4.882   2.422   7.262 -0.0043 -0.0570  0.6500
   34CHL1    C2 2489   4.835   2.247   7.154  0.3537 -0.4959  0.2668
   34CHL1   H2A 2490   4.742   2.287   7.109 -0.1275 -1.7336  0.1350
   34CHL1   H2B 2491   4.830   2.137   7.173 -3.2559 -0.2635  1.4155
   34CHL1   C20 2492   5.142   2.541   7.963 -0.0099 -0.1393 -0.3202
   34CHL1   H20 2493   5.050   2.480   7.978  1.2541 -1.5526  2.5394
   34CHL1   C21 2494   5.108   2.688   7.991  0.1116 -0.4132  0.2752
   34CHL1  H21A 2495   5.066   2.709   8.092  2.0489  2.1365  0.6379
   34CHL1  H21B 2496   5.047   2.735   7.911 -0.6714  0.5617  1.4174
   34CHL1  H21C 2497   5.201   2.748   7.985 -0.3653  0.6785  2.6564
   34CHL1   C22 2498   5.236   2.486   8.081  0.2508  0.3827  0.7067
   34CHL1  H22A 2499   5.285   2.393   8.046  0.4370  0.9515 -0.6109
   34CHL1  H22B 2500   5.318   2.558   8.103  1.5690 -1.2295  1.2591
   34CHL1   C23 2501   5.162   2.450   8.205  0.1011 -0.1311 -0.2002
   34CHL1  H23A 2502   5.071   2.514   8.216  1.4445  1.4804  2.4907
   34CHL1  H23B 2503   5.117   2.350   8.188 -1.5658  0.7037 -0.9659
   34CHL1   C24 2504   5.251   2.429   8.329 -0.2926  0.6120 -0.1099
   34CHL1  H24A 2505   5.333   2.356   8.313  0.6464  1.6280 -0.0486
   34CHL1  H24B 2506   5.313   2.520   8.344  1.6351 -0.6621  0.0348
   34CHL1   C25 2507   5.165   2.394   8.451  0.0912  0.5333 -0.6725
   34CHL1   H25 2508   5.079   2.464   8.454 -1.9716 -1.7628 -1.9723
   34CHL1   C26 2509   5.104   2.255   8.455 -0.0999 -0.1883 -0.0403
   34CHL1  H26A 2510   5.028   2.243   8.535  1.6809 -0.1025  1.7482
   34CHL1  H26B 2511   5.060   2.230   8.356 -0.4839  3.0489 -0.7820
   34CHL1  H26C 2512   5.188   2.185   8.473 -0.9288 -1.3809 -0.6650
   34CHL1   C27 2513   5.239   2.426   8.584  0.4858 -0.6168 -0.4288
   34CHL1  H27A 2514   5.188   2.370   8.665  0.8165 -0.4846 -0.1214
   34CHL1  H27B 2515   5.343   2.389   8.567 -0.1024 -2.0786 -1.0044
   34CHL1  H27C 2516   5.233   2.535   8.604 -1.1435 -0.8498  0.5052
   35CHL1    C3 2517   2.195   2.316   7.134  0.1142 -0.2855 -0.2898
   35CHL1    H3 2518   2.232   2.213   7.153  3.1018  0.3236 -2.0052
   35CHL1    O3 2519   2.163   2.338   7.001  0.0854 -0.3893  0.5224
   35CHL1   H3' 2520   2.237   2.300   6.952  0.2032  2.4592 -1.7521
   35CHL1    C4 2521   2.065   2.336   7.225 -1.2148 -0.2818  0.6049
   35CHL1   H4A 2522   2.009   2.430   7.205 -0.8843 -0.4384 -1.2371
   35CHL1   H4B 2523   1.998   2.252   7.198 -1.3700 -0.1906  0.7061
   35CHL1    C5 2524   2.096   2.332   7.374  0.4812 -0.1578  0.4500
   35CHL1    C6 2525   2.044   2.245   7.459  0.4017  0.1077  0.6025
   35CHL1    H6 2526   1.970   2.179   7.412  0.5398 -0.6606  1.4192
   35CHL1    C7 2527   2.071   2.234   7.602  0.0631  0.0631 -0.1803
   35CHL1   H7A 2528   1.979   2.219   7.663  0.2413  2.2803  0.7336
   35CHL1   H7B 2529   2.149   2.158   7.624  0.9665  0.9663 -0.1545
   35CHL1    C8 2530   2.128   2.370   7.656 -0.4055 -0.2423  0.0660
   35CHL1    H8 2531   2.042   2.440   7.659 -0.3049 -0.0755 -0.7384
   35CHL1   C14 2532   2.178   2.353   7.799  0.1986 -0.3118 -0.1537
   35CHL1   H14 2533   2.258   2.275   7.796 -0.1441 -0.6972  0.4622
   35CHL1   C15 2534   2.083   2.307   7.910  0.3687 -0.5747 -0.3802
   35CHL1  H15A 2535   1.990   2.365   7.921  0.9883  0.3860 -0.0962
   35CHL1  H15B 2536   2.056   2.200   7.896  1.2572 -1.0278  1.1700
   35CHL1   C16 2537   2.174   2.334   8.041  0.3043  0.2510 -0.1876
   35CHL1  H16A 2538   2.101   2.383   8.108  0.7388  0.5203  0.0867
   35CHL1  H16B 2539   2.199   2.235   8.085  1.6067  1.1116  1.0966
   35CHL1   C17 2540   2.289   2.419   7.989  0.4430  0.6254 -0.6585
   35CHL1   H17 2541   2.365   2.345   7.957  0.6917  0.7032 -0.2620
   35CHL1   C13 2542   2.250   2.480   7.854 -0.9233  1.4125 -0.3382
   35CHL1   C18 2543   2.149   2.591   7.874  0.5647 -0.5877  1.3558
   35CHL1  H18A 2544   2.085   2.591   7.783 -0.1906  0.3916  1.8617
   35CHL1  H18B 2545   2.087   2.578   7.966  0.0439 -0.5577  1.0158
   35CHL1  H18C 2546   2.179   2.698   7.877  1.7064 -0.8401 -0.1623
   35CHL1   C12 2547   2.366   2.527   7.764  0.1985 -0.0271  0.4695
   35CHL1  H12A 2548   2.403   2.626   7.797 -2.5604  2.4031 -2.9725
   35CHL1  H12B 2549   2.443   2.447   7.767  0.9938  0.7605  2.0873
   35CHL1   C11 2550   2.317   2.542   7.622  0.7088  0.4456  0.6447
   35CHL1  H11A 2551   2.253   2.632   7.619 -0.0973 -0.1264  0.2442
   35CHL1  H11B 2552   2.410   2.561   7.564  0.4400 -0.2331 -0.0237
   35CHL1    C9 2553   2.243   2.421   7.563  0.5367  1.1397 -0.1970
   35CHL1    H9 2554   2.317   2.339   7.570 -1.0089 -0.2157  1.2609
   35CHL1   C10 2555   2.204   2.435   7.411 -0.5746 -0.8831 -0.3270
   35CHL1   C19 2556   2.150   2.573   7.382 -0.1199 -0.8208 -0.0421
   35CHL1  H19A 2557   2.073   2.592   7.459  0.5989  0.2857  0.4306
   35CHL1  H19B 2558   2.227   2.651   7.400 -0.2838 -0.7221  0.2356
   35CHL1  H19C 2559   2.101   2.588   7.284 -1.6755  0.9499  0.9449
   35CHL1    C1 2560   2.328   2.418   7.321  0.5369 -0.2759 -0.6158
   35CHL1   H1A 2561   2.409   2.481   7.362 -0.5841 -1.1957  3.4225
   35CHL1   H1B 2562   2.364   2.314   7.337 -0.6625 -0.6310 -0.1167
   35CHL1    C2 2563   2.300   2.424   7.172 -0.4850  0.2694 -0.0419
   35CHL1   H2A 2564   2.390   2.402   7.110 -0.6325 -0.1568 -0.1105
   35CHL1   H2B 2565   2.264   2.525   7.142  0.8666  0.4121 -1.3096
   35CHL1   C20 2566   2.343   2.515   8.097 -0.4622  0.2647  0.5918
   35CHL1   H20 2567   2.315   2.615   8.059 -0.9211 -0.2604 -0.5253
   35CHL1   C21 2568   2.495   2.503   8.092 -0.7296 -0.8977  0.0664
   35CHL1  H21A 2569   2.527   2.516   7.986  1.1317  1.0663  0.7906
   35CHL1  H21B 2570   2.533   2.403   8.123 -0.0203 -1.0942 -1.3519
   35CHL1  H21C 2571   2.545   2.575   8.160 -1.2502  1.1622 -1.6061
   35CHL1   C22 2572   2.290   2.490   8.240  0.0781  0.4241  0.4065
   35CHL1  H22A 2573   2.183   2.519   8.237 -0.1350 -0.3961 -0.1864
   35CHL1  H22B 2574   2.297   2.383   8.269 -0.3117  0.8579  2.2711
   35CHL1   C23 2575   2.339   2.580   8.357 -0.4721 -0.1184  0.3131
   35CHL1  H23A 2576   2.438   2.537   8.385 -0.7965 -0.9998  0.1279
   35CHL1  H23B 2577   2.356   2.682   8.316  1.3388 -0.3233  0.4505
   35CHL1   C24 2578   2.241   2.579   8.475 -0.1512  0.3532 -0.3603
   35CHL1  H24A 2579   2.139   2.600   8.436 -1.2413 -1.3587  1.3767
   35CHL1  H24B 2580   2.237   2.474   8.511  0.3460  0.9182  1.4574
   35CHL1   C25 2581   2.274   2.682   8.588  0.6770 -0.6482  0.4488
   35CHL1   H25 2582   2.377   2.665   8.626 -0.2981 -1.8789  2.7579
   35CHL1   C26 2583   2.277   2.826   8.529  0.3374 -0.1164 -0.3250
   35CHL1  H26A 2584   2.183   2.860   8.480  0.7118  1.6646  0.1169
   35CHL1  H26B 2585   2.289   2.898   8.613 -0.3168 -0.6491  0.2361
   35CHL1  H26C 2586   2.364   2.840   8.461 -1.1499  3.4615 -1.7760
   35CHL1   C27 2587   2.172   2.665   8.704  0.5484 -0.2269 -0.3912
   35CHL1  H27A 2588   2.218   2.597   8.779  0.9432  1.0840  0.5847
   35CHL1  H27B 2589   2.068   2.636   8.677  0.3155 -0.8742  1.1380
   35CHL1  H27C 2590   2.161   2.768   8.745  0.4548 -0.9135  1.3857
   36CHL1    C3 2591   3.448   0.783   6.954 -0.2612 -0.5563 -0.1287
   36CHL1    H3 2592   3.407   0.693   7.005  1.1017 -1.7822 -1.1201
   36CHL1    O3 2593   3.433   0.766   6.815 -0.0005  0.1267  0.1457
   36CHL1   H3' 2594   3.519   0.753   6.773 -0.2779  3.1085 -1.5829
   36CHL1    C4 2595   3.367   0.902   7.011 -0.0885 -0.4017 -0.1748
   36CHL1   H4A 2596   3.398   0.994   6.957 -0.4554 -0.1333  0.0649
   36CHL1   H4B 2597   3.264   0.873   6.981 -0.3403  0.3104 -0.0121
   36CHL1    C5 2598   3.383   0.922   7.161  0.0420 -0.4311 -0.7055
   36CHL1    C6 2599   3.279   0.919   7.251 -0.4554  0.3950 -0.4477
   36CHL1    H6 2600   3.177   0.911   7.210 -0.2555 -1.1229 -0.7120
   36CHL1    C7 2601   3.287   0.929   7.403 -0.0561 -0.3746 -0.4636
   36CHL1   H7A 2602   3.206   0.994   7.443  1.8233  1.0960  1.1751
   36CHL1   H7B 2603   3.280   0.834   7.461  0.0729  0.5520  1.1333
   36CHL1    C8 2604   3.430   0.983   7.441  0.3780  0.5599 -0.1036
   36CHL1    H8 2605   3.431   1.092   7.423  0.3618  0.4688 -0.6929
   36CHL1   C14 2606   3.445   0.951   7.594 -0.5287 -0.2135  0.0012
   36CHL1   H14 2607   3.453   0.840   7.604 -1.6782 -0.3098  0.0534
   36CHL1   C15 2608   3.328   0.992   7.690 -0.2207  0.8168 -0.8381
   36CHL1  H15A 2609   3.299   1.095   7.661 -1.9249  1.1403  1.6537
   36CHL1  H15B 2610   3.246   0.918   7.685 -0.3415  0.9094 -0.3716
   36CHL1   C16 2611   3.404   1.001   7.821 -0.1559  0.0260  0.2085
   36CHL1  H16A 2612   3.385   1.095   7.877  1.2610  0.7590 -0.4924
   36CHL1  H16B 2613   3.364   0.927   7.893 -0.2291 -1.8350 -1.6576
   36CHL1   C17 2614   3.557   0.992   7.791  0.7607  0.2654 -0.5249
   36CHL1   H17 2615   3.573   0.882   7.803  1.3602  0.2207 -1.5372
   36CHL1   C13 2616   3.572   1.024   7.643 -0.3080  0.0473 -0.2678
   36CHL1   C18 2617   3.563   1.181   7.633  0.3935  0.6448 -0.4736
   36CHL1  H18A 2618   3.652   1.231   7.677  0.1439  1.4388 -0.8516
   36CHL1  H18B 2619   3.564   1.217   7.528  1.0465  0.0110 -0.6913
   36CHL1  H18C 2620   3.472   1.223   7.681 -0.0222 -0.5501 -0.1695
   36CHL1   C12 2621   3.688   0.955   7.567  0.3324  0.6645 -0.4290
   36CHL1  H12A 2622   3.782   0.996   7.610 -0.7656  0.3187  2.5055
   36CHL1  H12B 2623   3.677   0.848   7.591 -1.2548  1.0775  0.8314
   36CHL1   C11 2624   3.676   0.975   7.416 -0.0245  0.2734  0.5443
   36CHL1  H11A 2625   3.662   1.082   7.389 -0.0491  0.5570  1.6515
   36CHL1  H11B 2626   3.764   0.936   7.359 -2.7053 -0.3744 -3.6025
   36CHL1    C9 2627   3.544   0.920   7.358  0.5412 -0.0531 -0.0770
   36CHL1    H9 2628   3.537   0.811   7.381 -1.0412 -0.7283 -3.2350
   36CHL1   C10 2629   3.529   0.926   7.203  0.2259 -0.4729 -0.1064
   36CHL1   C19 2630   3.595   1.061   7.148  0.1035 -0.2546 -0.5099
   36CHL1  H19A 2631   3.566   1.151   7.206  1.0099 -0.2286 -0.0875
   36CHL1  H19B 2632   3.705   1.058   7.155  0.2311  1.4622 -1.2250
   36CHL1  H19C 2633   3.567   1.076   7.041  1.6482 -1.0095 -1.0403
   36CHL1    C1 2634   3.609   0.802   7.140 -0.1429  0.0086 -0.5525
   36CHL1   H1A 2635   3.713   0.824   7.173 -1.2067  1.6556  2.0469
   36CHL1   H1B 2636   3.588   0.703   7.185  2.5102 -0.1528  0.4751
   36CHL1    C2 2637   3.598   0.791   6.992 -0.2231  0.0706 -0.0126
   36CHL1   H2A 2638   3.651   0.698   6.964  0.1361 -0.4671  2.2533
   36CHL1   H2B 2639   3.657   0.873   6.946  1.4881 -0.8236  0.4927
   36CHL1   C20 2640   3.646   1.065   7.903  0.8796  0.5949  0.7680
   36CHL1   H20 2641   3.620   1.173   7.910 -1.5373  0.2313 -1.2451
   36CHL1   C21 2642   3.792   1.057   7.866 -0.2169  0.5958  0.2369
   36CHL1  H21A 2643   3.822   1.127   7.786  3.1293 -1.6532 -0.6599
   36CHL1  H21B 2644   3.820   0.952   7.842  1.1673  1.0963 -0.3853
   36CHL1  H21C 2645   3.851   1.080   7.957  1.6850 -0.2683 -0.7399
   36CHL1   C22 2646   3.622   1.017   8.049 -0.3968 -0.2560  0.1622
   36CHL1  H22A 2647   3.514   0.994   8.064 -0.2995  0.6736  2.8361
   36CHL1  H22B 2648   3.663   0.914   8.056 -0.3564 -0.5019 -2.5546
   36CHL1   C23 2649   3.672   1.115   8.160 -0.0814 -0.3193  1.0474
   36CHL1  H23A 2650   3.775   1.152   8.141 -0.7212  2.7111  2.8259
   36CHL1  H23B 2651   3.606   1.203   8.144  1.4625  0.6263 -0.4011
   36CHL1   C24 2652   3.639   1.087   8.305 -0.0409  0.5133 -0.4715
   36CHL1  H24A 2653   3.530   1.069   8.314  0.0854 -0.4467 -0.7240
   36CHL1  H24B 2654   3.694   0.999   8.345 -2.5733 -1.1025 -0.3317
   36CHL1   C25 2655   3.685   1.216   8.382  0.1186 -0.4341 -0.0753
   36CHL1   H25 2656   3.645   1.304   8.329  0.3056  0.3404  1.0399
   36CHL1   C26 2657   3.627   1.215   8.525  0.0561  0.1394  0.0546
   36CHL1  H26A 2658   3.644   1.312   8.575  3.1077  0.3030 -1.1040
   36CHL1  H26B 2659   3.519   1.191   8.532  0.7207 -3.5419 -0.2180
   36CHL1  H26C 2660   3.673   1.137   8.590  0.4568 -0.0104 -0.3946
   36CHL1   C27 2661   3.841   1.239   8.395 -0.1200  1.1007 -0.3705
   36CHL1  H27A 2662   3.873   1.237   8.288  1.5781  1.4410  0.1007
   36CHL1  H27B 2663   3.880   1.337   8.430 -0.4179  2.2826 -3.0610
   36CHL1  H27C 2664   3.888   1.156   8.452 -1.6176 -1.2404 -2.3552
   37CHL1    C3 2665   6.527   4.382   6.985 -0.5880  0.0058  0.0144
   37CHL1    H3 2666   6.607   4.449   7.023  0.2351 -0.9439 -0.0123
   37CHL1    O3 2667   6.562   4.331   6.858 -0.0689  0.2573 -0.0164
   37CHL1   H3' 2668   6.626   4.391   6.820 -0.8180  2.1776  1.5722
   37CHL1    C4 2669   6.510   4.261   7.074 -1.1486 -0.4702 -0.7046
   37CHL1   H4A 2670   6.424   4.194   7.052 -2.3139  0.3638  1.0685
   37CHL1   H4B 2671   6.596   4.191   7.072  0.1644  1.0949 -1.1118
   37CHL1    C5 2672   6.474   4.303   7.213  0.3752 -0.2514 -0.0045
   37CHL1    C6 2673   6.554   4.277   7.316 -0.3420 -0.5627  0.2132
   37CHL1    H6 2674   6.651   4.228   7.296 -0.4037 -0.7238  0.3085
   37CHL1    C7 2675   6.528   4.331   7.452  0.5779  0.0203  0.2178
   37CHL1   H7A 2676   6.544   4.244   7.520 -0.9146 -2.2672 -2.1406
   37CHL1   H7B 2677   6.596   4.417   7.470  2.5755 -1.1119 -1.3720
   37CHL1    C8 2678   6.386   4.395   7.469 -0.2825  0.3846  0.5666
   37CHL1    H8 2679   6.323   4.303   7.464  1.5536 -0.8707 -0.2206
   37CHL1   C14 2680   6.374   4.452   7.599  0.1323 -0.4897 -0.3135
   37CHL1   H14 2681   6.449   4.533   7.612  0.5086 -1.0185  1.0053
   37CHL1   C15 2682   6.396   4.364   7.729 -0.9196  0.5826  0.0927
   37CHL1  H15A 2683   6.356   4.261   7.718  0.7563 -0.0408 -0.4242
   37CHL1  H15B 2684   6.504   4.358   7.755 -0.6062  1.7832 -0.7980
   37CHL1   C16 2685   6.315   4.435   7.838 -1.0121  0.4069  0.1209
   37CHL1  H16A 2686   6.232   4.365   7.862 -0.2585 -0.4346  0.3143
   37CHL1  H16B 2687   6.371   4.444   7.933 -1.2302 -2.4159  0.6006
   37CHL1   C17 2688   6.251   4.557   7.772  0.6829 -0.4056  0.2116
   37CHL1   H17 2689   6.329   4.635   7.786  1.2440 -0.6031 -1.5203
   37CHL1   C13 2690   6.244   4.519   7.619  0.1395 -0.8128  0.0894
   37CHL1   C18 2691   6.128   4.421   7.595 -0.5786  0.1714 -0.4272
   37CHL1  H18A 2692   6.130   4.372   7.496 -2.3365  1.4725 -1.1775
   37CHL1  H18B 2693   6.118   4.343   7.673 -4.7569 -0.1071 -1.0141
   37CHL1  H18C 2694   6.038   4.486   7.588 -0.2713  0.4502 -2.4751
   37CHL1   C12 2695   6.226   4.638   7.512 -0.0310 -0.5521 -0.0715
   37CHL1  H12A 2696   6.133   4.700   7.513  1.0465  1.1596 -1.0959
   37CHL1  H12B 2697   6.309   4.709   7.528 -1.9877  2.1423 -1.0783
   37CHL1   C11 2698   6.241   4.593   7.370  0.7718 -0.0613  0.4270
   37CHL1  H11A 2699   6.145   4.556   7.328  1.4636  0.1100 -1.3810
   37CHL1  H11B 2700   6.274   4.676   7.303 -0.6514 -0.5311 -0.9281
   37CHL1    C9 2701   6.355   4.487   7.355 -0.1169 -1.0627  0.6374
   37CHL1    H9 2702   6.441   4.556   7.364 -0.9288  0.5909 -2.4823
   37CHL1   C10 2703   6.361   4.409   7.221  0.4388 -0.2723 -0.4216
   37CHL1   C19 2704   6.227   4.319   7.207 -0.7373 -0.3453 -0.6569
   37CHL1  H19A 2705   6.194   4.281   7.307 -1.5349  0.2534 -0.6820
   37CHL1  H19B 2706   6.142   4.381   7.173 -2.2996 -1.3047  1.2296
   37CHL1  H19C 2707   6.246   4.241   7.131  1.1871 -1.8016  1.1782
   37CHL1    C1 2708   6.366   4.511   7.108 -0.3138 -0.1052  0.4015
   37CHL1   H1A 2709   6.266   4.560   7.100  0.1325  0.5470 -1.9968
   37CHL1   H1B 2710   6.439   4.589   7.139  0.1856  0.6444 -2.4156
   37CHL1    C2 2711   6.405   4.457   6.972  0.1295 -0.0109 -0.0547
   37CHL1   H2A 2712   6.425   4.544   6.905 -0.5147  0.8216  0.8008
   37CHL1   H2B 2713   6.317   4.402   6.932 -0.5806  0.8495  0.2724
   37CHL1   C20 2714   6.113   4.597   7.836 -0.3474  0.4417  0.2365
   37CHL1   H20 2715   6.044   4.510   7.829 -0.7941  0.7742  0.4591
   37CHL1   C21 2716   6.040   4.715   7.775 -0.3863 -0.4626 -0.3099
   37CHL1  H21A 2717   5.977   4.679   7.691  0.9773  1.9601 -2.5458
   37CHL1  H21B 2718   6.105   4.798   7.740 -1.7460  0.5605 -0.5040
   37CHL1  H21C 2719   5.968   4.752   7.851 -2.1418  0.0308 -2.1236
   37CHL1   C22 2720   6.128   4.624   7.984  0.1003 -0.9524  0.0969
   37CHL1  H22A 2721   6.029   4.648   8.027 -1.2970 -3.3393 -1.5654
   37CHL1  H22B 2722   6.164   4.537   8.043  1.5228 -0.2359  0.3368
   37CHL1   C23 2723   6.222   4.745   8.015  0.9551  0.5580 -0.2573
   37CHL1  H23A 2724   6.324   4.735   7.971  0.9568 -3.3593  0.2938
   37CHL1  H23B 2725   6.188   4.841   7.970  0.2654  1.7790  2.6517
   37CHL1   C24 2726   6.226   4.775   8.162 -0.4110 -0.2986  0.3065
   37CHL1  H24A 2727   6.125   4.814   8.186  1.2250  3.6948  1.6137
   37CHL1  H24B 2728   6.246   4.691   8.231  1.1611 -0.5365 -0.3914
   37CHL1   C25 2729   6.312   4.894   8.204 -0.8707  0.5466 -0.0182
   37CHL1   H25 2730   6.292   4.964   8.120 -1.6116  1.3874  0.8321
   37CHL1   C26 2731   6.278   4.956   8.334 -0.3100  0.3858  0.4778
   37CHL1  H26A 2732   6.175   5.000   8.334 -1.2016 -1.5596 -1.5276
   37CHL1  H26B 2733   6.285   4.884   8.418 -0.6105 -0.5321 -0.2708
   37CHL1  H26C 2734   6.345   5.037   8.371  1.8168 -1.4430  0.7594
   37CHL1   C27 2735   6.456   4.843   8.209 -0.0332  0.1060 -0.6524
   37CHL1  H27A 2736   6.492   4.811   8.109  0.3696  0.7084 -0.7015
   37CHL1  H27B 2737   6.526   4.917   8.253  1.7029 -2.8828  2.0402
   37CHL1  H27C 2738   6.463   4.758   8.281 -0.2430  1.1785  0.6628
   38CHL1    C3 2739   2.855   5.599   6.604  0.4658  0.3952  0.0908
   38CHL1    H3 2740   2.916   5.689   6.627  1.8338 -0.7714  1.1957
   38CHL1    O3 2741   2.854   5.591   6.465 -0.2728  0.3903  0.8338
   38CHL1   H3' 2742   2.802   5.512   6.449 -1.5537  1.2318  0.7336
   38CHL1    C4 2743   2.950   5.490   6.659  0.7480 -0.0589 -0.4604
   38CHL1   H4A 2744   2.919   5.393   6.614  2.8786 -0.3229 -1.4452
   38CHL1   H4B 2745   3.050   5.517   6.620  2.2605 -1.1486  2.3342
   38CHL1    C5 2746   2.955   5.478   6.815  0.9798 -0.3053  0.0513
   38CHL1    C6 2747   3.066   5.480   6.889  0.4674  0.4553  0.0985
   38CHL1    H6 2748   3.163   5.475   6.838  0.6489 -2.0371  0.5691
   38CHL1    C7 2749   3.063   5.462   7.037 -0.0091  0.7213  0.1868
   38CHL1   H7A 2750   3.155   5.400   7.051  0.4046  0.9000 -1.4946
   38CHL1   H7B 2751   3.075   5.564   7.079 -3.0539  1.2012  0.0778
   38CHL1    C8 2752   2.929   5.401   7.092  0.3587 -0.2200 -0.0812
   38CHL1    H8 2753   2.932   5.292   7.069  0.4383 -0.8044  2.4003
   38CHL1   C14 2754   2.926   5.410   7.241 -0.7076  0.9223  0.2619
   38CHL1   H14 2755   2.934   5.518   7.267  0.8547  0.1563  3.5327
   38CHL1   C15 2756   3.047   5.364   7.319  0.0640  0.4037 -0.4582
   38CHL1  H15A 2757   3.093   5.275   7.271 -1.5048 -0.2331 -0.8209
   38CHL1  H15B 2758   3.124   5.445   7.329 -1.1662  1.5571 -0.0289
   38CHL1   C16 2759   2.991   5.332   7.459 -0.5229  0.1524 -0.5862
   38CHL1  H16A 2760   3.002   5.227   7.492  0.6388  0.9126  1.6846
   38CHL1  H16B 2761   3.039   5.401   7.532 -2.6657  0.7530  0.3535
   38CHL1   C17 2762   2.840   5.373   7.462 -0.0210 -0.6062  0.0456
   38CHL1   H17 2763   2.842   5.484   7.472 -1.7225 -0.6862  1.9206
   38CHL1   C13 2764   2.801   5.360   7.311 -0.2748 -0.2503  1.1969
   38CHL1   C18 2765   2.785   5.214   7.276  0.8157 -0.8268 -0.4616
   38CHL1  H18A 2766   2.707   5.162   7.336 -0.8311  1.2877 -0.6771
   38CHL1  H18B 2767   2.756   5.190   7.172 -4.0675 -2.2764  0.9584
   38CHL1  H18C 2768   2.874   5.160   7.316  0.2823  0.1818  2.3303
   38CHL1   C12 2769   2.683   5.440   7.256  0.3131 -0.0400 -0.3360
   38CHL1  H12A 2770   2.589   5.398   7.298  1.6256 -0.4159  2.4768
   38CHL1  H12B 2771   2.683   5.543   7.300 -0.3919 -1.4930  3.4805
   38CHL1   C11 2772   2.678   5.442   7.099 -0.2018  0.1648  0.1242
   38CHL1  H11A 2773   2.637   5.343   7.067 -1.0213 -0.0073  1.6208
   38CHL1  H11B 2774   2.609   5.520   7.063  1.1155  1.4145  0.2126
   38CHL1    C9 2775   2.814   5.475   7.036  0.1768  0.0428 -0.3294
   38CHL1    H9 2776   2.841   5.579   7.063 -0.9376  1.1715 -3.1758
   38CHL1   C10 2777   2.813   5.469   6.880 -0.1301  1.2314 -0.1648
   38CHL1   C19 2778   2.766   5.333   6.834 -0.3717  0.3379  0.1763
   38CHL1  H19A 2779   2.844   5.259   6.862  1.1984  0.9718 -2.2674
   38CHL1  H19B 2780   2.674   5.285   6.874  1.4421 -2.9729  0.7630
   38CHL1  H19C 2781   2.747   5.321   6.725  0.1386 -1.8102  0.2832
   38CHL1    C1 2782   2.721   5.576   6.819  0.6286 -0.1703 -0.1798
   38CHL1   H1A 2783   2.616   5.570   6.854  0.9279 -1.8953  0.5283
   38CHL1   H1B 2784   2.760   5.670   6.862  0.6843 -0.0369 -0.5207
   38CHL1    C2 2785   2.719   5.599   6.665  0.4882  0.6425 -1.1200
   38CHL1   H2A 2786   2.651   5.681   6.633  1.6978  0.9355 -3.1262
   38CHL1   H2B 2787   2.671   5.504   6.634  0.3696 -0.2314  1.4678
   38CHL1   C20 2788   2.755   5.311   7.569  0.4581 -0.1583 -0.6781
   38CHL1   H20 2789   2.751   5.201   7.555  0.6240 -0.3109  0.3415
   38CHL1   C21 2790   2.614   5.367   7.555  0.6523  0.8105 -0.2043
   38CHL1  H21A 2791   2.558   5.355   7.650  1.6118  1.0808  0.4045
   38CHL1  H21B 2792   2.575   5.311   7.466 -0.2739  2.7562 -1.0858
   38CHL1  H21C 2793   2.624   5.475   7.530 -3.5629  0.6955 -3.7017
   38CHL1   C22 2794   2.810   5.345   7.713  0.0315  0.3922  0.4300
   38CHL1  H22A 2795   2.921   5.344   7.718  0.1027  0.8919 -0.7471
   38CHL1  H22B 2796   2.771   5.448   7.724 -0.4338  0.4947 -1.7293
   38CHL1   C23 2797   2.762   5.253   7.813 -0.1293  0.1050 -1.0690
   38CHL1  H23A 2798   2.660   5.220   7.784 -0.3505  1.5042 -1.9193
   38CHL1  H23B 2799   2.813   5.155   7.798 -1.2164 -0.4901 -1.0194
   38CHL1   C24 2800   2.769   5.315   7.954  0.1685 -0.2202  0.0393
   38CHL1  H24A 2801   2.874   5.353   7.961  0.4301 -0.4465 -2.0481
   38CHL1  H24B 2802   2.700   5.401   7.964 -1.1172 -1.3116  0.7452
   38CHL1   C25 2803   2.729   5.212   8.068 -0.3036  0.5857  0.0772
   38CHL1   H25 2804   2.780   5.114   8.056 -2.6110 -0.5856 -0.8406
   38CHL1   C26 2805   2.775   5.264   8.208  0.0199  0.0936  0.3071
   38CHL1  H26A 2806   2.880   5.300   8.204 -0.6506  2.4563  2.1413
   38CHL1  H26B 2807   2.707   5.350   8.223  0.6223  0.8006 -0.8538
   38CHL1  H26C 2808   2.763   5.191   8.291  2.1804  0.3418  0.9125
   38CHL1   C27 2809   2.578   5.176   8.058  0.6038  0.4526  0.0835
   38CHL1  H27A 2810   2.524   5.272   8.074 -0.6265 -0.5786  2.8190
   38CHL1  H27B 2811   2.549   5.128   7.962  0.8556  1.2055 -0.3786
   38CHL1  H27C 2812   2.546   5.101   8.133  1.0654 -1.0205 -1.1432
   39CHL1    C3 2813   2.427   4.290   6.873  0.0046  0.5549  0.3630
   39CHL1    H3 2814   2.333   4.232   6.879 -0.6116  1.6745  2.6545
   39CHL1    O3 2815   2.440   4.350   6.748  0.6001 -0.0543 -0.1455
   39CHL1   H3' 2816   2.534   4.365   6.740  0.6915 -0.2816  0.4490
   39CHL1    C4 2817   2.440   4.396   6.978 -0.3377  0.8406  0.2097
   39CHL1   H4A 2818   2.515   4.469   6.940  0.3393 -0.1266 -0.3599
   39CHL1   H4B 2819   2.344   4.451   6.976  0.4126  2.2119  0.5828
   39CHL1    C5 2820   2.475   4.366   7.122 -0.1586 -0.4786  0.0080
   39CHL1    C6 2821   2.398   4.410   7.223 -0.8367 -0.7927 -0.3701
   39CHL1    H6 2822   2.319   4.484   7.204 -1.2432 -1.1258 -0.0059
   39CHL1    C7 2823   2.430   4.390   7.371  0.0834  0.0525 -0.0643
   39CHL1   H7A 2824   2.423   4.489   7.420  0.5981 -0.9379  2.1158
   39CHL1   H7B 2825   2.353   4.321   7.412  0.1495  0.2268  0.3542
   39CHL1    C8 2826   2.578   4.339   7.382  0.2561 -0.3681  0.0749
   39CHL1    H8 2827   2.635   4.431   7.358 -0.7748  1.0977  2.7746
   39CHL1   C14 2828   2.601   4.299   7.525  0.2597 -0.2649  1.0961
   39CHL1   H14 2829   2.530   4.215   7.544 -1.7885  0.7341 -1.5519
   39CHL1   C15 2830   2.559   4.403   7.628 -0.0851 -0.4670  0.0306
   39CHL1  H15A 2831   2.600   4.503   7.605 -0.5337 -0.5725 -1.2724
   39CHL1  H15B 2832   2.449   4.411   7.645  0.0319  1.3602  0.1449
   39CHL1   C16 2833   2.628   4.350   7.755  0.5208 -0.3170  0.1902
   39CHL1  H16A 2834   2.691   4.430   7.800  0.6517  0.4691 -1.3330
   39CHL1  H16B 2835   2.544   4.319   7.822 -0.4706 -0.1349 -0.9366
   39CHL1   C17 2836   2.718   4.224   7.711 -0.0801 -0.3036  0.7212
   39CHL1   H17 2837   2.657   4.131   7.712 -1.9333  0.8343 -0.1790
   39CHL1   C13 2838   2.739   4.251   7.562 -0.5026  0.4381  0.2698
   39CHL1   C18 2839   2.847   4.359   7.538  0.1912  0.3593 -0.2333
   39CHL1  H18A 2840   2.824   4.449   7.598 -0.7362 -0.3474  0.5018
   39CHL1  H18B 2841   2.949   4.324   7.564 -0.1180 -0.8368 -0.5630
   39CHL1  H18C 2842   2.863   4.386   7.431 -0.0434  1.9738  0.1210
   39CHL1   C12 2843   2.769   4.126   7.477  0.4781 -0.6582 -0.2133
   39CHL1  H12A 2844   2.864   4.073   7.497  1.1028  0.3506 -0.4219
   39CHL1  H12B 2845   2.690   4.052   7.502 -1.0026  0.6186 -0.9416
   39CHL1   C11 2846   2.747   4.156   7.322  0.3751  0.0161 -0.5371
   39CHL1  H11A 2847   2.829   4.226   7.296 -0.9655  1.9489  0.2245
   39CHL1  H11B 2848   2.758   4.070   7.252 -0.8452  0.6750 -1.5906
   39CHL1    C9 2849   2.614   4.226   7.289  0.5581  0.5538 -0.3317
   39CHL1    H9 2850   2.527   4.160   7.309  0.9267  0.1419 -0.0790
   39CHL1   C10 2851   2.597   4.266   7.139 -0.1450 -0.2161  0.3706
   39CHL1   C19 2852   2.727   4.330   7.106  0.3935  0.2240  0.5701
   39CHL1  H19A 2853   2.722   4.390   7.012 -2.4725  0.1532  0.6120
   39CHL1  H19B 2854   2.759   4.388   7.195  0.1908  1.0574  0.1146
   39CHL1  H19C 2855   2.801   4.254   7.073  0.8304  1.5749 -1.8353
   39CHL1    C1 2856   2.560   4.145   7.042 -0.4885 -0.0235  0.0202
   39CHL1   H1A 2857   2.626   4.060   7.071 -0.1102  0.2251 -0.1122
   39CHL1   H1B 2858   2.461   4.101   7.067 -0.9163  0.3015 -1.0511
   39CHL1    C2 2859   2.552   4.187   6.889  0.7103 -0.2649 -0.0446
   39CHL1   H2A 2860   2.527   4.094   6.834 -2.2965 -0.1606  0.9808
   39CHL1   H2B 2861   2.652   4.221   6.854  0.5072  1.6091  1.0630
   39CHL1   C20 2862   2.841   4.208   7.810  0.1710  0.4754  0.4275
   39CHL1   H20 2863   2.898   4.303   7.808  2.7282 -0.9728  0.1649
   39CHL1   C21 2864   2.941   4.094   7.768 -0.2475 -0.6439  0.0936
   39CHL1  H21A 2865   2.880   4.001   7.759 -0.9955 -0.2404  0.9426
   39CHL1  H21B 2866   3.020   4.069   7.842 -0.8125 -2.8836  0.0126
   39CHL1  H21C 2867   3.003   4.113   7.677  1.3854 -0.0262  1.2842
   39CHL1   C22 2868   2.794   4.203   7.952 -0.0787 -1.0438  0.0034
   39CHL1  H22A 2869   2.703   4.263   7.973  0.8408  0.3283  0.1888
   39CHL1  H22B 2870   2.773   4.098   7.983 -1.4595 -1.2261 -1.4604
   39CHL1   C23 2871   2.910   4.254   8.047  0.3934  0.3202 -0.0225
   39CHL1  H23A 2872   2.928   4.181   8.128 -0.0931 -0.6950 -0.8112
   39CHL1  H23B 2873   3.005   4.270   7.991  0.5738 -1.8897 -0.4446
   39CHL1   C24 2874   2.876   4.386   8.123  0.1562 -0.7804  0.3658
   39CHL1  H24A 2875   2.845   4.467   8.053  0.8290  1.6314  2.7023
   39CHL1  H24B 2876   2.783   4.367   8.181  0.8722 -0.2651  1.7287
   39CHL1   C25 2877   2.999   4.442   8.196  0.6073 -1.1557 -0.2407
   39CHL1   H25 2878   3.078   4.458   8.119 -0.2542 -0.2550 -0.9594
   39CHL1   C26 2879   2.979   4.588   8.250 -0.2559  0.2584  0.4580
   39CHL1  H26A 2880   2.888   4.594   8.313 -0.3302  2.3709  0.2319
   39CHL1  H26B 2881   3.073   4.622   8.297  0.0178  0.3252 -0.1257
   39CHL1  H26C 2882   2.956   4.664   8.172 -0.3050 -0.4951 -0.2815
   39CHL1   C27 2883   3.036   4.353   8.309  0.2341 -0.3851 -0.2107
   39CHL1  H27A 2884   2.951   4.332   8.377  1.6188 -0.8849  1.4588
   39CHL1  H27B 2885   3.075   4.263   8.257  1.0826  2.3294 -4.7731
   39CHL1  H27C 2886   3.113   4.397   8.376  0.3089 -1.2173  0.2694
   40CHL1    C3 2887   4.413   2.561   6.894 -0.4916 -0.1097 -0.0670
   40CHL1    H3 2888   4.387   2.458   6.929 -1.5020 -0.2753 -1.2284
   40CHL1    O3 2889   4.394   2.564   6.751  0.3062 -0.3900 -0.2877
   40CHL1   H3' 2890   4.348   2.644   6.725  3.0121  0.3279 -3.5011
   40CHL1    C4 2891   4.328   2.656   6.962 -0.3469 -0.4238 -0.3418
   40CHL1   H4A 2892   4.347   2.748   6.902  0.1957 -2.1143 -2.9470
   40CHL1   H4B 2893   4.218   2.644   6.949 -0.5638  0.7229  0.3323
   40CHL1    C5 2894   4.358   2.664   7.109 -0.5100  0.3271 -0.8325
   40CHL1    C6 2895   4.265   2.639   7.202  0.3266  0.2300 -0.1151
   40CHL1    H6 2896   4.163   2.606   7.174  0.2331  0.1107  0.3514
   40CHL1    C7 2897   4.289   2.646   7.354 -0.1545 -0.3843  0.3911
   40CHL1   H7A 2898   4.203   2.689   7.411 -1.1862 -0.9788 -0.6889
   40CHL1   H7B 2899   4.285   2.543   7.395 -0.3622 -0.2970  0.5979
   40CHL1    C8 2900   4.422   2.711   7.382 -0.5368  0.2267  0.1274
   40CHL1    H8 2901   4.414   2.815   7.344  0.0759  0.3927  0.4379
   40CHL1   C14 2902   4.456   2.704   7.526  0.1840  0.7560  0.1989
   40CHL1   H14 2903   4.475   2.598   7.553 -0.4711  0.5170 -0.2831
   40CHL1   C15 2904   4.348   2.738   7.630  0.1616  0.0406  0.7737
   40CHL1  H15A 2905   4.293   2.827   7.593 -0.7268 -0.3433  1.1258
   40CHL1  H15B 2906   4.281   2.650   7.640  2.5034 -1.9236  0.0777
   40CHL1   C16 2907   4.435   2.772   7.760 -0.3876  0.4395  0.5633
   40CHL1  H16A 2908   4.404   2.873   7.795 -0.8883  1.3019 -2.1212
   40CHL1  H16B 2909   4.419   2.699   7.842  0.6405 -1.2926 -0.6962
   40CHL1   C17 2910   4.584   2.765   7.720  0.0088 -0.0836  0.4790
   40CHL1   H17 2911   4.609   2.658   7.739 -0.8369 -0.6682 -1.3342
   40CHL1   C13 2912   4.585   2.780   7.565  0.4959 -0.3923 -0.3392
   40CHL1   C18 2913   4.575   2.932   7.531  0.1302 -0.0464 -0.0072
   40CHL1  H18A 2914   4.491   2.980   7.585  0.2695 -0.2505  0.3884
   40CHL1  H18B 2915   4.674   2.979   7.551  0.4309 -0.2110 -1.0232
   40CHL1  H18C 2916   4.550   2.943   7.423  0.8380 -1.1521 -0.3041
   40CHL1   C12 2917   4.695   2.701   7.488 -0.2908 -0.8173  0.3832
   40CHL1  H12A 2918   4.789   2.751   7.519 -0.5196 -0.4129  0.4425
   40CHL1  H12B 2919   4.681   2.595   7.517 -1.3304 -0.8773 -0.2928
   40CHL1   C11 2920   4.677   2.709   7.333 -0.2544 -1.2502 -0.6258
   40CHL1  H11A 2921   4.705   2.814   7.309 -1.1889 -0.6373  0.8657
   40CHL1  H11B 2922   4.757   2.646   7.287  1.3112  0.8531 -0.9425
   40CHL1    C9 2923   4.535   2.660   7.293 -0.8773 -0.3171  0.2443
   40CHL1    H9 2924   4.537   2.551   7.316  1.9632 -0.2466  0.6617
   40CHL1   C10 2925   4.509   2.680   7.144  0.4095 -0.1184  0.2634
   40CHL1   C19 2926   4.545   2.826   7.108 -0.4525  0.2010  0.1647
   40CHL1  H19A 2927   4.655   2.843   7.114 -0.4056 -0.4621  1.5069
   40CHL1  H19B 2928   4.515   2.853   7.004  0.6856 -0.0638 -0.2484
   40CHL1  H19C 2929   4.504   2.900   7.180 -0.3613 -1.1763  1.6931
   40CHL1    C1 2930   4.596   2.580   7.063 -0.2940  0.1624 -0.4076
   40CHL1   H1A 2931   4.705   2.598   7.071 -0.1867 -0.1283 -1.0996
   40CHL1   H1B 2932   4.571   2.476   7.094 -3.9624  1.1013  0.3065
   40CHL1    C2 2933   4.563   2.575   6.919  0.2476  0.0382  0.3999
   40CHL1   H2A 2934   4.611   2.486   6.872 -1.1566 -0.0845 -0.9144
   40CHL1   H2B 2935   4.597   2.669   6.871  2.5902 -0.0440  1.7739
   40CHL1   C20 2936   4.684   2.849   7.804 -0.0980 -0.6058 -0.1824
   40CHL1   H20 2937   4.648   2.954   7.793 -0.4170 -0.9214 -3.0264
   40CHL1   C21 2938   4.830   2.832   7.749 -0.5136 -0.6700  0.1905
   40CHL1  H21A 2939   4.902   2.880   7.819  0.1836  1.7803 -2.0259
   40CHL1  H21B 2940   4.857   2.890   7.658 -2.6419 -0.5392 -0.4149
   40CHL1  H21C 2941   4.847   2.724   7.733 -2.5288 -0.5902 -3.7238
   40CHL1   C22 2942   4.681   2.809   7.955  0.3453  0.0969  0.2136
   40CHL1  H22A 2943   4.578   2.781   7.986 -0.8537 -0.2486 -3.5965
   40CHL1  H22B 2944   4.741   2.716   7.963 -0.7941 -0.6451  0.4377
   40CHL1   C23 2945   4.728   2.926   8.042  0.3301  0.0351  0.6648
   40CHL1  H23A 2946   4.835   2.945   8.020  0.7665 -0.9433  1.8249
   40CHL1  H23B 2947   4.665   3.015   8.021 -0.1231 -0.2027  1.0046
   40CHL1   C24 2948   4.725   2.882   8.195  0.7190  0.1368  0.1112
   40CHL1  H24A 2949   4.640   2.820   8.232 -0.0532  1.7132  1.1024
   40CHL1  H24B 2950   4.816   2.824   8.223  0.9811 -0.4132 -1.7381
   40CHL1   C25 2951   4.707   3.002   8.294 -0.1859 -0.0238  0.3957
   40CHL1   H25 2952   4.688   2.966   8.398 -2.0758  0.5696  0.2916
   40CHL1   C26 2953   4.832   3.090   8.301  0.1640 -0.0854 -0.3166
   40CHL1  H26A 2954   4.820   3.165   8.382 -2.5027 -0.5767 -0.1462
   40CHL1  H26B 2955   4.914   3.017   8.322 -1.5707 -2.0323  0.0492
   40CHL1  H26C 2956   4.861   3.143   8.208 -1.1622  2.4935  0.6505
   40CHL1   C27 2957   4.582   3.084   8.264 -0.0115 -0.3720  0.0957
   40CHL1  H27A 2958   4.494   3.017   8.271 -1.9867  2.1956  1.5968
   40CHL1  H27B 2959   4.570   3.158   8.346 -2.8794  1.5221 -1.8052
   40CHL1  H27C 2960   4.592   3.136   8.166  0.7690 -0.1640  0.2798
   41CHL1    C3 2961   5.452   3.226   6.911  0.2266  0.7630 -0.1267
   41CHL1    H3 2962   5.470   3.327   6.869  0.2370  0.1079 -1.7901
   41CHL1    O3 2963   5.436   3.138   6.802 -0.5223  0.1680  0.4430
   41CHL1   H3' 2964   5.522   3.106   6.776 -1.9927 -3.2781 -0.7634
   41CHL1    C4 2965   5.581   3.199   6.990  0.0845  0.8885 -0.1061
   41CHL1   H4A 2966   5.583   3.088   6.995  0.9714  0.7148 -2.8252
   41CHL1   H4B 2967   5.657   3.237   6.919  0.1525  1.8107  0.4448
   41CHL1    C5 2968   5.594   3.260   7.124  0.5442  0.1115  0.0737
   41CHL1    C6 2969   5.704   3.323   7.154  0.0956 -0.5201  0.2599
   41CHL1    H6 2970   5.785   3.328   7.080  0.9186 -0.8864  1.1126
   41CHL1    C7 2971   5.740   3.398   7.288 -0.2634  0.6196  0.3231
   41CHL1   H7A 2972   5.846   3.375   7.313 -0.0435  0.9435 -0.3023
   41CHL1   H7B 2973   5.726   3.507   7.275 -1.0910  0.4143 -0.6611
   41CHL1    C8 2974   5.638   3.344   7.399  0.2165  0.0239 -0.6387
   41CHL1    H8 2975   5.650   3.238   7.429  0.3491  0.6198  1.5207
   41CHL1   C14 2976   5.648   3.442   7.517 -0.1313 -0.3379 -0.5463
   41CHL1   H14 2977   5.628   3.544   7.476 -0.6557  0.0651  0.6561
   41CHL1   C15 2978   5.783   3.453   7.580 -0.2531 -0.3375  0.3650
   41CHL1  H15A 2979   5.827   3.354   7.605 -1.0887 -0.5345  1.1168
   41CHL1  H15B 2980   5.864   3.507   7.527 -0.6791  2.4873  2.3164
   41CHL1   C16 2981   5.754   3.540   7.711  0.3198  0.0845  0.5182
   41CHL1  H16A 2982   5.799   3.502   7.805 -2.7074 -1.2631  1.5730
   41CHL1  H16B 2983   5.786   3.645   7.698  0.4478  0.1390  1.2883
   41CHL1   C17 2984   5.598   3.528   7.732 -0.3455  0.1481  0.1699
   41CHL1   H17 2985   5.550   3.619   7.689 -2.3087 -0.0594  1.7974
   41CHL1   C13 2986   5.550   3.413   7.636 -0.0379 -0.3477  0.4362
   41CHL1   C18 2987   5.576   3.269   7.704  0.2129  0.2575 -0.5887
   41CHL1  H18A 2988   5.551   3.180   7.643  1.0978 -0.3192 -0.1183
   41CHL1  H18B 2989   5.678   3.262   7.747 -0.3121 -1.5498  0.4552
   41CHL1  H18C 2990   5.512   3.266   7.795  0.9721  1.3203  0.0127
   41CHL1   C12 2991   5.409   3.416   7.572  0.8942  0.2577 -0.3861
   41CHL1  H12A 2992   5.339   3.380   7.650 -0.1829 -0.1149 -1.4890
   41CHL1  H12B 2993   5.390   3.521   7.540  3.4955  0.8965 -0.1007
   41CHL1   C11 2994   5.381   3.322   7.451 -1.1766  0.0681 -0.4121
   41CHL1  H11A 2995   5.397   3.217   7.481 -0.2646 -0.0028 -1.1059
   41CHL1  H11B 2996   5.283   3.338   7.400 -0.8119  2.7367 -0.4453
   41CHL1    C9 2997   5.489   3.342   7.338 -0.7979  0.5366 -0.0928
   41CHL1    H9 2998   5.474   3.442   7.291  0.4887  0.8940  0.2321
   41CHL1   C10 2999   5.472   3.242   7.218 -0.6159 -0.3627 -0.5596
   41CHL1   C19 3000   5.468   3.093   7.257  0.1598  0.1350  0.0695
   41CHL1  H19A 3001   5.474   3.027   7.168 -0.0123  0.0588  0.1145
   41CHL1  H19B 3002   5.549   3.075   7.332  1.9978  0.5022 -1.7420
   41CHL1  H19C 3003   5.367   3.064   7.295  1.3593 -0.9758  2.7053
   41CHL1    C1 3004   5.348   3.289   7.131  0.1057  0.7822 -0.6400
   41CHL1   H1A 3005   5.256   3.271   7.191  0.6567  3.5193  1.2329
   41CHL1   H1B 3006   5.347   3.397   7.105 -1.5390  0.9889  0.0965
   41CHL1    C2 3007   5.332   3.208   7.007 -0.9933  0.5627 -0.8337
   41CHL1   H2A 3008   5.244   3.249   6.953 -1.9246  0.6199  0.6770
   41CHL1   H2B 3009   5.316   3.100   7.028  1.6846  0.2340 -0.0945
   41CHL1   C20 3010   5.559   3.530   7.878  0.1669 -0.0804  0.4381
   41CHL1   H20 3011   5.596   3.436   7.925 -3.6025 -1.2691  1.3223
   41CHL1   C21 3012   5.403   3.522   7.893  0.1048 -0.4537 -0.1084
   41CHL1  H21A 3013   5.366   3.528   7.998 -2.8281  0.0612 -1.0823
   41CHL1  H21B 3014   5.368   3.426   7.850 -0.0265 -0.8252  0.7851
   41CHL1  H21C 3015   5.357   3.603   7.833  2.4463 -0.3378 -1.8566
   41CHL1   C22 3016   5.609   3.654   7.959 -0.2722  0.1797 -0.1283
   41CHL1  H22A 3017   5.716   3.671   7.933  0.1766  2.2522  2.5698
   41CHL1  H22B 3018   5.542   3.738   7.930 -1.4464 -1.0847 -1.1885
   41CHL1   C23 3019   5.615   3.615   8.111 -0.3820  0.0098  0.7127
   41CHL1  H23A 3020   5.508   3.606   8.140 -0.3943  0.5999  0.8550
   41CHL1  H23B 3021   5.671   3.521   8.128  1.4781  1.0896  0.8846
   41CHL1   C24 3022   5.667   3.727   8.194  0.0892 -0.4000 -0.0754
   41CHL1  H24A 3023   5.777   3.736   8.188  0.1746  0.8690  2.3782
   41CHL1  H24B 3024   5.628   3.827   8.166  2.2732  0.3246 -0.7177
   41CHL1   C25 3025   5.648   3.701   8.347  0.1253 -0.2827  0.0523
   41CHL1   H25 3026   5.680   3.598   8.371  2.2979  0.5141  0.8709
   41CHL1   C26 3027   5.747   3.786   8.428  0.6386  0.5396 -0.1820
   41CHL1  H26A 3028   5.851   3.775   8.391  0.8404 -1.5530  0.8318
   41CHL1  H26B 3029   5.710   3.890   8.425  1.2676  0.9089  2.4469
   41CHL1  H26C 3030   5.762   3.751   8.532  2.7518  1.7543 -0.0328
   41CHL1   C27 3031   5.512   3.737   8.407  0.3592  0.6290 -0.3748
   41CHL1  H27A 3032   5.482   3.843   8.392 -0.3840  0.1819 -2.2765
   41CHL1  H27B 3033   5.427   3.678   8.368  0.2767  0.5578 -0.0902
   41CHL1  H27C 3034   5.521   3.715   8.516  0.7254 -0.0912 -0.5510
   42CHL1    C3 3035   6.103   6.097   6.866  0.7408 -0.2808  0.3440
   42CHL1    H3 3036   6.027   6.176   6.878 -0.3971 -0.8726 -2.2348
   42CHL1    O3 3037   6.115   6.072   6.722  0.4565  0.1518 -0.6559
   42CHL1   H3' 3038   6.126   6.159   6.683 -0.8410 -0.0780 -1.6067
   42CHL1    C4 3039   6.226   6.172   6.906 -0.3982  0.1179 -0.4649
   42CHL1   H4A 3040   6.311   6.110   6.869 -0.5580 -0.7460  0.5454
   42CHL1   H4B 3041   6.234   6.267   6.849 -1.8915  0.7117  0.2654
   42CHL1    C5 3042   6.229   6.196   7.055 -0.3105 -0.5473  0.4319
   42CHL1    C6 3043   6.258   6.326   7.096 -0.6161  0.2830  0.1679
   42CHL1    H6 3044   6.277   6.397   7.015 -1.4071 -1.2400 -1.4286
   42CHL1    C7 3045   6.263   6.364   7.239  0.1887  0.1362 -0.9377
   42CHL1   H7A 3046   6.354   6.418   7.272  0.0735 -0.9797  1.3999
   42CHL1   H7B 3047   6.176   6.423   7.273  1.1687  1.9404 -1.4246
   42CHL1    C8 3048   6.257   6.240   7.331 -0.6643  0.3703 -1.3061
   42CHL1    H8 3049   6.357   6.191   7.327 -0.9147 -0.1373 -1.3450
   42CHL1   C14 3050   6.232   6.281   7.478 -0.6866 -0.7584 -0.3249
   42CHL1   H14 3051   6.135   6.335   7.477 -0.4918 -0.3271  1.4149
   42CHL1   C15 3052   6.328   6.389   7.543  0.2088 -0.4237  0.0589
   42CHL1  H15A 3053   6.432   6.351   7.532  0.7252  1.5514 -2.9481
   42CHL1  H15B 3054   6.305   6.494   7.515 -3.0463 -0.2973  2.6345
   42CHL1   C16 3055   6.295   6.375   7.692 -0.6269  0.6101 -0.2777
   42CHL1  H16A 3056   6.394   6.347   7.733 -0.7486  3.6906  2.4924
   42CHL1  H16B 3057   6.276   6.467   7.750 -0.1899  0.6732 -0.2316
   42CHL1   C17 3058   6.206   6.244   7.718 -0.2051 -0.3732  0.4071
   42CHL1   H17 3059   6.101   6.281   7.727 -0.1757 -0.4208  0.9401
   42CHL1   C13 3060   6.220   6.168   7.581  0.8176  0.4899 -1.0927
   42CHL1   C18 3061   6.354   6.090   7.586 -0.6657 -0.7102 -0.4416
   42CHL1  H18A 3062   6.437   6.150   7.630 -2.2403  0.9671  0.3727
   42CHL1  H18B 3063   6.348   5.990   7.633  0.0530 -0.3239  0.4997
   42CHL1  H18C 3064   6.385   6.082   7.479 -1.9597  2.9982 -1.2473
   42CHL1   C12 3065   6.097   6.087   7.531  0.2511 -0.0695  0.2052
   42CHL1  H12A 3066   6.081   5.998   7.596  0.4220 -0.0415  0.2871
   42CHL1  H12B 3067   6.011   6.158   7.525  0.9211  0.6968 -0.7205
   42CHL1   C11 3068   6.120   6.032   7.391 -0.5132 -0.1163  0.6445
   42CHL1  H11A 3069   6.208   5.965   7.401  0.5560  1.1441  0.0156
   42CHL1  H11B 3070   6.030   5.974   7.366 -0.7607  0.2637  0.6451
   42CHL1    C9 3071   6.156   6.137   7.279  0.1790  0.1584 -0.1206
   42CHL1    H9 3072   6.063   6.196   7.278 -0.8206 -1.3649 -0.3837
   42CHL1   C10 3073   6.191   6.082   7.146  0.5944  0.6676  0.4280
   42CHL1   C19 3074   6.316   5.991   7.154 -0.4600  0.1124  0.0570
   42CHL1  H19A 3075   6.342   5.950   7.054 -1.2000 -0.4206  0.0752
   42CHL1  H19B 3076   6.405   6.046   7.190  0.0860 -0.8091  0.1709
   42CHL1  H19C 3077   6.292   5.905   7.221 -3.6655  0.2103 -0.7800
   42CHL1    C1 3078   6.067   6.002   7.093 -0.0136  0.1542  0.3093
   42CHL1   H1A 3079   6.053   5.909   7.152 -1.4307  0.6452  0.7979
   42CHL1   H1B 3080   5.973   6.061   7.101  0.7725  1.7447 -1.2579
   42CHL1    C2 3081   6.070   5.966   6.945 -0.7584 -0.1034 -0.5150
   42CHL1   H2A 3082   5.971   5.926   6.914 -0.0588 -1.3250 -1.2601
   42CHL1   H2B 3083   6.151   5.895   6.920 -0.1378  0.2594  0.4117
   42CHL1   C20 3084   6.230   6.174   7.852  0.6237  0.0518  0.6504
   42CHL1   H20 3085   6.327   6.119   7.850  0.8165  0.4200 -0.2606
   42CHL1   C21 3086   6.123   6.068   7.880  0.7540  0.1911  0.0771
   42CHL1  H21A 3087   6.120   6.037   7.986  0.7859 -1.2561 -0.3286
   42CHL1  H21B 3088   6.136   5.973   7.824  1.0704  0.5890 -0.5432
   42CHL1  H21C 3089   6.022   6.106   7.852  0.1197 -0.2928  1.6059
   42CHL1   C22 3090   6.242   6.270   7.976 -0.0608 -0.2300 -0.0209
   42CHL1  H22A 3091   6.248   6.203   8.064 -1.5059 -0.7333 -0.2676
   42CHL1  H22B 3092   6.343   6.316   7.967  0.1545 -0.3265  1.5903
   42CHL1   C23 3093   6.126   6.371   7.998  0.1093  0.4341 -0.2664
   42CHL1  H23A 3094   6.108   6.423   7.901  3.1957  0.3332 -1.0067
   42CHL1  H23B 3095   6.035   6.309   8.013  1.3199 -1.2738  0.3786
   42CHL1   C24 3096   6.167   6.469   8.109  0.1216  0.6168  0.0399
   42CHL1  H24A 3097   6.195   6.406   8.196 -1.2281 -0.8962 -0.5735
   42CHL1  H24B 3098   6.260   6.523   8.082  0.4188  0.4794  0.7527
   42CHL1   C25 3099   6.065   6.570   8.157  0.5303 -0.2011 -0.3410
   42CHL1   H25 3100   5.999   6.609   8.077 -0.4848  0.1432  0.6434
   42CHL1   C26 3101   5.976   6.499   8.261 -0.2275  0.4429  0.0577
   42CHL1  H26A 3102   5.900   6.571   8.300  1.5204  1.6099  1.4337
   42CHL1  H26B 3103   5.932   6.403   8.224  0.0443  0.1034  0.6024
   42CHL1  H26C 3104   6.033   6.477   8.354 -2.0776  0.7075  1.3126
   42CHL1   C27 3105   6.133   6.698   8.217 -0.4904  0.5727  0.3991
   42CHL1  H27A 3106   6.193   6.672   8.307  0.3384  1.9259  0.2708
   42CHL1  H27B 3107   6.064   6.779   8.246 -1.9695  0.3212 -2.1252
   42CHL1  H27C 3108   6.201   6.741   8.140 -0.6472  0.5080  0.2248
   43CHL1    C3 3109   6.169   3.597   6.787  0.4102 -0.2084  0.2049
   43CHL1    H3 3110   6.114   3.688   6.754 -0.9244 -1.6281 -1.7633
   43CHL1    O3 3111   6.213   3.509   6.682  0.6082 -0.2369 -0.0894
   43CHL1   H3' 3112   6.140   3.520   6.620 -0.0563 -0.3063  0.6690
   43CHL1    C4 3113   6.301   3.632   6.860  0.0475 -0.2608 -0.8153
   43CHL1   H4A 3114   6.355   3.541   6.895  1.3522  1.4375  1.9877
   43CHL1   H4B 3115   6.366   3.682   6.785 -0.3889 -0.1572 -1.1269
   43CHL1    C5 3116   6.276   3.720   6.985  0.2137  0.6067 -0.0348
   43CHL1    C6 3117   6.325   3.836   7.013  0.3465  0.0799 -0.5354
   43CHL1    H6 3118   6.399   3.887   6.949 -0.6418  1.0990 -0.8978
   43CHL1    C7 3119   6.298   3.915   7.136 -0.8164 -0.0563  0.3949
   43CHL1   H7A 3120   6.389   3.964   7.176 -0.2515  0.3345 -1.2674
   43CHL1   H7B 3121   6.222   3.991   7.107 -0.9800 -0.4944 -0.3580
   43CHL1    C8 3122   6.225   3.826   7.244 -0.9539  0.2052 -0.0156
   43CHL1    H8 3123   6.307   3.758   7.277 -0.8294  0.5036  0.2957
   43CHL1   C14 3124   6.173   3.913   7.355  0.3543  0.2977  0.3576
   43CHL1   H14 3125   6.107   3.989   7.309 -0.6111 -0.4088  0.5274
   43CHL1   C15 3126   6.270   3.985   7.440 -0.4496 -0.0931  0.1602
   43CHL1  H15A 3127   6.356   3.921   7.472 -1.5100 -0.5385  2.3238
   43CHL1  H15B 3128   6.307   4.072   7.382 -1.2624 -0.6936 -1.3104
   43CHL1   C16 3129   6.195   4.036   7.563 -0.2207  0.4276  0.5201
   43CHL1  H16A 3130   6.255   4.016   7.655 -0.1133  0.7732  0.5259
   43CHL1  H16B 3131   6.164   4.142   7.549 -1.7883  0.1828  1.8111
   43CHL1   C17 3132   6.069   3.948   7.559  0.1619 -0.1559 -0.4371
   43CHL1   H17 3133   5.987   4.011   7.516 -2.4544 -2.1237  1.3547
   43CHL1   C13 3134   6.093   3.838   7.453 -0.3707  0.3562  0.4336
   43CHL1   C18 3135   6.176   3.727   7.526  0.3526  0.2590  0.5167
   43CHL1  H18A 3136   6.270   3.762   7.576  1.3128 -0.3958 -0.7797
   43CHL1  H18B 3137   6.112   3.678   7.601 -0.8876  2.2098  0.8113
   43CHL1  H18C 3138   6.212   3.658   7.447  0.3527  0.0355  0.7096
   43CHL1   C12 3139   5.961   3.783   7.387  0.4504 -0.0121  0.2679
   43CHL1  H12A 3140   5.899   3.735   7.466  1.0501  0.2855  0.9307
   43CHL1  H12B 3141   5.917   3.866   7.328 -0.5528 -2.9842 -3.5680
   43CHL1   C11 3142   6.001   3.680   7.279  0.2299  0.6633  0.1576
   43CHL1  H11A 3143   6.045   3.589   7.326 -2.1735  0.5325  2.3488
   43CHL1  H11B 3144   5.908   3.654   7.223  0.6541 -2.5801  0.7496
   43CHL1    C9 3145   6.110   3.741   7.180  0.1421 -0.1837 -0.4436
   43CHL1    H9 3146   6.053   3.814   7.118  1.3279  0.4915 -0.7821
   43CHL1   C10 3147   6.170   3.643   7.075 -0.1617  0.5506  0.0146
   43CHL1   C19 3148   6.248   3.523   7.149 -0.1837  0.1322  0.1282
   43CHL1  H19A 3149   6.284   3.446   7.076  3.4920  3.1934 -1.6873
   43CHL1  H19B 3150   6.342   3.547   7.203 -0.1181  1.9148 -0.7222
   43CHL1  H19C 3151   6.189   3.474   7.229 -1.8995 -1.3804 -1.9676
   43CHL1    C1 3152   6.048   3.592   6.998  0.3622  0.4435  0.1027
   43CHL1   H1A 3153   5.983   3.536   7.069  1.1552  0.1832  0.6367
   43CHL1   H1B 3154   5.987   3.676   6.957 -1.8680 -0.7785  0.7649
   43CHL1    C2 3155   6.080   3.513   6.874  0.0009  0.1556  0.5797
   43CHL1   H2A 3156   5.987   3.480   6.823 -0.0624  1.2731 -0.0622
   43CHL1   H2B 3157   6.128   3.421   6.913 -1.5341 -1.2202 -0.6568
   43CHL1   C20 3158   6.002   3.907   7.692 -0.2049  0.0123  0.5990
   43CHL1   H20 3159   5.940   3.819   7.667 -1.0241  0.1996  1.9055
   43CHL1   C21 3160   5.902   4.021   7.734  0.0155 -0.1880 -0.2823
   43CHL1  H21A 3161   5.841   4.051   7.646  0.0262  1.4559  0.2399
   43CHL1  H21B 3162   5.952   4.107   7.784  1.3865 -0.6547 -0.7959
   43CHL1  H21C 3163   5.838   3.969   7.808  0.1380  0.4514  0.2834
   43CHL1   C22 3164   6.091   3.874   7.806  0.0007 -0.3229  0.4186
   43CHL1  H22A 3165   6.170   3.802   7.774  0.7175  0.2847  0.7984
   43CHL1  H22B 3166   6.144   3.964   7.843 -1.8572  0.9844  0.0218
   43CHL1   C23 3167   6.025   3.810   7.929 -0.8299 -0.4476 -0.1286
   43CHL1  H23A 3168   5.985   3.904   7.973  1.5836  0.6030  0.0019
   43CHL1  H23B 3169   5.940   3.745   7.902 -2.8017  2.0761 -0.4068
   43CHL1   C24 3170   6.131   3.746   8.026 -0.3853  0.1933  0.0792
   43CHL1  H24A 3171   6.197   3.677   7.968 -0.1796  0.2759  0.2117
   43CHL1  H24B 3172   6.209   3.816   8.062  2.4613 -2.1220 -1.0764
   43CHL1   C25 3173   6.074   3.691   8.157  0.3467 -0.6495  0.1226
   43CHL1   H25 3174   6.004   3.765   8.203 -0.0738  0.5549 -2.2994
   43CHL1   C26 3175   5.987   3.570   8.134 -0.2837 -0.0662 -0.1692
   43CHL1  H26A 3176   5.924   3.578   8.043  1.4533  0.6895 -1.3512
   43CHL1  H26B 3177   6.059   3.488   8.115 -1.1149 -0.9164  0.2515
   43CHL1  H26C 3178   5.929   3.546   8.226 -0.0669 -1.6333 -0.4260
   43CHL1   C27 3179   6.185   3.669   8.262 -0.4690 -0.4597 -0.6643
   43CHL1  H27A 3180   6.155   3.667   8.369  0.9576  1.6309 -0.1511
   43CHL1  H27B 3181   6.240   3.576   8.237  1.4133  0.5359 -0.4440
   43CHL1  H27C 3182   6.261   3.751   8.257 -0.2668 -0.5280  0.9291
   44CHL1    C3 3183   6.115   2.382   6.657  0.5385 -0.3134  0.6375
   44CHL1    H3 3184   6.084   2.489   6.661 -1.3499 -0.8686  1.6589
   44CHL1    O3 3185   6.106   2.328   6.524  0.1271  0.3224 -0.2331
   44CHL1   H3' 3186   6.152   2.245   6.540  0.8418  1.1602  2.8563
   44CHL1    C4 3187   6.260   2.391   6.703 -0.7090 -0.7650  0.0493
   44CHL1   H4A 3188   6.315   2.297   6.722  1.7573  0.8955  1.7740
   44CHL1   H4B 3189   6.314   2.443   6.621 -0.5064 -1.2103 -0.1008
   44CHL1    C5 3190   6.267   2.468   6.836 -0.3896  0.3441  0.2241
   44CHL1    C6 3191   6.343   2.573   6.857 -0.3000 -0.3768 -0.3174
   44CHL1    H6 3192   6.392   2.610   6.766  0.5719 -2.4414 -0.7456
   44CHL1    C7 3193   6.369   2.636   6.992 -0.2006 -0.2484 -0.8265
   44CHL1   H7A 3194   6.477   2.630   7.019 -0.1023 -2.0121 -1.4763
   44CHL1   H7B 3195   6.332   2.741   6.993  1.6760  0.4487 -0.1156
   44CHL1    C8 3196   6.301   2.558   7.116 -0.4158  0.0449  0.3311
   44CHL1    H8 3197   6.374   2.480   7.145  0.6585  1.1311  0.6124
   44CHL1   C14 3198   6.281   2.645   7.235 -0.7866 -0.8009  0.2309
   44CHL1   H14 3199   6.216   2.728   7.201 -0.5188 -0.9526 -0.6753
   44CHL1   C15 3200   6.409   2.716   7.293 -1.3959 -0.6217  0.3592
   44CHL1  H15A 3201   6.479   2.629   7.290  0.2983  0.6970  0.2709
   44CHL1  H15B 3202   6.442   2.790   7.217  0.0115 -1.5100  0.0811
   44CHL1   C16 3203   6.365   2.772   7.435 -0.2382 -0.0380  0.4660
   44CHL1  H16A 3204   6.445   2.733   7.501  0.3804 -2.0372 -1.3311
   44CHL1  H16B 3205   6.362   2.883   7.429  2.2899  0.2120  2.0496
   44CHL1   C17 3206   6.232   2.700   7.464 -0.2301 -0.3601 -0.3562
   44CHL1   H17 3207   6.155   2.766   7.419 -2.0600 -0.3463  2.5658
   44CHL1   C13 3208   6.216   2.582   7.357  0.0046 -0.2626  0.3582
   44CHL1   C18 3209   6.294   2.462   7.417 -0.4940 -0.5237 -0.1020
   44CHL1  H18A 3210   6.342   2.390   7.347  0.3724 -3.5472  3.2530
   44CHL1  H18B 3211   6.384   2.489   7.476  0.9093 -2.6536 -1.1194
   44CHL1  H18C 3212   6.226   2.410   7.488  1.1910 -1.8290  0.6365
   44CHL1   C12 3213   6.077   2.540   7.314 -0.3634  0.9927  0.4035
   44CHL1  H12A 3214   6.038   2.478   7.397  0.6412  1.0480  0.9323
   44CHL1  H12B 3215   6.010   2.628   7.305  0.7387  1.9633  1.4281
   44CHL1   C11 3216   6.086   2.437   7.194  0.0579  0.3109 -0.2201
   44CHL1  H11A 3217   6.124   2.340   7.234  1.5723 -0.1930 -2.6278
   44CHL1  H11B 3218   5.981   2.415   7.164  0.1996  0.7442 -1.0644
   44CHL1    C9 3219   6.170   2.495   7.073  0.1025 -0.8125 -0.7248
   44CHL1    H9 3220   6.109   2.582   7.041 -0.9490  0.0388  3.0611
   44CHL1   C10 3221   6.181   2.400   6.951  0.0531  0.0464 -0.3435
   44CHL1   C19 3222   6.255   2.270   6.994 -0.4668 -0.5798  0.6964
   44CHL1  H19A 3223   6.186   2.211   7.058 -1.3899  0.1522  0.4113
   44CHL1  H19B 3224   6.288   2.200   6.915  0.3788  0.0859  0.4409
   44CHL1  H19C 3225   6.351   2.283   7.048  1.1625 -0.2409 -2.0973
   44CHL1    C1 3226   6.035   2.366   6.898  0.6666 -0.4180  0.0388
   44CHL1   H1A 3227   5.986   2.300   6.973  1.4521  0.7384  1.6239
   44CHL1   H1B 3228   5.986   2.464   6.878 -1.4242 -1.6102 -1.1210
   44CHL1    C2 3229   6.031   2.299   6.756 -0.0357 -0.3398 -0.4329
   44CHL1   H2A 3230   5.926   2.282   6.724 -0.9121 -0.9900  2.4714
   44CHL1   H2B 3231   6.070   2.195   6.764 -0.8095 -0.7818 -2.0270
   44CHL1   C20 3232   6.207   2.674   7.610  0.8690 -0.6978 -0.1421
   44CHL1   H20 3233   6.285   2.607   7.654  0.4691 -0.0811  1.5843
   44CHL1   C21 3234   6.064   2.623   7.635 -0.3988  0.4154  0.1742
   44CHL1  H21A 3235   6.051   2.597   7.742  0.1756  0.0985  0.1723
   44CHL1  H21B 3236   6.019   2.545   7.571  2.3862 -1.1961  0.0196
   44CHL1  H21C 3237   5.987   2.703   7.630 -0.9516  0.0080  1.8013
   44CHL1   C22 3238   6.215   2.806   7.691  0.1013 -0.3901  0.7320
   44CHL1  H22A 3239   6.313   2.852   7.670 -0.7054  0.2252 -2.1629
   44CHL1  H22B 3240   6.126   2.864   7.658 -0.6192 -2.4615 -1.1296
   44CHL1   C23 3241   6.212   2.783   7.838 -0.2073 -0.1475 -0.8178
   44CHL1  H23A 3242   6.109   2.771   7.878 -0.0059  2.3123  0.6467
   44CHL1  H23B 3243   6.248   2.683   7.871  1.1036  0.5700  0.0030
   44CHL1   C24 3244   6.299   2.887   7.914  0.0991  0.0503  0.9289
   44CHL1  H24A 3245   6.402   2.860   7.883 -0.0318  0.8980 -0.3020
   44CHL1  H24B 3246   6.278   2.989   7.876  1.2310  1.0330  2.7734
   44CHL1   C25 3247   6.292   2.880   8.068 -0.3975 -0.0291 -0.3173
   44CHL1   H25 3248   6.334   2.783   8.104 -2.0332 -0.3261  0.9197
   44CHL1   C26 3249   6.387   2.981   8.130 -0.5630  0.2917 -0.3173
   44CHL1  H26A 3250   6.488   2.979   8.083 -1.1639 -0.2348 -1.6735
   44CHL1  H26B 3251   6.353   3.085   8.113 -0.0512  0.9191  2.1512
   44CHL1  H26C 3252   6.406   2.958   8.237  0.7917  2.6742  0.0194
   44CHL1   C27 3253   6.150   2.904   8.120 -0.4477 -0.4027 -0.4857
   44CHL1  H27A 3254   6.138   2.901   8.231 -1.3391 -4.0447 -0.5245
   44CHL1  H27B 3255   6.109   3.001   8.085 -0.9019 -0.0053  1.0719
   44CHL1  H27C 3256   6.092   2.817   8.081  1.9001 -1.6644 -1.3825
   45CHL1    C3 3257   1.990   0.684   6.926  0.3571  0.7712  0.6618
   45CHL1    H3 3258   2.096   0.717   6.940  1.1083 -0.9830 -0.6030
   45CHL1    O3 3259   1.976   0.666   6.785  0.4817 -0.1629 -0.4328
   45CHL1   H3' 3260   1.997   0.751   6.744 -1.6639 -0.0830 -1.4930
   45CHL1    C4 3261   1.967   0.553   6.998  0.2503  0.3757  0.4247
   45CHL1   H4A 3262   1.873   0.511   6.956 -0.0878  1.6075 -0.1038
   45CHL1   H4B 3263   2.046   0.488   6.954  1.6367  2.6421 -0.5817
   45CHL1    C5 3264   1.971   0.557   7.151  0.0409  0.9134 -0.2592
   45CHL1    C6 3265   2.054   0.478   7.221  0.3819  0.0037 -0.6917
   45CHL1    H6 3266   2.106   0.389   7.180 -0.3977 -1.2701  0.9527
   45CHL1    C7 3267   2.056   0.471   7.367 -0.1558 -0.2220 -0.4188
   45CHL1   H7A 3268   2.055   0.365   7.401  1.1226 -0.1596 -0.1441
   45CHL1   H7B 3269   2.157   0.502   7.402 -0.6755 -0.1441  1.0801
   45CHL1    C8 3270   1.950   0.563   7.434 -0.2644 -0.0069  0.1936
   45CHL1    H8 3271   1.848   0.522   7.427  0.2657 -1.2709 -0.4452
   45CHL1   C14 3272   1.989   0.575   7.578 -0.3045  0.2306 -0.3855
   45CHL1   H14 3273   2.090   0.623   7.575 -0.8363  1.5415  1.4021
   45CHL1   C15 3274   2.025   0.456   7.666 -0.3103 -0.0075 -0.0905
   45CHL1  H15A 3275   1.959   0.372   7.638  1.2790 -0.4743 -2.8064
   45CHL1  H15B 3276   2.129   0.420   7.653 -0.8716 -1.2472 -1.5347
   45CHL1   C16 3277   2.005   0.510   7.810  0.1844 -0.1924  0.4207
   45CHL1  H16A 3278   1.923   0.448   7.853 -0.4558 -0.5760 -1.2693
   45CHL1  H16B 3279   2.098   0.495   7.869  0.0043 -0.5300  0.6212
   45CHL1   C17 3280   1.967   0.661   7.807  0.0073 -0.3587  0.0539
   45CHL1   H17 3281   2.058   0.724   7.794 -1.1820  1.5332  0.4949
   45CHL1   C13 3282   1.899   0.668   7.658 -0.3246  0.3021  0.0971
   45CHL1   C18 3283   1.755   0.617   7.669 -0.5215  0.2754  0.7604
   45CHL1  H18A 3284   1.760   0.521   7.724 -0.7927  0.2503  0.7440
   45CHL1  H18B 3285   1.693   0.680   7.737 -0.7899  0.1332  0.6512
   45CHL1  H18C 3286   1.704   0.605   7.571  0.6140  0.1146  0.1839
   45CHL1   C12 3287   1.901   0.806   7.583 -0.0141  0.7541 -0.0937
   45CHL1  H12A 3288   1.852   0.892   7.633  2.1271  2.6533 -1.1047
   45CHL1  H12B 3289   2.007   0.838   7.584  0.3479 -0.3787  0.1535
   45CHL1   C11 3290   1.853   0.801   7.433  0.0368  0.5427 -0.2642
   45CHL1  H11A 3291   1.745   0.775   7.435  0.3118 -0.9023  3.5535
   45CHL1  H11B 3292   1.880   0.896   7.383  2.7141 -0.2245 -0.4515
   45CHL1    C9 3293   1.932   0.697   7.361 -0.1700  0.3982  0.6573
   45CHL1    H9 3294   2.036   0.736   7.358  0.3661 -1.0356  0.0652
   45CHL1   C10 3295   1.890   0.675   7.215  0.5925 -0.4457  0.6373
   45CHL1   C19 3296   1.740   0.638   7.204  0.2585  0.1025  0.2470
   45CHL1  H19A 3297   1.714   0.550   7.266  0.4999 -0.1599 -0.0229
   45CHL1  H19B 3298   1.680   0.728   7.229 -1.8846 -0.9285 -0.8855
   45CHL1  H19C 3299   1.710   0.617   7.099  2.2266  1.5484 -0.6524
   45CHL1    C1 3300   1.898   0.808   7.135 -0.9285 -0.4221  0.0330
   45CHL1   H1A 3301   1.813   0.871   7.169 -0.4928 -1.2285  2.9296
   45CHL1   H1B 3302   1.992   0.865   7.155  0.1833 -1.5934 -1.6021
   45CHL1    C2 3303   1.888   0.790   6.981  0.0145  0.5754 -0.1014
   45CHL1   H2A 3304   1.909   0.890   6.938  0.8656 -0.2773 -1.8042
   45CHL1   H2B 3305   1.787   0.753   6.957 -0.0239 -1.2297  2.4067
   45CHL1   C20 3306   1.888   0.693   7.938 -0.2206 -0.5156 -0.0040
   45CHL1   H20 3307   1.800   0.626   7.941 -1.0284  0.5493  1.0131
   45CHL1   C21 3308   1.830   0.834   7.932  0.5120 -0.0652  0.2263
   45CHL1  H21A 3309   1.907   0.914   7.925  0.2579  0.0930 -0.8306
   45CHL1  H21B 3310   1.780   0.864   8.027  0.1986  2.1874 -0.5826
   45CHL1  H21C 3311   1.752   0.845   7.854  1.0004 -1.8223 -0.5560
   45CHL1   C22 3312   1.960   0.667   8.069 -0.3620 -0.3843  1.3981
   45CHL1  H22A 3313   1.996   0.562   8.064  0.0835 -0.1791 -0.4652
   45CHL1  H22B 3314   2.050   0.732   8.079 -0.6984  0.8548 -2.2535
   45CHL1   C23 3315   1.863   0.672   8.189  0.2621  0.1153 -0.6951
   45CHL1  H23A 3316   1.806   0.767   8.191 -0.1224 -0.1146 -0.7008
   45CHL1  H23B 3317   1.794   0.588   8.168 -0.7542  0.8441 -0.3239
   45CHL1   C24 3318   1.937   0.672   8.327  0.4898 -0.2613  0.4984
   45CHL1  H24A 3319   2.002   0.585   8.350 -0.7122 -1.3084  0.1029
   45CHL1  H24B 3320   2.004   0.759   8.311 -1.1007  1.3303  2.0087
   45CHL1   C25 3321   1.850   0.688   8.445 -0.0439  0.1363  0.3723
   45CHL1   H25 3322   1.767   0.753   8.408  0.5561 -0.2129 -1.6893
   45CHL1   C26 3323   1.782   0.552   8.484 -0.0806 -1.2065 -0.0375
   45CHL1  H26A 3324   1.716   0.549   8.573 -0.1184 -3.5731 -0.0679
   45CHL1  H26B 3325   1.733   0.502   8.398  0.6499 -0.0500 -1.1631
   45CHL1  H26C 3326   1.859   0.481   8.522 -1.8838 -2.1475  2.1129
   45CHL1   C27 3327   1.923   0.740   8.566  0.1902  0.2702 -0.4808
   45CHL1  H27A 3328   1.950   0.847   8.548 -0.3917  0.7906  1.5513
   45CHL1  H27B 3329   1.866   0.728   8.660 -1.9788  1.5213 -1.5484
   45CHL1  H27C 3330   2.013   0.680   8.590  1.2215  0.9464 -2.4382
   46CHL1    C3 3331   1.526   1.517   6.969  0.6090 -0.4043 -0.7927
   46CHL1    H3 3332   1.578   1.424   7.001 -2.3726 -2.4802 -1.5566
   46CHL1    O3 3333   1.509   1.522   6.829  0.3916  0.4310  0.3501
   46CHL1   H3' 3334   1.436   1.582   6.812  0.9507  1.8242  2.4993
   46CHL1    C4 3335   1.393   1.536   7.038  0.6932 -0.4030  0.0805
   46CHL1   H4A 3336   1.347   1.633   7.009 -0.5399 -1.2182 -0.8245
   46CHL1   H4B 3337   1.328   1.447   7.019 -0.8882 -0.0189  3.1596
   46CHL1    C5 3338   1.417   1.540   7.186 -0.1714 -0.0719 -0.7833
   46CHL1    C6 3339   1.371   1.443   7.263 -0.6627  0.0110  0.2728
   46CHL1    H6 3340   1.304   1.368   7.218 -1.3633  1.5778 -1.4095
   46CHL1    C7 3341   1.390   1.443   7.414 -0.7011 -0.6589 -0.5508
   46CHL1   H7A 3342   1.293   1.422   7.464  0.2520  0.1668  1.8085
   46CHL1   H7B 3343   1.453   1.353   7.431 -1.2651 -0.7910  0.9573
   46CHL1    C8 3344   1.447   1.569   7.476  0.3988 -0.5169 -0.1925
   46CHL1    H8 3345   1.360   1.639   7.473  0.9311  0.1271 -1.7960
   46CHL1   C14 3346   1.491   1.547   7.619 -0.1563  0.4223  0.7963
   46CHL1   H14 3347   1.578   1.479   7.610  0.7934  1.7357 -0.4371
   46CHL1   C15 3348   1.385   1.502   7.720  0.2851 -0.0326 -0.1831
   46CHL1  H15A 3349   1.286   1.553   7.714  0.5331  0.2983 -3.1061
   46CHL1  H15B 3350   1.374   1.392   7.730  0.3096  0.0029  0.2310
   46CHL1   C16 3351   1.450   1.552   7.856 -0.0472 -0.2276  0.4197
   46CHL1  H16A 3352   1.377   1.624   7.898 -0.3847 -0.6934  0.6398
   46CHL1  H16B 3353   1.478   1.473   7.929  1.1117 -2.0891 -1.8878
   46CHL1   C17 3354   1.585   1.624   7.832  0.0896 -0.1874  0.0201
   46CHL1   H17 3355   1.664   1.546   7.828  0.0224 -0.2000 -2.4298
   46CHL1   C13 3356   1.555   1.670   7.689  0.3791  0.0013 -0.4195
   46CHL1   C18 3357   1.455   1.790   7.688 -0.2139  0.0216  0.0688
   46CHL1  H18A 3358   1.509   1.878   7.728 -1.0120  0.9303 -0.8307
   46CHL1  H18B 3359   1.430   1.821   7.585 -0.7000  1.2550  0.5419
   46CHL1  H18C 3360   1.366   1.766   7.751  0.5233  0.4977  1.3426
   46CHL1   C12 3361   1.686   1.704   7.607  0.7449 -0.1711 -0.4462
   46CHL1  H12A 3362   1.732   1.799   7.642 -0.2324 -0.0012  0.4323
   46CHL1  H12B 3363   1.766   1.631   7.632  1.6064  1.0502  0.4740
   46CHL1   C11 3364   1.655   1.725   7.451  0.6044  0.0888 -0.2151
   46CHL1  H11A 3365   1.606   1.824   7.446  1.3325  0.5018  0.7265
   46CHL1  H11B 3366   1.756   1.725   7.404  2.0121  3.1483  2.4828
   46CHL1    C9 3367   1.558   1.621   7.385  0.3576  0.0804  1.4951
   46CHL1    H9 3368   1.621   1.530   7.373 -0.8648 -0.6919  0.7872
   46CHL1   C10 3369   1.509   1.652   7.240  0.1004  0.2128  0.2729
   46CHL1   C19 3370   1.437   1.791   7.223  0.1947  0.2085 -0.0310
   46CHL1  H19A 3371   1.503   1.866   7.272 -1.8892  1.7561  0.6033
   46CHL1  H19B 3372   1.406   1.824   7.121 -1.1747 -0.3849  0.1649
   46CHL1  H19C 3373   1.347   1.792   7.289  0.0056  1.7183 -0.2695
   46CHL1    C1 3374   1.636   1.649   7.147  0.3301 -0.7311 -1.1245
   46CHL1   H1A 3375   1.690   1.742   7.174 -0.3125 -0.4178 -0.9017
   46CHL1   H1B 3376   1.707   1.572   7.183  1.1012  1.3714  2.3244
   46CHL1    C2 3377   1.608   1.642   7.004 -0.2231 -0.1652  0.0525
   46CHL1   H2A 3378   1.703   1.641   6.947 -1.4607 -1.6880 -2.1600
   46CHL1   H2B 3379   1.553   1.731   6.964 -1.3568 -1.3815 -1.2299
   46CHL1   C20 3380   1.609   1.729   7.938  0.5540  0.6898  0.5845
   46CHL1   H20 3381   1.547   1.818   7.913  1.6332  1.1561 -0.5503
   46CHL1   C21 3382   1.756   1.766   7.934  1.3671  0.5512  0.0953
   46CHL1  H21A 3383   1.800   1.755   7.833 -0.6868 -3.8557 -0.5551
   46CHL1  H21B 3384   1.803   1.690   8.000 -0.5410 -0.4891  0.3083
   46CHL1  H21C 3385   1.783   1.869   7.969 -2.4328  1.2240  1.6096
   46CHL1   C22 3386   1.571   1.693   8.077 -0.6316 -0.4338 -0.6572
   46CHL1  H22A 3387   1.463   1.667   8.077 -1.2067  1.5166 -3.4099
   46CHL1  H22B 3388   1.627   1.601   8.104  2.0321  1.1973 -0.2622
   46CHL1   C23 3389   1.598   1.810   8.174 -0.0722 -0.6956 -0.2257
   46CHL1  H23A 3390   1.705   1.832   8.190 -0.5333 -0.2693  2.8493
   46CHL1  H23B 3391   1.558   1.908   8.139  0.9842  0.1204  0.7755
   46CHL1   C24 3392   1.547   1.776   8.311  0.0537  0.3169 -0.7400
   46CHL1  H24A 3393   1.558   1.864   8.378  1.1427 -0.6040  0.3514
   46CHL1  H24B 3394   1.441   1.746   8.302 -0.3247  2.0428 -2.8655
   46CHL1   C25 3395   1.617   1.658   8.377  0.2157 -0.3604  0.4897
   46CHL1   H25 3396   1.608   1.567   8.314  2.0395 -0.8384  0.8662
   46CHL1   C26 3397   1.766   1.685   8.402 -0.5729 -0.4123 -0.2395
   46CHL1  H26A 3398   1.823   1.678   8.307 -0.8145  0.8246 -0.4993
   46CHL1  H26B 3399   1.781   1.789   8.439 -2.0531 -0.1382 -0.3536
   46CHL1  H26C 3400   1.816   1.614   8.472  1.9012  1.6103  0.2224
   46CHL1   C27 3401   1.535   1.616   8.496 -0.2182  0.3983 -0.3658
   46CHL1  H27A 3402   1.562   1.682   8.582 -2.5064 -1.7058  2.1602
   46CHL1  H27B 3403   1.429   1.632   8.469 -0.3066 -1.2547 -1.1077
   46CHL1  H27C 3404   1.559   1.514   8.533  0.9823  1.3001  1.5521
   47CHL1    C3 3405   6.562   3.106   6.676 -0.1327  0.1914  0.0811
   47CHL1    H3 3406   6.457   3.134   6.656 -0.9277 -0.6637  2.6440
   47CHL1    O3 3407   6.613   3.042   6.560  0.0545 -0.4194 -0.2081
   47CHL1   H3' 3408   6.680   2.978   6.588 -1.0193 -2.1293 -1.3448
   47CHL1    C4 3409   6.655   3.224   6.722 -0.2515 -0.1454 -0.8040
   47CHL1   H4A 3410   6.760   3.200   6.697  0.8312  1.6760  1.6122
   47CHL1   H4B 3411   6.625   3.311   6.659  1.4188 -0.5579 -2.2460
   47CHL1    C5 3412   6.641   3.252   6.872  0.3165 -0.6302 -0.6682
   47CHL1    C6 3413   6.618   3.382   6.910 -0.4106  0.4770 -0.1778
   47CHL1    H6 3414   6.633   3.464   6.839  2.8992  0.2975  0.1397
   47CHL1    C7 3415   6.592   3.435   7.052 -0.8447  0.3492 -0.7180
   47CHL1   H7A 3416   6.659   3.520   7.077  0.6341 -0.0836 -2.9083
   47CHL1   H7B 3417   6.486   3.467   7.058 -0.7398  0.5489  0.3095
   47CHL1    C8 3418   6.631   3.326   7.147 -0.0158 -0.5491 -0.1351
   47CHL1    H8 3419   6.742   3.328   7.154 -0.1090 -0.7741  1.8884
   47CHL1   C14 3420   6.573   3.355   7.291  0.0719 -0.3078  0.4463
   47CHL1   H14 3421   6.463   3.340   7.280  0.1039  0.2973 -0.9302
   47CHL1   C15 3422   6.580   3.503   7.342 -0.4980  0.5466 -0.3968
   47CHL1  H15A 3423   6.683   3.544   7.336 -0.3488  0.1391 -0.7686
   47CHL1  H15B 3424   6.512   3.578   7.297 -0.7608 -0.0827 -1.0855
   47CHL1   C16 3425   6.549   3.490   7.493 -0.3815 -0.5346  0.7083
   47CHL1  H16A 3426   6.638   3.532   7.544  1.4728 -2.4587 -0.7915
   47CHL1  H16B 3427   6.458   3.545   7.526  1.7778  1.1102  4.7261
   47CHL1   C17 3428   6.537   3.339   7.518  0.0480  0.8375  0.0288
   47CHL1   H17 3429   6.430   3.313   7.502  0.5512  0.1296 -2.8331
   47CHL1   C13 3430   6.607   3.262   7.407  0.4513  0.1942  0.2941
   47CHL1   C18 3431   6.762   3.261   7.423 -0.0258  0.4544 -0.1555
   47CHL1  H18A 3432   6.796   3.365   7.441 -0.4162  0.1583  2.7773
   47CHL1  H18B 3433   6.795   3.193   7.505  0.7934 -0.6322 -1.3437
   47CHL1  H18C 3434   6.810   3.224   7.330  0.7412 -0.6991  0.6523
   47CHL1   C12 3435   6.545   3.127   7.367 -0.7364 -0.0187  0.2162
   47CHL1  H12A 3436   6.552   3.039   7.435 -1.0917 -0.9963 -0.9609
   47CHL1  H12B 3437   6.436   3.148   7.355 -0.8102  0.3500  1.3716
   47CHL1   C11 3438   6.588   3.084   7.231  0.1176  0.8141  0.1083
   47CHL1  H11A 3439   6.699   3.085   7.237  0.0511  1.5357  1.7831
   47CHL1  H11B 3440   6.550   2.987   7.194  1.3739  0.2542  0.2308
   47CHL1    C9 3441   6.581   3.188   7.107 -0.9439 -0.1744 -0.4874
   47CHL1    H9 3442   6.471   3.197   7.093 -1.0787 -0.4420  0.3761
   47CHL1   C10 3443   6.627   3.137   6.967 -0.2906  0.3304 -0.9807
   47CHL1   C19 3444   6.774   3.086   6.986  0.1266 -0.2062  0.0574
   47CHL1  H19A 3445   6.772   2.994   7.048  1.0552 -0.2291  0.0731
   47CHL1  H19B 3446   6.822   3.052   6.892 -0.6769 -0.4797 -0.2581
   47CHL1  H19C 3447   6.839   3.158   7.042 -0.0490 -1.9932  2.7702
   47CHL1    C1 3448   6.536   3.027   6.915 -0.0689 -0.3684  0.4127
   47CHL1   H1A 3449   6.534   2.936   6.979 -1.0661  0.5555  1.7515
   47CHL1   H1B 3450   6.432   3.066   6.914  0.2437  0.5315 -1.6684
   47CHL1    C2 3451   6.570   2.985   6.772  0.3126  0.4596 -0.0566
   47CHL1   H2A 3452   6.504   2.907   6.728 -0.7059  1.1371  0.2210
   47CHL1   H2B 3453   6.677   2.959   6.771  0.8681  2.3281  2.1323
   47CHL1   C20 3454   6.569   3.297   7.662 -0.6458  0.9716  0.0512
   47CHL1   H20 3455   6.679   3.282   7.670 -0.9107 -0.8607  0.9562
   47CHL1   C21 3456   6.516   3.153   7.686 -0.6015  0.2625 -0.4003
   47CHL1  H21A 3457   6.421   3.139   7.631 -0.2323  1.0688 -1.2624
   47CHL1  H21B 3458   6.491   3.150   7.794 -1.1213  0.8763 -0.4981
   47CHL1  H21C 3459   6.585   3.069   7.663 -1.7788 -0.9564  0.3780
   47CHL1   C22 3460   6.531   3.405   7.766  0.1962  0.9839 -0.2819
   47CHL1  H22A 3461   6.582   3.498   7.734 -0.7468  1.7402  0.3429
   47CHL1  H22B 3462   6.420   3.406   7.763  0.0586  2.5631  2.2522
   47CHL1   C23 3463   6.583   3.362   7.910 -0.1324  0.9941  0.6257
   47CHL1  H23A 3464   6.513   3.280   7.935  0.3933  0.3292 -0.0557
   47CHL1  H23B 3465   6.688   3.327   7.909 -0.0258  1.1147  2.6389
   47CHL1   C24 3466   6.567   3.477   8.008  0.3845  0.1068  0.8161
   47CHL1  H24A 3467   6.609   3.576   7.979 -1.6798  0.5611 -0.8469
   47CHL1  H24B 3468   6.460   3.499   8.025 -0.3872 -3.2944  0.9372
   47CHL1   C25 3469   6.621   3.441   8.148 -0.5181 -0.3482 -0.4137
   47CHL1   H25 3470   6.577   3.522   8.210 -1.0265 -0.7876 -0.1927
   47CHL1   C26 3471   6.554   3.311   8.198 -0.1535  0.4680 -0.0340
   47CHL1  H26A 3472   6.589   3.290   8.301 -1.3390 -0.7575  0.1465
   47CHL1  H26B 3473   6.444   3.321   8.184 -0.3370 -0.2726  0.8087
   47CHL1  H26C 3474   6.583   3.224   8.135 -0.5622  1.3081 -1.4310
   47CHL1   C27 3475   6.771   3.445   8.175 -0.4148 -0.1456 -0.6189
   47CHL1  H27A 3476   6.812   3.547   8.159 -1.7767  0.3501 -1.0478
   47CHL1  H27B 3477   6.799   3.419   8.279  0.8581  1.5860 -0.4941
   47CHL1  H27C 3478   6.829   3.383   8.103 -0.3153 -0.2618 -0.4386
   48CHL1    C3 3479   3.164   3.967   6.621 -0.0645  0.2127 -0.4712
   48CHL1    H3 3480   3.097   3.881   6.642 -0.0269  0.1975 -0.4128
   48CHL1    O3 3481   3.171   4.012   6.485  0.0361 -0.4786 -0.3419
   48CHL1   H3' 3482   3.222   4.094   6.483  4.5335 -2.9787 -1.0485
   48CHL1    C4 3483   3.140   4.083   6.713 -0.6024  0.4120 -0.6372
   48CHL1   H4A 3484   3.194   4.174   6.679 -2.4611  1.1660 -1.7510
   48CHL1   H4B 3485   3.033   4.105   6.690 -1.5920 -3.7758 -0.8318
   48CHL1    C5 3486   3.157   4.047   6.856 -0.0840  0.6078  0.7094
   48CHL1    C6 3487   3.053   4.066   6.940 -0.2508 -0.2382 -0.2360
   48CHL1    H6 3488   2.952   4.097   6.908  0.1398 -2.0573 -3.6735
   48CHL1    C7 3489   3.072   4.024   7.086 -0.0322 -0.2319  0.8494
   48CHL1   H7A 3490   3.023   4.095   7.156 -0.4594  2.5939 -2.0821
   48CHL1   H7B 3491   3.033   3.921   7.100 -0.7870 -0.0467  0.1916
   48CHL1    C8 3492   3.224   4.020   7.134  0.2467 -0.5220  0.5623
   48CHL1    H8 3493   3.260   4.125   7.141 -1.3242 -0.0638  2.5771
   48CHL1   C14 3494   3.242   3.965   7.274  0.3623  0.1926 -0.9189
   48CHL1   H14 3495   3.191   3.866   7.267 -0.9520  0.6569  1.0112
   48CHL1   C15 3496   3.163   4.043   7.390 -0.7417  0.4955 -0.9047
   48CHL1  H15A 3497   3.177   4.153   7.398  3.0705  0.0968 -0.2045
   48CHL1  H15B 3498   3.055   4.018   7.386 -0.6351 -0.1990  0.1373
   48CHL1   C16 3499   3.230   3.989   7.523 -0.3555  1.5434 -0.4542
   48CHL1  H16A 3500   3.276   4.072   7.581  2.2004  0.2554 -0.4563
   48CHL1  H16B 3501   3.155   3.942   7.589  0.2194 -0.3729 -1.0980
   48CHL1   C17 3502   3.352   3.900   7.475  0.2773  1.0294  0.1467
   48CHL1   H17 3503   3.311   3.796   7.468  0.7896  0.8051  0.4647
   48CHL1   C13 3504   3.381   3.941   7.326 -0.4117 -0.9688 -0.2452
   48CHL1   C18 3505   3.456   4.079   7.327  0.8884  0.6741  0.2526
   48CHL1  H18A 3506   3.454   4.137   7.232 -2.6076  0.2764 -0.0287
   48CHL1  H18B 3507   3.405   4.147   7.398 -1.1819 -0.4637 -0.0639
   48CHL1  H18C 3508   3.558   4.069   7.371  0.8580  2.6029  0.8536
   48CHL1   C12 3509   3.451   3.845   7.234 -0.4395  0.0916  0.0254
   48CHL1  H12A 3510   3.560   3.839   7.256  0.0114 -1.1271 -2.2749
   48CHL1  H12B 3511   3.406   3.743   7.229 -3.4682  1.3669 -0.4783
   48CHL1   C11 3512   3.442   3.902   7.089  0.7986  0.4645  0.7614
   48CHL1  H11A 3513   3.494   4.000   7.093  0.3122  0.6803  2.5666
   48CHL1  H11B 3514   3.497   3.827   7.029 -1.2621 -0.8610  0.4365
   48CHL1    C9 3515   3.293   3.926   7.039 -0.0847 -0.2936  0.3546
   48CHL1    H9 3516   3.249   3.825   7.038 -0.2681 -0.3619  3.8071
   48CHL1   C10 3517   3.289   3.979   6.891 -0.2629  0.2582 -0.7583
   48CHL1   C19 3518   3.399   4.079   6.865  0.1792 -0.3533 -0.2255
   48CHL1  H19A 3519   3.391   4.149   6.951 -0.9777 -1.6225  0.7437
   48CHL1  H19B 3520   3.500   4.034   6.873 -0.4870 -1.6289  1.5786
   48CHL1  H19C 3521   3.387   4.140   6.772 -0.4322 -0.7973 -0.4465
   48CHL1    C1 3522   3.313   3.862   6.793 -0.2661  0.1722 -0.1700
   48CHL1   H1A 3523   3.413   3.814   6.804 -0.0256  0.7601  0.3189
   48CHL1   H1B 3524   3.233   3.789   6.812 -1.2159  1.0073 -0.8522
   48CHL1    C2 3525   3.299   3.901   6.641 -0.1061 -0.3383  0.2744
   48CHL1   H2A 3526   3.315   3.818   6.569 -0.7638  0.8134 -1.2500
   48CHL1   H2B 3527   3.384   3.967   6.615  1.0575 -1.8934 -0.0327
   48CHL1   C20 3528   3.462   3.896   7.583 -0.4739 -0.1973 -0.3750
   48CHL1   H20 3529   3.503   3.999   7.588 -0.3615 -0.1401 -1.9640
   48CHL1   C21 3530   3.579   3.800   7.545  0.8252  0.2732 -0.4617
   48CHL1  H21A 3531   3.629   3.839   7.454 -0.2709  2.5753 -0.1559
   48CHL1  H21B 3532   3.539   3.700   7.519 -1.3802  1.1733 -0.7916
   48CHL1  H21C 3533   3.650   3.781   7.628  2.7068  0.3949 -1.9771
   48CHL1   C22 3534   3.414   3.861   7.727  0.2463  0.1595 -0.2243
   48CHL1  H22A 3535   3.329   3.927   7.753  0.0426 -0.9994  2.2619
   48CHL1  H22B 3536   3.367   3.761   7.721  0.9162 -0.1121 -1.4134
   48CHL1   C23 3537   3.512   3.869   7.834  0.4048 -0.3653  0.0577
   48CHL1  H23A 3538   3.591   3.793   7.821  1.5841  0.7888  0.3313
   48CHL1  H23B 3539   3.556   3.971   7.841  1.6411 -1.0130  4.7028
   48CHL1   C24 3540   3.453   3.831   7.972  0.1294 -0.6312  0.3225
   48CHL1  H24A 3541   3.384   3.907   8.015  2.1272  0.4035  1.8620
   48CHL1  H24B 3542   3.403   3.735   7.945 -0.6425 -0.3555  0.7455
   48CHL1   C25 3543   3.556   3.799   8.081  0.1052  0.0322 -0.3663
   48CHL1   H25 3544   3.644   3.745   8.040 -1.2560 -2.5053 -0.1557
   48CHL1   C26 3545   3.619   3.922   8.147  0.0685 -0.8984  0.1199
   48CHL1  H26A 3546   3.543   3.977   8.208 -1.8353 -0.1598 -2.6986
   48CHL1  H26B 3547   3.694   3.892   8.223 -1.4410  0.0956  2.1442
   48CHL1  H26C 3548   3.651   3.997   8.072 -0.1988 -3.8062 -3.1487
   48CHL1   C27 3549   3.491   3.713   8.186  0.1212  0.1669 -0.3259
   48CHL1  H27A 3550   3.475   3.608   8.155 -0.9329  0.0630  0.5263
   48CHL1  H27B 3551   3.562   3.706   8.271  0.3098  0.9238 -0.4096
   48CHL1  H27C 3552   3.401   3.759   8.233 -0.1604 -1.2024  0.5089
   49CHL1    C3 3553   2.954   6.113   6.712 -0.2107  0.5275 -0.1025
   49CHL1    H3 3554   2.921   6.212   6.750  0.3246  0.8207 -0.3862
   49CHL1    O3 3555   2.986   6.110   6.575 -0.0776  0.6679  0.1616
   49CHL1   H3' 3556   3.009   6.019   6.554 -1.6303  0.4558 -0.7352
   49CHL1    C4 3557   3.080   6.098   6.791 -0.8538 -0.0181  0.1527
   49CHL1   H4A 3558   3.143   6.016   6.751 -1.1857  0.3913 -1.2452
   49CHL1   H4B 3559   3.128   6.195   6.765  0.2581 -1.2969 -3.0038
   49CHL1    C5 3560   3.058   6.078   6.939  0.0892 -0.2953 -0.5861
   49CHL1    C6 3561   3.129   6.159   7.022 -0.4193 -0.2114 -0.1220
   49CHL1    H6 3562   3.215   6.215   6.983  0.1616 -0.0526  1.3313
   49CHL1    C7 3563   3.118   6.142   7.178 -0.0853  0.1047  0.4807
   49CHL1   H7A 3564   3.222   6.134   7.217  1.1675 -0.7326 -2.7360
   49CHL1   H7B 3565   3.076   6.235   7.222 -1.5955  0.2698 -1.2158
   49CHL1    C8 3566   3.035   6.021   7.223 -0.3136 -0.0042  0.4000
   49CHL1    H8 3567   3.099   5.933   7.202 -0.5848  0.0679 -0.7771
   49CHL1   C14 3568   2.993   6.030   7.370  0.6256  0.4127  0.1447
   49CHL1   H14 3569   2.910   6.104   7.370 -1.2318 -1.5643 -0.0754
   49CHL1   C15 3570   3.106   6.061   7.463 -0.5288  0.4563 -0.3420
   49CHL1  H15A 3571   3.180   5.979   7.453  0.7732  1.4418  0.7651
   49CHL1  H15B 3572   3.164   6.155   7.449  0.1982  0.4010  1.8661
   49CHL1   C16 3573   3.042   6.033   7.603  0.0108  0.0828  0.0230
   49CHL1  H16A 3574   3.112   5.982   7.673  0.6210 -0.8199 -1.2089
   49CHL1  H16B 3575   3.029   6.135   7.647 -0.0916  0.5090 -0.9838
   49CHL1   C17 3576   2.911   5.947   7.569 -0.2139 -0.2288 -0.4904
   49CHL1   H17 3577   2.829   6.021   7.570  0.8381  0.9879  0.9916
   49CHL1   C13 3578   2.922   5.904   7.421  0.3823  0.1596  0.8560
   49CHL1   C18 3579   3.019   5.779   7.417  0.1332 -0.1609 -0.0418
   49CHL1  H18A 3580   3.107   5.795   7.483  1.7956  1.9504 -2.5464
   49CHL1  H18B 3581   2.954   5.704   7.467 -1.2943  1.6453  0.9182
   49CHL1  H18C 3582   3.052   5.740   7.318  1.1696 -1.5643  0.8189
   49CHL1   C12 3583   2.792   5.884   7.340 -0.7059 -1.1507  0.6180
   49CHL1  H12A 3584   2.737   5.793   7.371 -1.7938 -0.4340  0.8233
   49CHL1  H12B 3585   2.725   5.966   7.371  1.2503  1.9259 -2.5010
   49CHL1   C11 3586   2.832   5.871   7.191  0.2116 -0.1827 -0.8702
   49CHL1  H11A 3587   2.880   5.772   7.178 -1.3862 -1.1668  0.3647
   49CHL1  H11B 3588   2.736   5.882   7.135 -1.5322  0.7267  2.1147
   49CHL1    C9 3589   2.917   5.988   7.132  0.2398  0.6349  0.4980
   49CHL1    H9 3590   2.858   6.082   7.140  1.3520  1.3410  0.6999
   49CHL1   C10 3591   2.964   5.974   6.986 -0.2000 -0.5881 -0.4814
   49CHL1   C19 3592   3.029   5.841   6.961 -0.1793 -0.4023  0.0531
   49CHL1  H19A 3593   2.962   5.754   6.979 -0.7699  0.0835  0.2190
   49CHL1  H19B 3594   3.069   5.838   6.857  0.5544 -0.0306  0.3135
   49CHL1  H19C 3595   3.123   5.831   7.019 -0.2219  1.0104  0.3852
   49CHL1    C1 3596   2.836   5.985   6.897  0.1179 -0.7324  0.7121
   49CHL1   H1A 3597   2.767   5.902   6.925  0.1436 -1.0073 -0.0168
   49CHL1   H1B 3598   2.768   6.068   6.925 -1.4697 -1.4545 -0.8284
   49CHL1    C2 3599   2.858   5.995   6.747  0.0772 -0.1324  0.0215
   49CHL1   H2A 3600   2.757   5.999   6.701  0.4800 -0.6584 -0.9409
   49CHL1   H2B 3601   2.914   5.907   6.710 -1.5588 -0.9617 -0.6252
   49CHL1   C20 3602   2.882   5.838   7.682  0.0085 -0.5859 -0.1541
   49CHL1   H20 3603   2.967   5.766   7.681 -0.2099 -0.8490  0.2726
   49CHL1   C21 3604   2.750   5.773   7.652  0.0447  0.1529 -1.1939
   49CHL1  H21A 3605   2.680   5.858   7.638 -2.1250 -1.2403  0.5100
   49CHL1  H21B 3606   2.711   5.714   7.738  0.8321 -1.0446 -1.6366
   49CHL1  H21C 3607   2.745   5.709   7.561 -3.6012  0.3764 -1.2862
   49CHL1   C22 3608   2.873   5.901   7.827 -0.6190 -0.4730  0.5077
   49CHL1  H22A 3609   2.950   5.978   7.852 -0.4932 -1.2787  2.8213
   49CHL1  H22B 3610   2.780   5.961   7.838  0.6305  1.9143 -0.9072
   49CHL1   C23 3611   2.893   5.799   7.941 -0.2053  0.1088  0.0034
   49CHL1  H23A 3612   2.806   5.732   7.958 -0.1529  0.1508  0.4667
   49CHL1  H23B 3613   2.976   5.727   7.925  0.3512  0.6986  0.2058
   49CHL1   C24 3614   2.927   5.884   8.067  0.3734  0.3604 -0.5570
   49CHL1  H24A 3615   3.024   5.936   8.048 -0.2220  2.3040  1.3614
   49CHL1  H24B 3616   2.856   5.965   8.094  1.4762  1.1601  0.0410
   49CHL1   C25 3617   2.953   5.794   8.190 -0.1182 -0.0150 -0.3917
   49CHL1   H25 3618   3.016   5.707   8.161  1.0719  1.2453 -1.6950
   49CHL1   C26 3619   3.038   5.862   8.299  0.0940 -0.1666  0.3231
   49CHL1  H26A 3620   2.987   5.959   8.319  0.3034  0.0476 -0.1703
   49CHL1  H26B 3621   3.040   5.810   8.397 -1.3173 -0.7525  0.0615
   49CHL1  H26C 3622   3.145   5.884   8.275  0.1240 -1.1037 -0.4143
   49CHL1   C27 3623   2.822   5.738   8.258 -0.3328  0.4400  0.8226
   49CHL1  H27A 3624   2.747   5.818   8.276 -1.1908  0.4776 -2.2115
   49CHL1  H27B 3625   2.772   5.669   8.186  0.5679 -2.2447  2.6032
   49CHL1  H27C 3626   2.846   5.676   8.346  0.8814 -0.3808 -0.0506
   50CHL1    C3 3627   3.104   0.484   6.899  0.4642 -0.7764  0.1961
   50CHL1    H3 3628   3.213   0.475   6.920  1.1533  1.1703 -2.0794
   50CHL1    O3 3629   3.081   0.457   6.760  0.1370  0.0781 -0.0943
   50CHL1   H3' 3630   2.994   0.496   6.748  0.4251  2.1848  3.1249
   50CHL1    C4 3631   3.023   0.377   6.974 -0.3469  0.4182  0.8777
   50CHL1   H4A 3632   2.914   0.389   6.956 -0.2112  0.0814 -0.2570
   50CHL1   H4B 3633   3.053   0.284   6.921 -1.9733  1.1175 -1.4449
   50CHL1    C5 3634   3.050   0.363   7.122  0.4975 -1.4244  0.2652
   50CHL1    C6 3635   3.103   0.262   7.180 -0.6068  0.4963 -0.3377
   50CHL1    H6 3636   3.128   0.167   7.129  1.8116 -0.8927  3.0517
   50CHL1    C7 3637   3.118   0.255   7.330 -0.8070 -0.2675 -0.2113
   50CHL1   H7A 3638   3.083   0.160   7.374 -3.3504  0.9221  0.5407
   50CHL1   H7B 3639   3.227   0.272   7.343 -0.2809 -4.1371  1.5726
   50CHL1    C8 3640   3.028   0.363   7.401 -0.0717 -0.3065  0.3019
   50CHL1    H8 3641   2.922   0.335   7.383  0.0598 -0.8198  0.3091
   50CHL1   C14 3642   3.079   0.371   7.544  0.2661  0.6347 -0.1527
   50CHL1   H14 3643   3.183   0.405   7.523  1.8021 -4.0023 -1.3963
   50CHL1   C15 3644   3.099   0.241   7.627 -0.0407  0.6521 -0.1515
   50CHL1  H15A 3645   3.003   0.189   7.610 -0.0777  0.1384  1.4609
   50CHL1  H15B 3646   3.188   0.183   7.594 -0.1995  0.3032  0.0413
   50CHL1   C16 3647   3.102   0.297   7.772  0.5074 -0.7710  0.4734
   50CHL1  H16A 3648   3.026   0.234   7.824  1.9588 -3.5089 -0.5098
   50CHL1  H16B 3649   3.194   0.283   7.832  1.7272 -0.3331 -1.2041
   50CHL1   C17 3650   3.069   0.447   7.762  0.1209 -0.3979 -0.6337
   50CHL1   H17 3651   3.169   0.494   7.743  0.6219 -1.1328  0.1505
   50CHL1   C13 3652   3.005   0.474   7.620 -0.7645  0.4642  0.7687
   50CHL1   C18 3653   2.860   0.429   7.634  0.0723  0.0026 -0.2678
   50CHL1  H18A 3654   2.807   0.432   7.537  1.8147 -3.0671 -1.4600
   50CHL1  H18B 3655   2.855   0.323   7.668 -3.7430  0.2950  0.5884
   50CHL1  H18C 3656   2.801   0.488   7.708  1.1281  0.4701  0.2148
   50CHL1   C12 3657   3.034   0.610   7.563 -0.7114 -0.2857 -0.3424
   50CHL1  H12A 3658   2.983   0.692   7.618  1.0026  1.3794 -1.1048
   50CHL1  H12B 3659   3.143   0.627   7.576 -0.7677 -0.5466  0.5640
   50CHL1   C11 3660   2.992   0.626   7.415 -0.8874 -0.6974  0.9207
   50CHL1  H11A 3661   2.882   0.638   7.419 -0.8013 -0.1214  2.9551
   50CHL1  H11B 3662   3.047   0.717   7.383 -3.7193  0.8466  0.1096
   50CHL1    C9 3663   3.044   0.505   7.337  0.1558  0.2415  1.1916
   50CHL1    H9 3664   3.155   0.509   7.341  0.2999 -1.0613 -0.1388
   50CHL1   C10 3665   3.009   0.503   7.184 -0.5811 -0.3713 -0.0863
   50CHL1   C19 3666   2.863   0.534   7.173  0.5186 -0.1929  0.5883
   50CHL1  H19A 3667   2.802   0.463   7.233 -1.1328  1.3391  0.8129
   50CHL1  H19B 3668   2.840   0.637   7.210  0.8059  0.5096 -1.1269
   50CHL1  H19C 3669   2.825   0.535   7.069  0.1624 -1.4225  0.6860
   50CHL1    C1 3670   3.083   0.620   7.106  0.8196 -0.0242  0.3271
   50CHL1   H1A 3671   3.055   0.719   7.147  1.9870  0.4273  0.0826
   50CHL1   H1B 3672   3.194   0.617   7.121  0.8140 -0.1707  0.3371
   50CHL1    C2 3673   3.056   0.616   6.953  0.5853 -0.9036  0.2731
   50CHL1   H2A 3674   3.110   0.703   6.909  2.1991 -2.1713 -0.3122
   50CHL1   H2B 3675   2.949   0.631   6.925  1.3181  0.6328 -2.0448
   50CHL1   C20 3676   3.002   0.519   7.885  0.1255  0.3632 -0.7067
   50CHL1   H20 3677   2.934   0.598   7.844 -0.9560  0.3359  0.9533
   50CHL1   C21 3678   3.126   0.590   7.959  0.6869  0.1795  0.2037
   50CHL1  H21A 3679   3.159   0.687   7.916 -2.7631  1.5808  0.4000
   50CHL1  H21B 3680   3.209   0.516   7.971  2.0108  1.9617  3.0764
   50CHL1  H21C 3681   3.099   0.616   8.063  0.9801 -1.6143  0.7779
   50CHL1   C22 3682   2.927   0.429   7.978  0.4191  0.1539 -0.2803
   50CHL1  H22A 3683   2.880   0.352   7.914  0.4808 -2.6687  2.7785
   50CHL1  H22B 3684   2.987   0.379   8.058 -0.9969  0.4029  0.9686
   50CHL1   C23 3685   2.815   0.492   8.068 -0.5132  0.1144 -0.1278
   50CHL1  H23A 3686   2.877   0.534   8.150  0.5435 -2.5598  0.5493
   50CHL1  H23B 3687   2.752   0.562   8.009 -0.3074 -0.3152 -0.8746
   50CHL1   C24 3688   2.726   0.388   8.139  0.6126 -0.3159 -0.8383
   50CHL1  H24A 3689   2.665   0.338   8.061 -1.4115 -0.4927  0.7741
   50CHL1  H24B 3690   2.786   0.305   8.182  0.2772  0.2943  0.9039
   50CHL1   C25 3691   2.628   0.447   8.238  0.5213  0.2995  0.2040
   50CHL1   H25 3692   2.581   0.539   8.197  2.0318  0.0695 -2.2086
   50CHL1   C26 3693   2.524   0.339   8.284  0.1672  0.2377  0.6532
   50CHL1  H26A 3694   2.430   0.379   8.327  0.0926 -0.9905  1.7006
   50CHL1  H26B 3695   2.506   0.284   8.188 -0.3609  0.2309  0.7513
   50CHL1  H26C 3696   2.566   0.258   8.347  1.9343  0.2386 -0.4435
   50CHL1   C27 3697   2.692   0.507   8.370  0.3507 -0.4218 -0.1233
   50CHL1  H27A 3698   2.613   0.549   8.437 -0.4953 -0.1329 -1.2735
   50CHL1  H27B 3699   2.736   0.421   8.426 -0.9918 -0.4556  0.9370
   50CHL1  H27C 3700   2.777   0.574   8.346 -0.2112 -0.0192 -1.0399
   51CHL1    C3 3701   3.403   6.431   6.774 -0.1136  0.4007  0.1782
   51CHL1    H3 3702   3.429   6.333   6.820 -0.4434 -1.3443 -3.0494
   51CHL1    O3 3703   3.380   6.423   6.634 -0.0757 -0.3262  0.0327
   51CHL1   H3' 3704   3.466   6.386   6.610 -0.2653 -1.3595  0.8404
   51CHL1    C4 3705   3.272   6.493   6.827  1.1912 -0.0132  0.2490
   51CHL1   H4A 3706   3.224   6.569   6.761 -1.1496 -0.5806  1.2119
   51CHL1   H4B 3707   3.207   6.403   6.826  2.3495 -0.8992  1.2721
   51CHL1    C5 3708   3.288   6.535   6.970  0.0278  0.6715  0.1143
   51CHL1    C6 3709   3.187   6.495   7.055 -0.4678 -0.3396  0.2618
   51CHL1    H6 3710   3.097   6.441   7.022 -0.6957 -1.1534  2.0734
   51CHL1    C7 3711   3.195   6.531   7.204  0.5627  0.6410  0.3126
   51CHL1   H7A 3712   3.101   6.578   7.242 -0.2419 -0.0471 -0.7662
   51CHL1   H7B 3713   3.200   6.435   7.260  2.7901 -0.3782 -1.4899
   51CHL1    C8 3714   3.306   6.631   7.235  0.3062  0.3902 -0.7761
   51CHL1    H8 3715   3.273   6.735   7.214  1.0428  1.0350  1.0569
   51CHL1   C14 3716   3.331   6.618   7.387 -0.0075 -0.9916  0.8213
   51CHL1   H14 3717   3.367   6.514   7.399 -0.8652 -1.5868 -1.2468
   51CHL1   C15 3718   3.209   6.636   7.480 -0.9919 -0.1192 -0.4935
   51CHL1  H15A 3719   3.152   6.727   7.451 -1.1667 -0.6536 -1.9122
   51CHL1  H15B 3720   3.147   6.545   7.488 -3.7598  1.5226 -1.5905
   51CHL1   C16 3721   3.273   6.662   7.622  0.1726 -0.3637 -0.4504
   51CHL1  H16A 3722   3.253   6.763   7.664  1.8887  0.2876 -1.0830
   51CHL1  H16B 3723   3.250   6.573   7.684 -1.6685  0.4998  0.1779
   51CHL1   C17 3724   3.434   6.673   7.599 -0.3314 -1.2246 -0.8406
   51CHL1   H17 3725   3.483   6.575   7.618  1.8166 -0.1042 -0.2608
   51CHL1   C13 3726   3.445   6.699   7.443 -0.2696 -0.1011 -0.4065
   51CHL1   C18 3727   3.413   6.852   7.424  0.2394  0.7691 -0.5977
   51CHL1  H18A 3728   3.316   6.885   7.465 -0.5083  0.6619 -2.1942
   51CHL1  H18B 3729   3.494   6.912   7.470  1.0366 -0.6138 -0.1325
   51CHL1  H18C 3730   3.412   6.867   7.314 -1.0451 -0.3800 -0.7679
   51CHL1   C12 3731   3.574   6.666   7.377 -0.1250  0.3961  0.0738
   51CHL1  H12A 3732   3.662   6.729   7.402  1.4288 -0.8048 -2.0505
   51CHL1  H12B 3733   3.602   6.562   7.405 -1.6211 -0.0273  0.0732
   51CHL1   C11 3734   3.561   6.660   7.222  0.5143 -0.0513 -0.1782
   51CHL1  H11A 3735   3.565   6.764   7.185 -1.0527 -0.0147 -0.3166
   51CHL1  H11B 3736   3.646   6.598   7.186  1.8158  0.8384  1.2124
   51CHL1    C9 3737   3.434   6.597   7.167 -1.0183 -0.0112 -0.1904
   51CHL1    H9 3738   3.449   6.489   7.187 -1.2649  0.2916  1.9737
   51CHL1   C10 3739   3.414   6.611   7.013 -0.2419 -0.1995  0.3483
   51CHL1   C19 3740   3.399   6.761   6.970 -0.0585  0.0395 -0.3373
   51CHL1  H19A 3741   3.385   6.774   6.860 -1.5183  0.7372 -0.1025
   51CHL1  H19B 3742   3.308   6.808   7.013  0.9720 -0.5746  2.7440
   51CHL1  H19C 3743   3.488   6.826   6.979 -0.3309  0.5133 -0.9630
   51CHL1    C1 3744   3.540   6.564   6.936  0.7950 -0.2004 -0.3043
   51CHL1   H1A 3745   3.626   6.630   6.958  0.9219 -0.9160  1.4809
   51CHL1   H1B 3746   3.578   6.468   6.978  4.1176  1.2555  0.3416
   51CHL1    C2 3747   3.525   6.531   6.790  0.8520 -0.4195 -0.1482
   51CHL1   H2A 3748   3.625   6.497   6.754  2.1308  0.9207  1.9346
   51CHL1   H2B 3749   3.494   6.624   6.738 -1.6901  0.2752  2.4068
   51CHL1   C20 3750   3.503   6.769   7.699  0.5078 -0.7230  0.2020
   51CHL1   H20 3751   3.491   6.877   7.678  0.0125 -0.8116 -0.0156
   51CHL1   C21 3752   3.656   6.737   7.691 -0.9228 -0.2643 -0.3303
   51CHL1  H21A 3753   3.730   6.797   7.748  1.4556 -1.0667 -2.3570
   51CHL1  H21B 3754   3.695   6.781   7.597  2.1540  1.2889  1.5157
   51CHL1  H21C 3755   3.690   6.634   7.716 -1.1403 -0.5344 -1.1080
   51CHL1   C22 3756   3.466   6.744   7.843  0.9029  0.3172 -1.0003
   51CHL1  H22A 3757   3.356   6.729   7.855  0.9749  0.6943  0.3893
   51CHL1  H22B 3758   3.519   6.665   7.901  0.1485  1.3079  1.1596
   51CHL1   C23 3759   3.489   6.865   7.943 -0.5943  0.5414  0.1051
   51CHL1  H23A 3760   3.595   6.896   7.946 -0.8521  1.4758 -0.0353
   51CHL1  H23B 3761   3.435   6.952   7.900 -1.8921  0.2593  1.0885
   51CHL1   C24 3762   3.452   6.820   8.085  0.2647  1.0839  0.6305
   51CHL1  H24A 3763   3.351   6.774   8.092  0.0789  0.8788 -2.4060
   51CHL1  H24B 3764   3.520   6.735   8.107  1.3987  1.5622 -0.9297
   51CHL1   C25 3765   3.474   6.924   8.190 -0.5619 -0.2527 -0.2714
   51CHL1   H25 3766   3.577   6.960   8.166  0.4586 -1.5123  1.9062
   51CHL1   C26 3767   3.371   7.046   8.182  0.3738 -0.3237 -0.5666
   51CHL1  H26A 3768   3.392   7.110   8.270  0.5658 -0.5113 -0.4756
   51CHL1  H26B 3769   3.393   7.119   8.101 -1.2499  1.2863  0.3540
   51CHL1  H26C 3770   3.265   7.014   8.178 -0.9969  2.7642  3.6771
   51CHL1   C27 3771   3.467   6.864   8.333  0.0134 -0.7748 -0.4569
   51CHL1  H27A 3772   3.365   6.828   8.357  0.0992 -1.2197 -0.7389
   51CHL1  H27B 3773   3.543   6.785   8.351  1.3051  0.8482  1.7191
   51CHL1  H27C 3774   3.503   6.942   8.403  0.1692  0.6372 -2.0466
   52CHL1    C3 3775   6.723   0.954   6.931 -0.1448  0.2102 -0.2105
   52CHL1    H3 3776   6.670   1.051   6.915 -0.1376  0.5649  1.6632
   52CHL1    O3 3777   6.738   0.870   6.817  0.4592  0.4585  0.3681
   52CHL1   H3' 3778   6.661   0.814   6.829 -0.0919  1.0362 -0.3555
   52CHL1    C4 3779   6.863   1.002   6.979  0.6738  0.8444 -0.3471
   52CHL1   H4A 3780   6.919   0.909   7.002 -1.8020 -1.2360 -2.1879
   52CHL1   H4B 3781   6.913   1.068   6.905 -0.8716  0.9879 -1.3051
   52CHL1    C5 3782   6.852   1.075   7.115  0.5419  0.1597  0.0622
   52CHL1    C6 3783   6.902   1.199   7.125  0.1985 -0.0683 -0.2886
   52CHL1    H6 3784   6.961   1.230   7.037 -1.5117 -0.9941 -1.8341
   52CHL1    C7 3785   6.889   1.289   7.242  0.4488  0.0860  0.1230
   52CHL1   H7A 3786   6.982   1.348   7.260 -1.0246  1.9876  1.8196
   52CHL1   H7B 3787   6.813   1.363   7.211  0.4013 -0.1415 -0.3280
   52CHL1    C8 3788   6.845   1.216   7.370 -0.1812  0.8083  0.7502
   52CHL1    H8 3789   6.939   1.166   7.400  0.8862 -0.1086 -3.5560
   52CHL1   C14 3790   6.796   1.310   7.474 -1.0425 -0.0035  0.2191
   52CHL1   H14 3791   6.709   1.364   7.430  1.3986  2.7492 -1.6780
   52CHL1   C15 3792   6.883   1.425   7.510 -1.0588  0.7682  0.0339
   52CHL1  H15A 3793   6.990   1.395   7.511 -0.8180  1.5175 -1.2424
   52CHL1  H15B 3794   6.879   1.511   7.440 -2.2736  0.0276 -0.8577
   52CHL1   C16 3795   6.841   1.456   7.657  0.2229  0.2932 -0.4089
   52CHL1  H16A 3796   6.931   1.452   7.721 -1.5793  0.6017  2.3254
   52CHL1  H16B 3797   6.792   1.556   7.666  1.5229  0.8861  0.3071
   52CHL1   C17 3798   6.735   1.355   7.702 -0.4038  0.4268  0.2136
   52CHL1   H17 3799   6.646   1.404   7.658  0.5399  1.2753 -0.8176
   52CHL1   C13 3800   6.764   1.241   7.609  1.0170  0.4559 -0.1022
   52CHL1   C18 3801   6.885   1.164   7.670 -0.5077 -0.4231  0.3525
   52CHL1  H18A 3802   6.895   1.072   7.608  1.9289 -0.4395  0.6583
   52CHL1  H18B 3803   6.983   1.216   7.658  0.2065 -2.0335 -1.6627
   52CHL1  H18C 3804   6.866   1.144   7.777  0.3882  2.8742  1.2309
   52CHL1   C12 3805   6.644   1.145   7.584 -1.5534 -0.4664 -0.5981
   52CHL1  H12A 3806   6.631   1.085   7.677  0.8611 -2.8052 -1.6466
   52CHL1  H12B 3807   6.552   1.205   7.567 -1.5304 -1.0121 -3.0165
   52CHL1   C11 3808   6.670   1.044   7.467  0.1119  0.5020 -0.3959
   52CHL1  H11A 3809   6.733   0.964   7.511 -0.5424  0.2579  0.1176
   52CHL1  H11B 3810   6.571   1.005   7.436 -0.9614  1.0278  2.1427
   52CHL1    C9 3811   6.736   1.107   7.345 -0.3109  0.8599 -0.5065
   52CHL1    H9 3812   6.651   1.172   7.315 -0.3374  3.1951  3.8139
   52CHL1   C10 3813   6.773   1.009   7.230  0.2245  0.2870  0.2217
   52CHL1   C19 3814   6.861   0.901   7.291 -0.3152 -0.0062  0.5050
   52CHL1  H19A 3815   6.904   0.831   7.217 -3.5007 -2.1617  0.4846
   52CHL1  H19B 3816   6.940   0.949   7.352 -0.1658 -1.0873  1.1922
   52CHL1  H19C 3817   6.802   0.835   7.358  0.4732 -0.2948  0.9301
   52CHL1    C1 3818   6.639   0.944   7.173  0.0127 -0.8548 -0.2281
   52CHL1   H1A 3819   6.603   0.880   7.256 -2.4524  0.0210 -0.5566
   52CHL1   H1B 3820   6.564   1.025   7.178  0.2847 -0.6232  0.2002
   52CHL1    C2 3821   6.650   0.875   7.034  0.1079 -0.3015 -0.2503
   52CHL1   H2A 3822   6.551   0.849   6.992  0.9379  0.1126 -2.6084
   52CHL1   H2B 3823   6.709   0.782   7.049 -0.7843 -0.9639 -0.7761
   52CHL1   C20 3824   6.728   1.346   7.854 -0.3981  0.4341  0.6375
   52CHL1   H20 3825   6.818   1.295   7.893  0.4721 -1.0586 -2.9002
   52CHL1   C21 3826   6.609   1.248   7.890  0.4834 -0.3348  0.3279
   52CHL1  H21A 3827   6.572   1.256   7.995 -0.0997 -1.0055  0.1773
   52CHL1  H21B 3828   6.640   1.142   7.881 -1.7963 -1.0491  0.3547
   52CHL1  H21C 3829   6.525   1.275   7.823  2.1620  1.7131 -1.0814
   52CHL1   C22 3830   6.725   1.491   7.920 -0.0040  0.0253 -0.6674
   52CHL1  H22A 3831   6.825   1.537   7.903 -0.5508  2.0634  1.1065
   52CHL1  H22B 3832   6.646   1.555   7.875 -0.2379 -1.3877 -2.3446
   52CHL1   C23 3833   6.715   1.494   8.077 -0.3025 -0.0255 -0.3578
   52CHL1  H23A 3834   6.731   1.600   8.107  0.0671 -0.7965  2.4946
   52CHL1  H23B 3835   6.615   1.461   8.112 -1.0847  2.6776  0.1672
   52CHL1   C24 3836   6.820   1.409   8.138  0.2446  0.1294 -0.7976
   52CHL1  H24A 3837   6.807   1.303   8.110 -0.8276  0.3608 -1.2355
   52CHL1  H24B 3838   6.923   1.439   8.111  1.4307 -3.1563 -0.2893
   52CHL1   C25 3839   6.814   1.418   8.297  0.1525  0.4105 -0.4579
   52CHL1   H25 3840   6.787   1.523   8.324 -1.1197 -0.4280  1.8625
   52CHL1   C26 3841   6.703   1.327   8.350 -0.7696 -0.1650 -0.2013
   52CHL1  H26A 3842   6.705   1.314   8.460 -0.3331 -0.3556 -0.2309
   52CHL1  H26B 3843   6.605   1.358   8.306 -0.0184  0.4041 -1.5205
   52CHL1  H26C 3844   6.724   1.226   8.309  0.9825  0.3517 -0.6715
   52CHL1   C27 3845   6.939   1.376   8.375 -0.4243  0.2525  0.1020
   52CHL1  H27A 3846   6.942   1.397   8.484  2.1366 -2.0694  0.6019
   52CHL1  H27B 3847   6.930   1.265   8.373 -2.4307  0.3528 -2.9776
   52CHL1  H27C 3848   7.038   1.406   8.335 -0.6870  3.6069  1.6332
   53CHL1    C3 3849   0.913   3.550   7.346  0.4512  0.1476  0.6159
   53CHL1    H3 3850   0.996   3.619   7.374 -1.2195  2.2858  0.5259
   53CHL1    O3 3851   0.907   3.543   7.205  0.0307  0.4303  0.0134
   53CHL1   H3' 3852   0.830   3.490   7.182  1.7699 -1.6356 -1.4080
   53CHL1    C4 3853   0.942   3.406   7.402  0.7012 -1.1028  0.2042
   53CHL1   H4A 3854   0.872   3.322   7.379 -1.7505  0.4868  1.3415
   53CHL1   H4B 3855   1.038   3.381   7.353  0.0402  0.0340 -1.7513
   53CHL1    C5 3856   0.948   3.420   7.557 -0.8142  0.1957  0.3829
   53CHL1    C6 3857   1.048   3.373   7.635  0.0260 -0.2760  0.2950
   53CHL1    H6 3858   1.126   3.310   7.589 -2.7724 -3.6563 -0.2305
   53CHL1    C7 3859   1.049   3.388   7.786 -0.1697 -0.8352 -0.1043
   53CHL1   H7A 3860   1.086   3.301   7.844  0.1821  0.3396  1.5066
   53CHL1   H7B 3861   1.112   3.477   7.806 -0.0630 -0.9670  0.1414
   53CHL1    C8 3862   0.915   3.432   7.856 -0.3706  0.3604 -0.8673
   53CHL1    H8 3863   0.853   3.341   7.869  1.3024 -0.7139 -0.2213
   53CHL1   C14 3864   0.945   3.478   8.000  0.1000  0.0857 -0.6553
   53CHL1   H14 3865   1.015   3.563   7.987  0.0334  0.3270  0.4780
   53CHL1   C15 3866   1.016   3.376   8.093 -0.9473 -0.5490  0.0629
   53CHL1  H15A 3867   0.974   3.276   8.068 -0.0377 -0.7746 -0.5984
   53CHL1  H15B 3868   1.123   3.365   8.067 -1.1853  0.3627 -1.3839
   53CHL1   C16 3869   0.986   3.441   8.236 -0.2183  0.2511 -0.2822
   53CHL1  H16A 3870   0.942   3.363   8.301  2.7332 -1.7298 -0.4495
   53CHL1  H16B 3871   1.085   3.475   8.274 -0.2144 -0.8890  0.8105
   53CHL1   C17 3872   0.881   3.558   8.212  0.4915 -0.2258  0.4858
   53CHL1   H17 3873   0.947   3.645   8.191  0.8785 -0.6884 -0.2876
   53CHL1   C13 3874   0.820   3.528   8.078  0.4782 -0.0417 -0.2545
   53CHL1   C18 3875   0.722   3.413   8.094  0.1655  0.2799  0.9077
   53CHL1  H18A 3876   0.678   3.379   7.998 -0.4245  0.2207  1.1946
   53CHL1  H18B 3877   0.783   3.332   8.141 -0.6027 -0.3995  0.7677
   53CHL1  H18C 3878   0.627   3.421   8.152 -0.0367  1.1374  0.4717
   53CHL1   C12 3879   0.762   3.636   7.994 -0.5237 -0.3308 -0.5832
   53CHL1  H12A 3880   0.670   3.675   8.041 -0.9826 -1.5905 -0.4040
   53CHL1  H12B 3881   0.834   3.722   7.991 -2.7486  1.6017 -1.8262
   53CHL1   C11 3882   0.731   3.601   7.852  0.5011 -0.0306 -0.0031
   53CHL1  H11A 3883   0.653   3.522   7.854 -0.2489  0.7050  1.0452
   53CHL1  H11B 3884   0.702   3.697   7.804  0.3944 -1.2313 -2.5240
   53CHL1    C9 3885   0.855   3.544   7.780  0.1225  0.3151  0.7294
   53CHL1    H9 3886   0.925   3.630   7.778  0.3151  0.1482 -0.4367
   53CHL1   C10 3887   0.828   3.499   7.627 -0.7425 -0.7587  0.2903
   53CHL1   C19 3888   0.707   3.399   7.623  0.3599 -0.0032  0.5715
   53CHL1  H19A 3889   0.614   3.420   7.681 -0.3411 -0.5661 -0.3166
   53CHL1  H19B 3890   0.671   3.392   7.518 -1.0941  1.7974  0.9005
   53CHL1  H19C 3891   0.743   3.301   7.660  0.5576  0.0738  0.5851
   53CHL1    C1 3892   0.789   3.636   7.544 -0.1757  0.4813 -0.0048
   53CHL1   H1A 3893   0.691   3.680   7.573 -0.8263  0.0093 -1.4240
   53CHL1   H1B 3894   0.867   3.713   7.559  0.5330 -0.2380  0.0377
   53CHL1    C2 3895   0.781   3.620   7.387 -0.7475 -0.0548  0.0075
   53CHL1   H2A 3896   0.792   3.721   7.342 -0.4832 -0.9636 -2.0554
   53CHL1   H2B 3897   0.691   3.567   7.350 -0.2813  0.0435 -1.3298
   53CHL1   C20 3898   0.789   3.593   8.326  0.3012  0.4652 -0.2840
   53CHL1   H20 3899   0.716   3.512   8.347 -0.1822  0.7956 -0.6879
   53CHL1   C21 3900   0.707   3.720   8.308 -0.4789 -0.1816 -0.1392
   53CHL1  H21A 3901   0.673   3.769   8.401  2.6548 -0.8053  1.4755
   53CHL1  H21B 3902   0.610   3.698   8.259 -0.3055  0.1658 -0.6515
   53CHL1  H21C 3903   0.767   3.793   8.249  0.4976 -0.0270  1.0150
   53CHL1   C22 3904   0.866   3.607   8.461 -0.5155 -0.3575 -0.2394
   53CHL1  H22A 3905   0.792   3.629   8.541  0.7060  0.7677  0.6187
   53CHL1  H22B 3906   0.911   3.508   8.481  2.1302  0.7398 -0.3469
   53CHL1   C23 3907   0.974   3.718   8.462  0.4059 -0.3381 -0.4092
   53CHL1  H23A 3908   1.054   3.692   8.388 -0.1274 -0.4919 -0.9410
   53CHL1  H23B 3909   0.926   3.815   8.437  1.1991  0.8934  2.5047
   53CHL1   C24 3910   1.047   3.732   8.602  0.0365 -0.1299  0.1581
   53CHL1  H24A 3911   1.113   3.821   8.595  3.5878 -2.5777 -0.2612
   53CHL1  H24B 3912   0.969   3.738   8.681  1.3438 -0.2496  1.5073
   53CHL1   C25 3913   1.122   3.605   8.646  0.1708  0.1135 -0.0490
   53CHL1   H25 3914   1.045   3.526   8.639 -0.2287  0.1871  2.6326
   53CHL1   C26 3915   1.239   3.578   8.548 -0.3516  0.6470 -0.1448
   53CHL1  H26A 3916   1.204   3.530   8.454 -2.2799  1.8325 -0.0801
   53CHL1  H26B 3917   1.289   3.675   8.527  0.6032  0.1375 -0.2846
   53CHL1  H26C 3918   1.325   3.516   8.582 -0.2997  1.6224  1.6548
   53CHL1   C27 3919   1.178   3.620   8.786 -0.2236  0.3554  0.5445
   53CHL1  H27A 3920   1.262   3.692   8.780  0.5154 -0.4791  0.6225
   53CHL1  H27B 3921   1.100   3.634   8.864 -0.2133  1.7049  0.3434
   53CHL1  H27C 3922   1.222   3.521   8.809 -0.5768  0.1499  0.3473
   54CHL1    C3 3923   1.446   5.403   6.967  0.1894  0.1775  0.2286
   54CHL1    H3 3924   1.465   5.294   6.956  1.2183  0.1892  1.6753
   54CHL1    O3 3925   1.450   5.460   6.837 -0.2555  0.2169  0.2024
   54CHL1   H3' 3926   1.503   5.404   6.781  0.0780  1.5749 -0.8907
   54CHL1    C4 3927   1.316   5.450   7.025  0.1981  0.0043 -0.0923
   54CHL1   H4A 3928   1.312   5.560   7.009 -0.6149  0.3062  1.8059
   54CHL1   H4B 3929   1.227   5.408   6.975 -0.9263  1.8989  0.1961
   54CHL1    C5 3930   1.305   5.436   7.175  0.0261  0.3051 -0.1411
   54CHL1    C6 3931   1.206   5.366   7.230  0.5822 -0.0538  0.0694
   54CHL1    H6 3932   1.128   5.325   7.164  1.8564 -0.3062 -1.3016
   54CHL1    C7 3933   1.178   5.346   7.377 -0.1287 -0.1471 -0.2965
   54CHL1   H7A 3934   1.071   5.370   7.398  0.3208 -0.3723  2.6624
   54CHL1   H7B 3935   1.201   5.243   7.410 -0.3020 -0.0810  0.0390
   54CHL1    C8 3936   1.271   5.440   7.467 -0.4141 -0.1216  0.2492
   54CHL1    H8 3937   1.226   5.541   7.457  2.9491  1.5576  0.9678
   54CHL1   C14 3938   1.264   5.407   7.611 -0.5210  0.1481 -0.6582
   54CHL1   H14 3939   1.297   5.301   7.611 -2.1624 -0.3914 -0.7104
   54CHL1   C15 3940   1.130   5.405   7.680  0.2565 -0.0817 -0.2016
   54CHL1  H15A 3941   1.067   5.491   7.650  1.0096  0.4163 -0.4024
   54CHL1  H15B 3942   1.075   5.312   7.657  2.7305 -1.1520 -2.3119
   54CHL1   C16 3943   1.158   5.426   7.824 -0.3874  0.2189 -0.1297
   54CHL1  H16A 3944   1.108   5.518   7.862 -1.6677 -0.4488 -0.1364
   54CHL1  H16B 3945   1.129   5.335   7.881  2.4233 -0.8802 -0.2941
   54CHL1   C17 3946   1.316   5.449   7.832  0.8126  0.2709 -0.3753
   54CHL1   H17 3947   1.354   5.346   7.847 -2.0142 -0.7363  0.5281
   54CHL1   C13 3948   1.366   5.494   7.694  0.6942  0.3474 -0.3370
   54CHL1   C18 3949   1.322   5.649   7.678 -0.2057  0.6924  0.0016
   54CHL1  H18A 3950   1.214   5.665   7.701 -0.7029 -2.2232  0.0204
   54CHL1  H18B 3951   1.371   5.715   7.752  4.3973 -2.4012  0.1039
   54CHL1  H18C 3952   1.332   5.683   7.572 -1.0754 -3.1995 -1.4920
   54CHL1   C12 3953   1.507   5.470   7.649 -0.1951  0.0995  0.7337
   54CHL1  H12A 3954   1.586   5.515   7.713  1.2250 -0.3429 -0.6339
   54CHL1  H12B 3955   1.518   5.360   7.660 -0.7769  0.1202  1.6752
   54CHL1   C11 3956   1.519   5.502   7.501 -1.4252 -0.2454 -0.0522
   54CHL1  H11A 3957   1.541   5.611   7.500 -0.9390 -0.3113  1.2522
   54CHL1  H11B 3958   1.622   5.472   7.472 -0.7250  2.5264 -0.6711
   54CHL1    C9 3959   1.411   5.448   7.409 -0.2222  0.0575 -1.0148
   54CHL1    H9 3960   1.443   5.341   7.406 -0.4793 -0.2978  3.0373
   54CHL1   C10 3961   1.417   5.496   7.257 -0.3314  0.4933 -0.2274
   54CHL1   C19 3962   1.410   5.653   7.256 -0.1161 -0.0404  0.3691
   54CHL1  H19A 3963   1.491   5.705   7.312  1.1231 -3.7405  2.3423
   54CHL1  H19B 3964   1.415   5.692   7.152 -0.3447 -0.2870  0.2643
   54CHL1  H19C 3965   1.315   5.680   7.308  0.8475 -0.7687  2.6239
   54CHL1    C1 3966   1.552   5.447   7.195 -0.0041 -0.7145 -0.6573
   54CHL1   H1A 3967   1.632   5.506   7.243 -2.4931  3.4804 -1.1153
   54CHL1   H1B 3968   1.549   5.339   7.223 -0.9451 -0.2125  1.4184
   54CHL1    C2 3969   1.566   5.458   7.043  0.1931  0.1970 -0.3438
   54CHL1   H2A 3970   1.658   5.403   7.015 -0.1437 -0.0706 -0.9591
   54CHL1   H2B 3971   1.600   5.563   7.031  0.5851  0.1821  0.5894
   54CHL1   C20 3972   1.348   5.535   7.955 -0.0277  0.4604  0.3693
   54CHL1   H20 3973   1.292   5.631   7.960  1.0447  1.2992 -2.2465
   54CHL1   C21 3974   1.498   5.568   7.950 -0.4657 -0.2698 -0.0498
   54CHL1  H21A 3975   1.554   5.611   8.035  0.8700  1.1322 -1.5737
   54CHL1  H21B 3976   1.525   5.643   7.873 -0.7941 -0.7717 -0.6689
   54CHL1  H21C 3977   1.552   5.476   7.917  1.3711  0.6055  0.4009
   54CHL1   C22 3978   1.324   5.456   8.089  0.3215 -0.1788  0.5971
   54CHL1  H22A 3979   1.238   5.387   8.077 -0.7846  1.5043 -2.4172
   54CHL1  H22B 3980   1.414   5.396   8.111  0.1731 -0.4992  0.3385
   54CHL1   C23 3981   1.305   5.543   8.214  0.3022 -0.0079 -0.5135
   54CHL1  H23A 3982   1.394   5.609   8.220 -0.2607  0.6193  3.4734
   54CHL1  H23B 3983   1.213   5.604   8.209  0.0290 -0.2286  1.2660
   54CHL1   C24 3984   1.300   5.471   8.353  0.3109 -0.1522 -0.3758
   54CHL1  H24A 3985   1.233   5.383   8.361  0.1978  0.0660  1.6664
   54CHL1  H24B 3986   1.406   5.441   8.367  0.2570 -1.3315 -2.2171
   54CHL1   C25 3987   1.273   5.564   8.476  0.2536  0.0044 -0.1353
   54CHL1   H25 3988   1.354   5.640   8.473  1.2103 -0.8938  1.2782
   54CHL1   C26 3989   1.133   5.628   8.474  0.7067 -0.0801  0.1693
   54CHL1  H26A 3990   1.107   5.697   8.557 -0.0603  2.2037 -1.8492
   54CHL1  H26B 3991   1.119   5.692   8.384  0.0951 -1.0910 -0.4756
   54CHL1  H26C 3992   1.047   5.557   8.466 -1.7584  2.7631 -0.5300
   54CHL1   C27 3993   1.307   5.486   8.606 -0.5987 -0.1078  0.0968
   54CHL1  H27A 3994   1.404   5.434   8.593  2.2038  4.1425  1.7274
   54CHL1  H27B 3995   1.333   5.554   8.690  0.1960 -2.8520  2.2220
   54CHL1  H27C 3996   1.214   5.431   8.631 -0.5195 -1.1066 -1.6931
   55CHL1    C3 3997   2.525   6.433   6.751  0.2630 -0.2413  0.2856
   55CHL1    H3 3998   2.575   6.529   6.726  0.8967 -0.8674 -0.9442
   55CHL1    O3 3999   2.478   6.390   6.630 -0.2007 -0.4308  0.3765
   55CHL1   H3' 4000   2.403   6.448   6.616 -0.9961 -0.9974  2.0238
   55CHL1    C4 4001   2.603   6.318   6.814  0.3553  0.1249  0.1809
   55CHL1   H4A 4002   2.538   6.227   6.813 -0.4649  0.6579 -2.3179
   55CHL1   H4B 4003   2.693   6.303   6.751  0.1570  2.4413 -0.7296
   55CHL1    C5 4004   2.641   6.359   6.955 -0.3450  0.4800 -0.1490
   55CHL1    C6 4005   2.772   6.373   6.993 -0.1102 -0.4243 -0.3831
   55CHL1    H6 4006   2.859   6.365   6.926  1.4893 -2.2815  1.7963
   55CHL1    C7 4007   2.808   6.400   7.137  0.0192 -0.0933 -0.8517
   55CHL1   H7A 4008   2.886   6.332   7.177 -0.5206  0.7580  1.8837
   55CHL1   H7B 4009   2.832   6.509   7.137 -0.9702  0.1798 -2.8590
   55CHL1    C8 4010   2.688   6.376   7.239 -0.6389 -0.5861  0.4767
   55CHL1    H8 4011   2.675   6.268   7.261  0.4937 -1.2238 -1.7642
   55CHL1   C14 4012   2.728   6.452   7.367 -0.0452  0.6557 -0.2561
   55CHL1   H14 4013   2.742   6.561   7.350 -0.1424  0.6625 -0.2936
   55CHL1   C15 4014   2.861   6.414   7.435  0.0198  0.8954 -0.6832
   55CHL1  H15A 4015   2.885   6.306   7.429  2.4004  1.2469  0.9080
   55CHL1  H15B 4016   2.942   6.467   7.380  0.9759  1.6257  1.3201
   55CHL1   C16 4017   2.846   6.444   7.582 -0.2916 -0.1997  0.6248
   55CHL1  H16A 4018   2.871   6.348   7.632  2.0812 -0.1846 -0.4106
   55CHL1  H16B 4019   2.908   6.530   7.616 -3.4117  1.7876  1.7388
   55CHL1   C17 4020   2.696   6.485   7.599  0.1727 -0.3634 -0.0673
   55CHL1   H17 4021   2.686   6.596   7.589 -1.2165 -0.2995  1.6260
   55CHL1   C13 4022   2.620   6.425   7.478  0.4959 -0.1993  1.3024
   55CHL1   C18 4023   2.589   6.283   7.514  0.0311  0.5074 -0.8350
   55CHL1  H18A 4024   2.507   6.271   7.589  0.0020 -1.1371 -1.0789
   55CHL1  H18B 4025   2.555   6.226   7.425  0.6648  0.4729 -1.0582
   55CHL1  H18C 4026   2.680   6.233   7.553 -0.6821 -0.0282  0.2011
   55CHL1   C12 4027   2.495   6.499   7.432 -0.5046 -0.2339 -0.0590
   55CHL1  H12A 4028   2.408   6.485   7.500  0.3806 -1.7795  0.8260
   55CHL1  H12B 4029   2.515   6.607   7.417 -0.5768 -0.5201 -2.6637
   55CHL1   C11 4030   2.442   6.448   7.295  0.1658  0.0551 -0.6173
   55CHL1  H11A 4031   2.399   6.346   7.308  1.8818 -0.7545 -1.0217
   55CHL1  H11B 4032   2.363   6.513   7.251 -0.5190 -0.8504 -0.7575
   55CHL1    C9 4033   2.561   6.435   7.192  0.5349 -0.1254  0.1504
   55CHL1    H9 4034   2.590   6.537   7.160  0.3473 -0.3630 -0.8113
   55CHL1   C10 4035   2.526   6.376   7.052  0.3659 -0.5722  0.4375
   55CHL1   C19 4036   2.450   6.236   7.071 -0.4327  0.1547  0.0769
   55CHL1  H19A 4037   2.388   6.210   6.983  2.0786 -1.5046 -1.3317
   55CHL1  H19B 4038   2.527   6.156   7.074  0.2759  0.8176  0.1873
   55CHL1  H19C 4039   2.376   6.240   7.154  0.6555 -0.7274  1.1292
   55CHL1    C1 4040   2.435   6.486   6.977 -0.7160 -0.2438  0.1156
   55CHL1   H1A 4041   2.347   6.484   7.044  0.3333 -0.7276  1.5168
   55CHL1   H1B 4042   2.482   6.586   6.977 -0.6303 -0.2215  2.8013
   55CHL1    C2 4043   2.400   6.461   6.836 -0.1170 -0.1260 -0.0575
   55CHL1   H2A 4044   2.340   6.542   6.788 -0.1645  0.1500  0.4577
   55CHL1   H2B 4045   2.342   6.366   6.837 -0.2056 -0.0761 -0.3521
   55CHL1   C20 4046   2.643   6.456   7.742 -0.5709  0.3195  0.8373
   55CHL1   H20 4047   2.634   6.345   7.751  0.7148 -0.1232 -2.0688
   55CHL1   C21 4048   2.511   6.523   7.778 -0.1138  0.3986  0.4343
   55CHL1  H21A 4049   2.492   6.500   7.885  2.1435  0.1983  0.8290
   55CHL1  H21B 4050   2.430   6.493   7.708  1.3697  0.6093 -1.4303
   55CHL1  H21C 4051   2.525   6.632   7.762 -1.5545  0.3101 -1.8804
   55CHL1   C22 4052   2.732   6.496   7.865  0.0482 -0.0003  0.3586
   55CHL1  H22A 4053   2.673   6.491   7.959 -0.3720  0.9517  0.1624
   55CHL1  H22B 4054   2.804   6.413   7.880 -0.6961 -0.4348  1.7832
   55CHL1   C23 4055   2.793   6.639   7.869  1.1018  0.0829 -0.5474
   55CHL1  H23A 4056   2.858   6.654   7.780  1.4636  0.3247 -0.2490
   55CHL1  H23B 4057   2.709   6.709   7.852  2.7056  2.3633  0.3376
   55CHL1   C24 4058   2.857   6.678   8.011  1.0443  0.3138 -0.3156
   55CHL1  H24A 4059   2.772   6.669   8.083  0.2208 -0.4954 -1.3614
   55CHL1  H24B 4060   2.932   6.599   8.029  1.0773  0.2962 -0.5284
   55CHL1   C25 4061   2.940   6.807   8.020 -0.1938  0.2559 -0.0446
   55CHL1   H25 4062   2.882   6.878   7.958 -1.3055 -2.5304 -2.4802
   55CHL1   C26 4063   2.947   6.859   8.164  1.0950 -0.1908  0.0633
   55CHL1  H26A 4064   3.023   6.819   8.236 -1.3815 -3.5187  1.0818
   55CHL1  H26B 4065   2.970   6.967   8.153 -0.2573 -0.0089 -1.2599
   55CHL1  H26C 4066   2.848   6.844   8.213  0.5921 -1.4476 -1.2661
   55CHL1   C27 4067   3.074   6.776   7.957  0.5594  0.8786 -0.3341
   55CHL1  H27A 4068   3.064   6.716   7.864 -0.9048  0.0699  0.3106
   55CHL1  H27B 4069   3.133   6.868   7.937  0.6765  1.3417  1.9280
   55CHL1  H27C 4070   3.138   6.713   8.022 -1.3726  0.9579  1.7726
   56CHL1    C3 4071   0.450   5.365   6.967  0.0253  0.2968  0.2588
   56CHL1    H3 4072   0.528   5.287   6.985  0.1808  0.1392 -1.0394
   56CHL1    O3 4073   0.444   5.390   6.830  0.4554 -0.2423  0.5505
   56CHL1   H3' 4074   0.385   5.465   6.822  1.0127  0.0494 -1.3765
   56CHL1    C4 4075   0.304   5.323   7.017  0.2699  0.1290  0.5472
   56CHL1   H4A 4076   0.233   5.403   6.990 -0.2429 -0.2673  0.7018
   56CHL1   H4B 4077   0.274   5.232   6.962  2.1926 -1.4338  1.9062
   56CHL1    C5 4078   0.300   5.307   7.166  0.2483  0.4798 -0.3610
   56CHL1    C6 4079   0.294   5.189   7.220  0.9268  0.3687  0.3094
   56CHL1    H6 4080   0.293   5.097   7.158  0.0468 -0.3303  1.3319
   56CHL1    C7 4081   0.299   5.154   7.361 -0.3484 -0.1363 -0.0586
   56CHL1   H7A 4082   0.230   5.072   7.393  1.2376 -2.3938 -2.0635
   56CHL1   H7B 4083   0.406   5.125   7.373  0.4397  1.7794 -1.8022
   56CHL1    C8 4084   0.270   5.285   7.447 -0.6605  0.0070  0.3512
   56CHL1    H8 4085   0.161   5.306   7.440 -0.7420 -0.3691  0.5029
   56CHL1   C14 4086   0.295   5.254   7.592 -0.2274  0.3473 -0.0908
   56CHL1   H14 4087   0.403   5.228   7.598 -1.0120 -3.1148  1.3626
   56CHL1   C15 4088   0.221   5.141   7.660 -0.4083 -0.0338 -0.1419
   56CHL1  H15A 4089   0.119   5.158   7.620  0.0984  2.5246 -0.5804
   56CHL1  H15B 4090   0.262   5.039   7.644 -0.1086  0.1595 -0.6502
   56CHL1   C16 4091   0.224   5.173   7.808 -1.1157  0.9387 -0.0999
   56CHL1  H16A 4092   0.116   5.163   7.834 -0.3673 -1.9549  2.4732
   56CHL1  H16B 4093   0.292   5.111   7.869 -0.6898 -1.5024 -2.8493
   56CHL1   C17 4094   0.285   5.317   7.819 -0.2692  0.4476 -0.1888
   56CHL1   H17 4095   0.393   5.315   7.845 -0.2461 -0.5617 -0.3488
   56CHL1   C13 4096   0.279   5.378   7.683  0.2640  0.3580  0.0584
   56CHL1   C18 4097   0.139   5.443   7.671  0.3894 -0.0505 -0.8255
   56CHL1  H18A 4098   0.062   5.371   7.706  2.6659 -1.0285  2.6916
   56CHL1  H18B 4099   0.120   5.525   7.744 -0.9733 -2.5417  1.8157
   56CHL1  H18C 4100   0.136   5.484   7.568  2.3833  2.5404  0.0110
   56CHL1   C12 4101   0.393   5.471   7.651 -0.8705  0.0209  0.3750
   56CHL1  H12A 4102   0.381   5.563   7.712  1.1445 -0.6100  1.8452
   56CHL1  H12B 4103   0.492   5.426   7.675 -0.9268 -0.9038 -0.9952
   56CHL1   C11 4104   0.385   5.511   7.503 -0.0852  0.2722 -0.2801
   56CHL1  H11A 4105   0.298   5.578   7.492 -1.8102 -1.6075  1.1923
   56CHL1  H11B 4106   0.472   5.578   7.482  0.7995 -0.5973  0.5139
   56CHL1    C9 4107   0.369   5.392   7.397  0.2226  0.0846 -0.5079
   56CHL1    H9 4108   0.463   5.335   7.414 -1.1186 -1.9708  0.4005
   56CHL1   C10 4109   0.342   5.432   7.248 -0.2390 -0.5977  0.0947
   56CHL1   C19 4110   0.229   5.529   7.245  0.0648 -0.3485 -0.5426
   56CHL1  H19A 4111   0.140   5.483   7.292  0.4157 -0.3988  0.0920
   56CHL1  H19B 4112   0.266   5.627   7.283  1.6994 -0.4263 -1.8110
   56CHL1  H19C 4113   0.213   5.547   7.137  0.7016 -1.6294 -0.8750
   56CHL1    C1 4114   0.473   5.496   7.185 -0.2122 -0.1918 -0.1277
   56CHL1   H1A 4115   0.480   5.599   7.228  1.1503 -1.8403  4.0877
   56CHL1   H1B 4116   0.546   5.421   7.221  1.8791  1.7532 -0.1171
   56CHL1    C2 4117   0.493   5.495   7.037  0.3224  0.5259  0.0121
   56CHL1   H2A 4118   0.599   5.516   7.009  2.0958  1.3623  5.8958
   56CHL1   H2B 4119   0.431   5.579   6.998  0.0466  0.0870 -0.4925
   56CHL1   C20 4120   0.229   5.385   7.952  0.7128  0.8919  0.2504
   56CHL1   H20 4121   0.120   5.402   7.948  0.6678  0.8890  1.1506
   56CHL1   C21 4122   0.317   5.517   7.970  0.3812  0.2435 -0.0425
   56CHL1  H21A 4123   0.283   5.591   7.894  0.1146 -0.2956 -0.4670
   56CHL1  H21B 4124   0.425   5.493   7.969 -0.2342 -3.0510  0.5201
   56CHL1  H21C 4125   0.304   5.569   8.067  0.5336 -1.6406  1.0484
   56CHL1   C22 4126   0.246   5.299   8.082  0.0049 -0.3737 -0.8235
   56CHL1  H22A 4127   0.202   5.197   8.079  0.6845 -0.9441  3.2859
   56CHL1  H22B 4128   0.354   5.280   8.093 -0.0437 -1.0049 -1.3704
   56CHL1   C23 4129   0.194   5.366   8.203 -0.3461  0.4223 -0.4791
   56CHL1  H23A 4130   0.255   5.456   8.227 -0.9548  1.2739 -2.0169
   56CHL1  H23B 4131   0.089   5.393   8.177 -0.6150 -0.8070 -0.7385
   56CHL1   C24 4132   0.185   5.282   8.332 -0.0538 -0.3663  0.9414
   56CHL1  H24A 4133   0.102   5.207   8.334  1.8448 -2.5850  1.2167
   56CHL1  H24B 4134   0.278   5.223   8.325  0.7856  0.8914  1.2734
   56CHL1   C25 4135   0.169   5.365   8.463  0.8312 -0.0188 -0.0109
   56CHL1   H25 4136   0.140   5.298   8.547  2.5473 -0.6564  0.1175
   56CHL1   C26 4137   0.288   5.452   8.509 -0.4457 -0.4414  0.2789
   56CHL1  H26A 4138   0.333   5.510   8.425 -1.9290 -0.3621 -0.4788
   56CHL1  H26B 4139   0.363   5.374   8.535 -1.0045 -0.9036  0.5101
   56CHL1  H26C 4140   0.270   5.512   8.601  1.9929  1.9845 -0.6533
   56CHL1   C27 4141   0.045   5.457   8.436  0.3495  0.5117  0.2194
   56CHL1  H27A 4142  -0.039   5.392   8.402  0.7663  0.7297 -1.2833
   56CHL1  H27B 4143   0.009   5.484   8.538 -0.6511 -2.9099  0.9119
   56CHL1  H27C 4144   0.069   5.539   8.366 -1.9910  0.8194 -0.3007
   57SAPC     N 4145   2.912   3.492  11.101 -0.4312  0.3785  0.3305
   57SAPC   C12 4146   2.806   3.567  11.029  0.7781 -0.5803 -0.0493
   57SAPC  H12A 4147   2.815   3.666  11.069  1.7903 -0.5387 -0.3601
   57SAPC  H12B 4148   2.708   3.530  11.056  0.2839  0.8207  0.1242
   57SAPC   C13 4149   2.912   3.345  11.081  0.1384  0.4418  0.7053
   57SAPC  H13A 4150   2.827   3.317  11.142 -0.7374  1.3564 -0.0582
   57SAPC  H13B 4151   2.898   3.306  10.981  0.5293  1.0584  0.4034
   57SAPC  H13C 4152   2.999   3.306  11.131 -0.9528 -0.3930  2.0290
   57SAPC   C14 4153   3.048   3.538  11.048 -0.1609  0.3028  0.0060
   57SAPC  H14A 4154   3.040   3.567  10.944  0.1607  2.7197  0.5973
   57SAPC  H14B 4155   3.083   3.635  11.083 -1.6978  0.4885  1.1269
   57SAPC  H14C 4156   3.133   3.476  11.074  0.9667  2.3678  1.5840
   57SAPC   C15 4157   2.902   3.530  11.246  0.2645  0.0306 -0.2197
   57SAPC  H15A 4158   2.910   3.634  11.272 -1.1223 -0.8740  4.7062
   57SAPC  H15B 4159   2.816   3.482  11.289 -1.1977  0.9909 -1.9419
   57SAPC  H15C 4160   2.980   3.490  11.310  0.1992  0.6304  0.2342
   57SAPC   C11 4161   2.796   3.562  10.869 -0.6676 -0.1496 -0.2222
   57SAPC  H11A 4162   2.893   3.595  10.825 -0.0078 -0.8279  0.6787
   57SAPC  H11B 4163   2.717   3.629  10.828  0.6905  2.0448  0.5700
   57SAPC     P 4164   2.651   3.354  10.841  0.0533 -0.2135 -0.0388
   57SAPC   O13 4165   2.678   3.227  10.901  0.1666  0.7062 -0.0796
   57SAPC   O14 4166   2.547   3.438  10.903  0.0783 -0.3799  0.6960
   57SAPC   O12 4167   2.787   3.431  10.824  0.2203 -0.0874  0.9133
   57SAPC   O11 4168   2.612   3.335  10.693 -0.2347 -0.2109 -0.3227
   57SAPC    C1 4169   2.705   3.284  10.596 -0.4857 -0.0512  0.4038
   57SAPC    HA 4170   2.758   3.366  10.542 -0.9174 -0.2275 -0.2995
   57SAPC    HB 4171   2.793   3.227  10.634  1.4890  1.3000 -1.7967
   57SAPC    C2 4172   2.641   3.219  10.468  1.1725 -0.6411 -0.0919
   57SAPC    HS 4173   2.721   3.207  10.391  0.4304 -1.2530 -0.7827
   57SAPC   O21 4174   2.534   3.307  10.417  0.0909  0.5661  0.3150
   57SAPC   C21 4175   2.570   3.371  10.306 -0.3768 -0.0007 -0.1099
   57SAPC   O22 4176   2.683   3.381  10.261 -0.0708 -0.2308  0.2821
   57SAPC   C22 4177   2.439   3.415  10.238 -0.2123  0.2969  0.0090
   57SAPC   H2R 4178   2.369   3.329  10.241  1.0401 -0.9164 -2.4885
   57SAPC   H2S 4179   2.408   3.501  10.301  0.8415 -1.1099  2.6099
   57SAPC    C3 4180   2.577   3.085  10.492  0.0805 -0.3126 -0.3451
   57SAPC    HX 4181   2.484   3.093  10.552 -1.0516  2.1586 -2.2570
   57SAPC    HY 4182   2.646   3.019  10.549 -1.9388 -2.6039 -0.4103
   57SAPC   O31 4183   2.562   3.029  10.357  0.0126  0.0768  0.2787
   57SAPC   C31 4184   2.435   3.036  10.309  0.0442 -1.1014  0.0848
   57SAPC   O32 4185   2.341   3.071  10.377 -0.4545  0.4900 -0.8436
   57SAPC   C32 4186   2.426   2.994  10.167  1.4945  0.2401  0.5785
   57SAPC   H2X 4187   2.319   2.982  10.139  1.7764  2.3177 -1.7896
   57SAPC   H2Y 4188   2.466   2.890  10.163 -2.0203 -1.2122 -1.3133
   57SAPC   C23 4189   2.455   3.453  10.085  0.2231  0.7146 -0.2072
   57SAPC   H3R 4190   2.496   3.371  10.022 -0.0585 -0.6746  1.3346
   57SAPC   H3S 4191   2.531   3.533  10.070 -1.0305  1.8501 -0.6033
   57SAPC   C24 4192   2.327   3.507  10.018  0.3047  0.7464  0.0069
   57SAPC   H4R 4193   2.351   3.557   9.922  2.0242 -0.1057 -0.0495
   57SAPC   H4S 4194   2.274   3.586  10.074 -3.0435 -0.5774 -1.0475
   57SAPC   C25 4195   2.219   3.401   9.994 -0.4130 -0.0617 -0.5785
   57SAPC   H5R 4196   2.195   3.350  10.088  2.4698  0.1795  0.4041
   57SAPC   C26 4197   2.161   3.365   9.879  0.8294  0.2658 -0.4994
   57SAPC   H6R 4198   2.084   3.287   9.890  1.5846 -0.3691  0.5607
   57SAPC   C27 4199   2.183   3.421   9.742 -0.3355 -0.6158  0.5530
   57SAPC   H7R 4200   2.257   3.504   9.739 -0.7753 -0.2402 -0.2804
   57SAPC   H7S 4201   2.092   3.481   9.721 -0.4195 -1.1818 -0.7507
   57SAPC   C28 4202   2.204   3.317   9.636 -0.0494  0.3487 -0.6287
   57SAPC   H8R 4203   2.144   3.226   9.652 -0.8940  1.0089  0.0002
   57SAPC   C29 4204   2.277   3.325   9.524 -0.3902 -0.0545  0.3388
   57SAPC   H9R 4205   2.297   3.232   9.469 -1.9493 -0.2351  0.0442
   57SAPC  C210 4206   2.369   3.441   9.484  0.3855 -0.4885  0.3076
   57SAPC  H10R 4207   2.472   3.417   9.518 -0.4507 -0.3271  3.2658
   57SAPC  H10S 4208   2.338   3.535   9.533  0.9444 -0.9394  1.5842
   57SAPC  C211 4209   2.381   3.474   9.340 -0.2465  0.5567 -0.4231
   57SAPC  H11R 4210   2.483   3.467   9.299 -0.4530 -0.9134 -0.7398
   57SAPC  C212 4211   2.287   3.488   9.246 -0.0971 -0.3806  0.7063
   57SAPC  H12R 4212   2.326   3.513   9.146  0.4747  1.4230  1.3368
   57SAPC  C213 4213   2.133   3.478   9.246 -0.2368 -0.4059 -0.2949
   57SAPC  H13R 4214   2.113   3.373   9.276 -0.3597 -0.8421 -1.8126
   57SAPC  H13S 4215   2.098   3.479   9.140 -1.5401  0.9013  0.1206
   57SAPC  C214 4216   2.048   3.574   9.326  0.4476 -0.1059 -0.0818
   57SAPC  H14R 4217   2.020   3.539   9.427  0.0338 -0.3038 -0.2658
   57SAPC  C215 4218   1.991   3.693   9.286 -0.2007 -0.1699  0.2693
   57SAPC  H15R 4219   1.934   3.755   9.356 -0.0739  2.2444 -1.6230
   57SAPC  C216 4220   2.007   3.748   9.148  0.0009 -0.6484  0.8208
   57SAPC  H16R 4221   2.055   3.675   9.079 -0.9556  0.1525 -0.7632
   57SAPC  H16S 4222   2.077   3.835   9.147 -0.4454 -0.2665 -0.5552
   57SAPC  C217 4223   1.876   3.792   9.084 -0.0142  0.6982 -0.6723
   57SAPC  H17R 4224   1.824   3.862   9.152  0.6945  1.8088 -1.2527
   57SAPC  H17S 4225   1.809   3.703   9.081 -0.5606  1.1202 -1.2507
   57SAPC  C218 4226   1.897   3.862   8.948 -0.2909  0.1481 -0.3468
   57SAPC  H18R 4227   1.957   3.793   8.885  1.3884 -0.9931  2.3220
   57SAPC  H18S 4228   1.960   3.952   8.964  2.6935 -1.7756 -0.5341
   57SAPC  C219 4229   1.759   3.894   8.901 -0.9407  0.3444 -0.4707
   57SAPC  H19R 4230   1.716   3.957   8.982  0.6946 -0.5257  1.1405
   57SAPC  H19S 4231   1.684   3.812   8.895  0.4197 -0.9489 -0.2340
   57SAPC  C220 4232   1.760   3.961   8.766  0.0582 -0.0615 -0.0700
   57SAPC  H20R 4233   1.668   3.944   8.706 -1.2584  2.2339  1.1491
   57SAPC  H20S 4234   1.841   3.920   8.702 -0.5035 -1.2277 -0.0536
   57SAPC  H20T 4235   1.775   4.071   8.773 -0.0352  0.0366 -1.2386
   57SAPC   C33 4236   2.491   3.089  10.063  0.7392  0.0754  0.5798
   57SAPC   H3X 4237   2.596   3.121  10.079  0.2337  1.4751  1.2459
   57SAPC   H3Y 4238   2.430   3.178  10.038 -0.0602 -1.0020 -1.5186
   57SAPC   C34 4239   2.494   3.021   9.926 -0.3993  0.0515 -0.4472
   57SAPC   H4X 4240   2.389   2.994   9.899 -0.4908  0.5493 -0.6008
   57SAPC   H4Y 4241   2.561   2.933   9.937  1.3091  1.3843  0.1817
   57SAPC   C35 4242   2.556   3.109   9.823 -0.2614 -0.8578 -0.4246
   57SAPC   H5X 4243   2.665   3.114   9.846  0.0393  0.5865 -1.9648
   57SAPC   H5Y 4244   2.527   3.216   9.839 -0.5639 -0.9913 -0.0569
   57SAPC   C36 4245   2.531   3.071   9.671 -0.0127  0.2664 -0.4002
   57SAPC   H6X 4246   2.423   3.084   9.651 -0.8383 -1.3110  2.3886
   57SAPC   H6Y 4247   2.556   2.962   9.673 -0.5774  0.1275 -0.6186
   57SAPC   C37 4248   2.626   3.155   9.583 -0.4702 -0.0316  0.7068
   57SAPC   H7X 4249   2.728   3.120   9.607 -1.0756 -1.4670  1.2616
   57SAPC   H7Y 4250   2.623   3.263   9.609 -0.5097 -0.2482  1.6665
   57SAPC   C38 4251   2.601   3.145   9.432 -0.5446 -0.1399  0.8874
   57SAPC   H8X 4252   2.504   3.198   9.415  0.1368  0.4954 -1.4588
   57SAPC   H8Y 4253   2.591   3.036   9.411  1.5903 -0.4684  1.3976
   57SAPC   C39 4254   2.715   3.193   9.346 -0.5221  0.2372 -0.3935
   57SAPC   H9X 4255   2.808   3.132   9.354 -0.0512  0.9289 -0.5245
   57SAPC   H9Y 4256   2.747   3.295   9.376  0.1260 -0.9570  3.4881
   57SAPC  C310 4257   2.661   3.198   9.199 -0.3273 -0.4937  0.5765
   57SAPC  H10X 4258   2.561   3.246   9.194  0.2123  0.5835 -0.2080
   57SAPC  H10Y 4259   2.644   3.097   9.155  1.6979 -0.9857  0.8371
   57SAPC  C311 4260   2.764   3.270   9.119 -0.4030  0.8515  0.5281
   57SAPC  H11X 4261   2.754   3.242   9.012 -1.3850  0.2184  0.7723
   57SAPC  H11Y 4262   2.862   3.241   9.163 -0.4170 -0.5242 -0.2978
   57SAPC  C312 4263   2.745   3.425   9.111 -0.3164 -0.0265  0.2761
   57SAPC  H12X 4264   2.841   3.473   9.082 -1.4863  1.0984 -1.9152
   57SAPC  H12Y 4265   2.711   3.465   9.209 -0.7477  2.0824 -0.6762
   57SAPC  C313 4266   2.641   3.483   9.015 -0.5341  0.0781  0.0548
   57SAPC  H13X 4267   2.545   3.430   9.024  0.0468 -1.2823 -1.3552
   57SAPC  H13Y 4268   2.680   3.477   8.912 -1.4607  0.7604 -0.3535
   57SAPC  C314 4269   2.617   3.631   9.048  0.2623 -0.1202  0.1181
   57SAPC  H14X 4270   2.714   3.677   9.078 -0.6357  2.5487 -0.8706
   57SAPC  H14Y 4271   2.542   3.639   9.129 -0.0643 -2.2119  0.0974
   57SAPC  C315 4272   2.566   3.715   8.927 -0.1741  0.0076  0.4230
   57SAPC  H15X 4273   2.647   3.725   8.852 -0.3673 -0.1434  0.1938
   57SAPC  H15Y 4274   2.531   3.810   8.972 -0.2023  0.7843 -1.1817
   57SAPC  C316 4275   2.443   3.647   8.863  0.6602  1.0623  0.8095
   57SAPC  H16X 4276   2.388   3.595   8.944  0.5041  0.7210  0.4887
   57SAPC  H16Y 4277   2.476   3.572   8.787 -1.7928  0.0660  0.6128
   57SAPC  C317 4278   2.348   3.743   8.792 -0.0556 -0.0199  0.6756
   57SAPC  H17X 4279   2.406   3.783   8.706 -1.8882 -0.0282 -0.6269
   57SAPC  H17Y 4280   2.325   3.829   8.859 -1.0578 -1.1146  1.7965
   57SAPC  C318 4281   2.214   3.676   8.751 -0.2428  0.5877  0.7284
   57SAPC  H18X 4282   2.221   3.616   8.657  1.3030  0.2232  1.0329
   57SAPC  H18Y 4283   2.153   3.761   8.714  1.2650  0.9947 -1.0338
   57SAPC  H18Z 4284   2.165   3.623   8.834 -0.9566 -0.8019 -0.5302
   58SAPC     N 4285   3.233   6.055  10.952 -0.1173  0.1467  0.3875
   58SAPC   C12 4286   3.173   6.187  10.924 -0.6478  0.4829 -0.0354
   58SAPC  H12A 4287   3.199   6.262  10.996 -4.7252  1.2528  0.8592
   58SAPC  H12B 4288   3.066   6.183  10.937 -0.6215  0.3442  0.1349
   58SAPC   C13 4289   3.202   6.008  11.093  0.0528  0.0675  0.8905
   58SAPC  H13A 4290   3.259   6.070  11.161  2.0681  0.3860 -0.9565
   58SAPC  H13B 4291   3.096   6.009  11.110 -0.0693  0.5713  0.1674
   58SAPC  H13C 4292   3.241   5.910  11.114  0.1661 -0.0962 -0.0641
   58SAPC   C14 4293   3.179   5.967  10.850  0.2948 -0.3353  0.1040
   58SAPC  H14A 4294   3.244   5.884  10.826  1.0820  0.3330 -0.0980
   58SAPC  H14B 4295   3.082   5.934  10.885  1.3143 -1.2256  2.3071
   58SAPC  H14C 4296   3.175   6.022  10.758 -1.5156  0.3517  0.5480
   58SAPC   C15 4297   3.386   6.063  10.942 -0.0076  0.5637 -0.1780
   58SAPC  H15A 4298   3.405   6.107  10.845 -3.4337  0.4767 -1.0177
   58SAPC  H15B 4299   3.436   6.116  11.021 -1.7408 -2.2154  3.0078
   58SAPC  H15C 4300   3.425   5.965  10.922 -1.6747 -0.1903  0.1154
   58SAPC   C11 4301   3.190   6.252  10.779 -1.0692  0.5856  0.2611
   58SAPC  H11A 4302   3.295   6.225  10.757 -1.3401 -0.3017  0.0412
   58SAPC  H11B 4303   3.188   6.362  10.767 -0.5721  0.5195 -0.4391
   58SAPC     P 4304   2.966   6.227  10.659 -0.0435  0.2331  0.2767
   58SAPC   O13 4305   2.916   6.163  10.538  0.0209 -0.3179  0.1617
   58SAPC   O14 4306   2.888   6.217  10.784 -0.1052 -0.3042  0.2620
   58SAPC   O12 4307   3.120   6.180  10.682 -0.1329  0.5620  0.1337
   58SAPC   O11 4308   2.991   6.384  10.633 -0.0198 -0.7842  0.9115
   58SAPC    C1 4309   3.065   6.429  10.519 -0.1199 -0.2292 -1.1845
   58SAPC    HA 4310   3.157   6.484  10.549 -0.2211  0.8432 -2.7296
   58SAPC    HB 4311   3.093   6.349  10.446 -0.7990  0.0289 -1.7431
   58SAPC    C2 4312   2.980   6.537  10.452  0.0325  0.2448  0.3106
   58SAPC    HS 4313   2.883   6.497  10.415  0.3251  0.5718 -0.8544
   58SAPC   O21 4314   3.058   6.592  10.342 -0.1652 -0.0089  0.0416
   58SAPC   C21 4315   3.058   6.518  10.234  0.0779 -0.4805 -0.0886
   58SAPC   O22 4316   3.017   6.401  10.227  0.0356  0.2602  0.3537
   58SAPC   C22 4317   3.117   6.586  10.111  0.5883 -0.0139 -0.4967
   58SAPC   H2R 4318   3.162   6.680  10.151 -3.0982  2.3529 -1.4613
   58SAPC   H2S 4319   3.199   6.521  10.074  0.3266 -0.3855 -0.4195
   58SAPC    C3 4320   2.937   6.652  10.549 -0.3083 -0.0930  0.4159
   58SAPC    HX 4321   3.031   6.684  10.600 -0.6203 -0.1439  1.0261
   58SAPC    HY 4322   2.862   6.614  10.622 -0.8677 -0.0638 -0.1399
   58SAPC   O31 4323   2.885   6.766  10.477 -0.4690 -0.0114 -0.2520
   58SAPC   C31 4324   2.770   6.735  10.426  0.1130  0.8739  0.5353
   58SAPC   O32 4325   2.713   6.627  10.437  0.2367  0.1274 -0.4895
   58SAPC   C32 4326   2.716   6.861  10.351 -0.1609  0.5269 -0.0530
   58SAPC   H2X 4327   2.805   6.901  10.297 -0.9103  0.5117 -1.3658
   58SAPC   H2Y 4328   2.681   6.931  10.430 -1.6859  1.4478 -1.4730
   58SAPC   C23 4329   3.013   6.600  10.001 -0.2923  0.4236  0.2964
   58SAPC   H3R 4330   2.922   6.659  10.026  0.1765  1.0620  0.5325
   58SAPC   H3S 4331   2.983   6.497   9.972  0.6318  0.1748  0.2086
   58SAPC   C24 4332   3.067   6.662   9.867 -0.1601 -0.8852 -0.3703
   58SAPC   H4R 4333   3.098   6.767   9.890 -0.1218 -0.0814 -3.6440
   58SAPC   H4S 4334   2.996   6.673   9.783 -0.4426  1.6832  0.0987
   58SAPC   C25 4335   3.176   6.583   9.812  0.3494 -0.2055  0.5127
   58SAPC   H5R 4336   3.256   6.553   9.882  2.6363 -0.2276 -1.9541
   58SAPC   C26 4337   3.188   6.540   9.690 -0.4086 -0.3980  0.1665
   58SAPC   H6R 4338   3.287   6.497   9.667 -0.9523 -0.8324 -1.5248
   58SAPC   C27 4339   3.104   6.551   9.565  0.0318 -0.4840 -0.7552
   58SAPC   H7R 4340   3.158   6.627   9.506  1.1274 -0.5325  0.1397
   58SAPC   H7S 4341   2.997   6.565   9.593  0.2604 -2.5889  1.6479
   58SAPC   C28 4342   3.130   6.413   9.505  0.0078  0.5273 -0.3651
   58SAPC   H8R 4343   3.092   6.331   9.568  1.4498 -1.3479 -1.8094
   58SAPC   C29 4344   3.175   6.382   9.386 -0.9052  0.7017 -0.2241
   58SAPC   H9R 4345   3.188   6.277   9.358  0.1052  0.4652  1.0428
   58SAPC  C210 4346   3.220   6.477   9.277  0.6135  0.2021 -0.0537
   58SAPC  H10R 4347   3.302   6.425   9.223  0.6957  0.2810 -0.0051
   58SAPC  H10S 4348   3.276   6.561   9.325  1.6785 -0.6451  0.2181
   58SAPC  C211 4349   3.114   6.521   9.191  0.1190  0.1165 -0.5286
   58SAPC  H11R 4350   3.032   6.566   9.248 -1.1939 -1.8696 -0.7607
   58SAPC  C212 4351   3.100   6.509   9.061  0.2092 -0.5026 -0.1120
   58SAPC  H12R 4352   3.019   6.559   9.006 -0.4773 -0.9548  0.4755
   58SAPC  C213 4353   3.209   6.438   8.978  0.1325 -0.1945 -0.3867
   58SAPC  H13R 4354   3.273   6.370   9.038  0.5008  0.6986  0.2485
   58SAPC  H13S 4355   3.277   6.521   8.950  3.0131 -1.6953  1.6644
   58SAPC  C214 4356   3.150   6.353   8.868  0.0143  0.2449 -0.6620
   58SAPC  H14R 4357   3.071   6.287   8.908 -1.1235  1.2647 -1.1316
   58SAPC  C215 4358   3.179   6.361   8.738 -0.4549  0.1991 -0.3099
   58SAPC  H15R 4359   3.139   6.288   8.667 -0.6970 -0.1356  0.1658
   58SAPC  C216 4360   3.277   6.454   8.674 -0.0416 -0.3044  0.6187
   58SAPC  H16R 4361   3.349   6.393   8.615  0.0404 -0.1155  0.5257
   58SAPC  H16S 4362   3.334   6.522   8.740  0.8146 -0.0766 -0.3248
   58SAPC  C217 4363   3.202   6.542   8.572 -0.1414  0.1585  0.8368
   58SAPC  H17R 4364   3.274   6.608   8.519 -3.4524  3.4278 -0.0030
   58SAPC  H17S 4365   3.134   6.616   8.618 -0.4098  0.5443 -0.1478
   58SAPC  C218 4366   3.125   6.461   8.466 -0.2466  0.5942 -0.2233
   58SAPC  H18R 4367   3.030   6.428   8.513  1.2640 -0.9072  1.9527
   58SAPC  H18S 4368   3.185   6.371   8.440 -1.8479 -0.8721  0.9161
   58SAPC  C219 4369   3.104   6.530   8.327  0.1821 -0.2339  0.1929
   58SAPC  H19R 4370   3.050   6.626   8.337  0.4872 -0.1157  0.7203
   58SAPC  H19S 4371   3.038   6.456   8.276  1.4466 -1.4941  0.3378
   58SAPC  C220 4372   3.237   6.562   8.252  0.7516  0.0788 -0.9810
   58SAPC  H20R 4373   3.218   6.584   8.144 -0.6491  1.0192 -0.5828
   58SAPC  H20S 4374   3.310   6.479   8.257 -0.9005 -1.3675  0.5897
   58SAPC  H20T 4375   3.286   6.653   8.293 -0.4435  0.0639  0.5628
   58SAPC   C33 4376   2.600   6.846  10.240 -0.6262 -0.0514 -0.3277
   58SAPC   H3X 4377   2.574   6.951  10.216 -1.4799 -0.2090 -0.1402
   58SAPC   H3Y 4378   2.519   6.776  10.271 -0.7505  1.4853  3.2896
   58SAPC   C34 4379   2.662   6.794  10.113 -0.4192  0.1324  0.0522
   58SAPC   H4X 4380   2.580   6.789  10.038  0.3044  1.3430 -0.8591
   58SAPC   H4Y 4381   2.714   6.697  10.131  0.0155  0.1553 -1.0251
   58SAPC   C35 4382   2.762   6.888  10.040 -0.2657 -0.2800 -0.2231
   58SAPC   H5X 4383   2.863   6.860  10.077 -0.6627 -0.2613  0.9368
   58SAPC   H5Y 4384   2.740   6.994  10.068 -0.3399 -0.6052  0.9953
   58SAPC   C36 4385   2.758   6.869   9.890 -0.2605  0.1061  0.1135
   58SAPC   H6X 4386   2.655   6.889   9.853  1.3225  1.1900 -4.2539
   58SAPC   H6Y 4387   2.778   6.761   9.872  1.4852  0.0176  2.1577
   58SAPC   C37 4388   2.852   6.946   9.805  0.1271  0.2798 -0.2008
   58SAPC   H7X 4389   2.958   6.929   9.832  0.7746  1.0128 -2.1120
   58SAPC   H7Y 4390   2.843   7.055   9.827 -1.6886  0.5130 -1.8186
   58SAPC   C38 4391   2.828   6.919   9.657  0.2762  0.1504 -0.5059
   58SAPC   H8X 4392   2.761   7.001   9.621  0.6387 -0.3447 -2.4546
   58SAPC   H8Y 4393   2.773   6.825   9.636 -2.2393  1.1336  1.1676
   58SAPC   C39 4394   2.951   6.929   9.560 -0.1059 -0.3979  0.3045
   58SAPC   H9X 4395   3.021   6.845   9.580 -0.0800 -0.1519  1.2888
   58SAPC   H9Y 4396   3.008   7.024   9.571 -0.9557 -0.0564  2.3882
   58SAPC  C310 4397   2.904   6.934   9.403  0.0282  0.1850 -0.5553
   58SAPC  H10X 4398   2.867   6.835   9.371  0.0629  0.9787 -3.3121
   58SAPC  H10Y 4399   2.995   6.950   9.342  1.1034  2.3925  1.4568
   58SAPC  C311 4400   2.810   7.045   9.354 -0.3162 -0.5583  0.4645
   58SAPC  H11X 4401   2.847   7.147   9.378 -1.0460  0.1181 -1.1419
   58SAPC  H11Y 4402   2.704   7.038   9.386 -1.1241  2.2464 -1.2531
   58SAPC  C312 4403   2.793   7.023   9.197 -0.7815 -0.4397  0.4746
   58SAPC  H12X 4404   2.728   7.103   9.156 -1.0404 -0.0397  1.6428
   58SAPC  H12Y 4405   2.736   6.928   9.192  1.4671 -2.0606  2.8570
   58SAPC  C313 4406   2.923   7.039   9.118  0.3208  0.4359 -0.4771
   58SAPC  H13X 4407   2.972   6.940   9.130 -0.4963  0.0907  0.1618
   58SAPC  H13Y 4408   2.983   7.116   9.170 -1.1978  2.3082 -1.3619
   58SAPC  C314 4409   2.913   7.065   8.970 -0.8148 -0.2597 -0.1434
   58SAPC  H14X 4410   2.902   7.175   8.959  1.8171  0.2475  1.4486
   58SAPC  H14Y 4411   2.824   7.004   8.943 -1.2967  1.0060 -1.5825
   58SAPC  C315 4412   3.033   7.020   8.885 -0.1199 -0.2162  0.1276
   58SAPC  H15X 4413   3.030   6.909   8.874  2.3475 -0.4141  0.8184
   58SAPC  H15Y 4414   3.128   7.047   8.935 -0.8510  1.3255  0.7641
   58SAPC  C316 4415   3.040   7.081   8.742  0.9013  0.2192 -0.4139
   58SAPC  H16X 4416   3.044   7.192   8.748 -0.7561  0.4581 -2.4433
   58SAPC  H16Y 4417   2.941   7.069   8.692  1.5300 -0.6586 -1.4950
   58SAPC  C317 4418   3.156   7.045   8.654 -0.8642  0.1894  0.2820
   58SAPC  H17X 4419   3.257   7.063   8.695 -0.2991 -2.5049  0.2534
   58SAPC  H17Y 4420   3.153   7.109   8.563 -0.8010 -2.5167 -1.7463
   58SAPC  C318 4421   3.140   6.896   8.603 -0.3386 -0.2102  0.0289
   58SAPC  H18X 4422   3.202   6.876   8.513  0.6809 -1.2029  0.9268
   58SAPC  H18Y 4423   3.039   6.886   8.558  0.2889 -1.4562 -1.1765
   58SAPC  H18Z 4424   3.155   6.807   8.668  4.0714 -0.3060 -0.8162
   59SAPC     N 4425   5.066   0.785  11.555  0.6742  0.3965  0.1419
   59SAPC   C12 4426   5.140   0.834  11.432  0.5885  0.1301  0.4417
   59SAPC  H12A 4427   5.248   0.829  11.441  0.5948 -0.3058  0.1412
   59SAPC  H12B 4428   5.128   0.942  11.433 -2.7403 -0.1290  0.0233
   59SAPC   C13 4429   4.922   0.820  11.545  0.2053  0.0080 -0.0060
   59SAPC  H13A 4430   4.904   0.914  11.596  2.4683 -1.1698  3.2737
   59SAPC  H13B 4431   4.897   0.850  11.444 -1.6116  1.8347  0.8970
   59SAPC  H13C 4432   4.855   0.746  11.587 -0.9109  0.5285 -0.8138
   59SAPC   C14 4433   5.065   0.639  11.578  0.1289 -1.0857  0.2243
   59SAPC  H14A 4434   5.151   0.606  11.635  1.6506 -0.7607 -1.8069
   59SAPC  H14B 4435   4.978   0.614  11.638 -1.7829  2.6515 -0.6646
   59SAPC  H14C 4436   5.067   0.593  11.481  0.3681 -2.4424  0.8430
   59SAPC   C15 4437   5.124   0.862  11.675 -0.1179  0.6873 -0.6716
   59SAPC  H15A 4438   5.098   0.823  11.772  2.6365  0.8621  0.2266
   59SAPC  H15B 4439   5.232   0.854  11.674 -0.0567  0.6830  1.6055
   59SAPC  H15C 4440   5.109   0.969  11.676  0.5100  0.7869 -1.1338
   59SAPC   C11 4441   5.085   0.787  11.294  0.3591 -0.1144 -0.2092
   59SAPC  H11A 4442   5.055   0.681  11.311 -1.5066  0.2987 -0.6794
   59SAPC  H11B 4443   5.165   0.785  11.218  1.5997 -0.5652  1.0775
   59SAPC     P 4444   5.024   1.012  11.200 -0.5052 -0.2939 -0.4270
   59SAPC   O13 4445   4.942   1.117  11.262 -0.4605 -0.4420  0.0521
   59SAPC   O14 4446   5.169   1.032  11.226 -0.5049 -0.3390 -0.2185
   59SAPC   O12 4447   4.978   0.872  11.251 -0.3748 -0.1016  0.6641
   59SAPC   O11 4448   5.007   1.019  11.040 -0.0455  0.0433  0.3091
   59SAPC    C1 4449   4.916   0.926  10.978  0.3533  0.4014  0.1591
   59SAPC    HA 4450   4.955   0.822  10.988  0.9344  0.3774 -1.9243
   59SAPC    HB 4451   4.820   0.927  11.033 -0.5783  0.7133 -1.4122
   59SAPC    C2 4452   4.902   0.956  10.830 -0.2890 -0.5197 -0.2329
   59SAPC    HS 4453   4.805   0.916  10.795 -0.9351 -0.5456  1.5147
   59SAPC   O21 4454   5.021   0.882  10.767 -0.0466  0.3319 -0.0997
   59SAPC   C21 4455   4.993   0.783  10.692 -0.2392 -0.3973  1.0652
   59SAPC   O22 4456   4.877   0.754  10.663  0.3243  0.4194 -0.5532
   59SAPC   C22 4457   5.111   0.699  10.654  0.5060  0.0917  0.0237
   59SAPC   H2R 4458   5.203   0.758  10.674  0.1334  0.1006  1.9076
   59SAPC   H2S 4459   5.105   0.606  10.714 -3.4045  0.9408  1.2337
   59SAPC    C3 4460   4.910   1.107  10.784  0.0030  0.2653  0.2288
   59SAPC    HX 4461   5.012   1.144  10.808  0.6687 -0.7584 -0.8807
   59SAPC    HY 4462   4.832   1.158  10.844 -0.6040  1.6309 -1.6102
   59SAPC   O31 4463   4.895   1.131  10.641 -0.8958 -0.6399  0.0050
   59SAPC   C31 4464   4.773   1.167  10.601  0.0723 -0.0722  0.3079
   59SAPC   O32 4465   4.678   1.163  10.674 -0.0870 -0.2234 -0.6858
   59SAPC   C32 4466   4.774   1.202  10.455  0.5261  0.1151  0.0836
   59SAPC   H2X 4467   4.693   1.149  10.400  1.1343  0.8463 -1.5786
   59SAPC   H2Y 4468   4.871   1.173  10.408  1.7725  1.9395  1.3777
   59SAPC   C23 4469   5.093   0.667  10.502 -0.5475  0.4451 -0.7701
   59SAPC   H3R 4470   4.991   0.632  10.479 -0.1097  0.3503 -2.8034
   59SAPC   H3S 4471   5.169   0.588  10.484 -0.4248  0.8556 -2.2668
   59SAPC   C24 4472   5.116   0.788  10.406  0.3853  0.1410 -0.4845
   59SAPC   H4R 4473   5.201   0.853  10.436 -0.3276  1.1071 -0.5081
   59SAPC   H4S 4474   5.023   0.848  10.415 -0.6376 -1.3535 -0.7596
   59SAPC   C25 4475   5.147   0.737  10.263 -0.3528  0.4204  0.0078
   59SAPC   H5R 4476   5.243   0.688  10.244 -1.4287 -2.2287  0.8483
   59SAPC   C26 4477   5.059   0.737  10.161  0.2831  0.1224  0.6650
   59SAPC   H6R 4478   5.096   0.693  10.067 -2.2943 -1.3670  0.2443
   59SAPC   C27 4479   4.916   0.786  10.161  0.0493 -0.9754  0.6907
   59SAPC   H7R 4480   4.868   0.786  10.261 -0.9184 -0.1828  0.2306
   59SAPC   H7S 4481   4.858   0.726  10.087  0.7273 -0.6081 -0.1666
   59SAPC   C28 4482   4.914   0.938  10.123 -0.0053  0.6712 -0.0714
   59SAPC   H8R 4483   4.960   1.005  10.197 -0.7720  1.0868  0.0415
   59SAPC   C29 4484   4.866   0.986  10.012 -0.4086  0.2696  0.0120
   59SAPC   H9R 4485   4.871   1.095  10.004  1.6525  0.0975 -2.0331
   59SAPC  C210 4486   4.804   0.909   9.898 -0.3670 -0.2538 -0.3552
   59SAPC  H10R 4487   4.759   0.982   9.828 -0.1560  0.4801  0.2620
   59SAPC  H10S 4488   4.721   0.850   9.944 -0.4251  0.4442  0.4650
   59SAPC  C211 4489   4.902   0.815   9.826  0.9229 -0.3449  0.6444
   59SAPC  H11R 4490   4.926   0.724   9.883 -1.7425 -0.6221  1.4787
   59SAPC  C212 4491   4.950   0.816   9.701  0.1721 -0.8540 -0.5252
   59SAPC  H12R 4492   5.011   0.729   9.672 -1.9113 -2.6211  0.1018
   59SAPC  C213 4493   4.911   0.925   9.604 -0.2554  0.3800 -0.2006
   59SAPC  H13R 4494   4.995   0.997   9.593 -0.8863  1.7077  2.7424
   59SAPC  H13S 4495   4.823   0.986   9.631  1.1453  2.0455  0.7732
   59SAPC  C214 4496   4.897   0.869   9.464 -0.4922  0.1909 -0.3207
   59SAPC  H14R 4497   4.886   0.760   9.465  1.7012 -0.0622  0.8148
   59SAPC  C215 4498   4.896   0.933   9.349 -0.7869 -0.2351  0.5876
   59SAPC  H15R 4499   4.886   0.871   9.259  0.9058  1.8448 -1.1532
   59SAPC  C216 4500   4.928   1.080   9.322 -0.2972  0.4054  0.0045
   59SAPC  H16R 4501   5.000   1.111   9.401 -3.1857 -0.3792  3.2167
   59SAPC  H16S 4502   4.848   1.156   9.340 -0.0539  0.7985 -0.5408
   59SAPC  C217 4503   4.962   1.120   9.180 -0.1761 -0.0301  0.8464
   59SAPC  H17R 4504   5.052   1.067   9.143  0.9369  1.7971  0.8400
   59SAPC  H17S 4505   4.982   1.229   9.187  1.8365 -0.3622  0.7361
   59SAPC  C218 4506   4.839   1.096   9.083  0.2569  0.2785 -0.7382
   59SAPC  H18R 4507   4.756   1.160   9.118 -0.3626 -0.4256 -0.9021
   59SAPC  H18S 4508   4.800   0.992   9.086  0.3182  0.2692  0.0848
   59SAPC  C219 4509   4.873   1.122   8.942  0.3273 -0.2864 -0.3757
   59SAPC  H19R 4510   4.938   1.043   8.898  1.3394  0.7665 -0.8053
   59SAPC  H19S 4511   4.929   1.217   8.929  0.0874  0.0265  0.7830
   59SAPC  C220 4512   4.740   1.147   8.860 -0.6795 -0.7330  0.7486
   59SAPC  H20R 4513   4.678   1.225   8.909 -1.0924 -0.9519  0.5823
   59SAPC  H20S 4514   4.679   1.054   8.867 -1.4572 -0.4038 -1.0487
   59SAPC  H20T 4515   4.766   1.153   8.752  0.5015  0.1323  1.0661
   59SAPC   C33 4516   4.750   1.353  10.432  0.0963  0.3567 -0.5390
   59SAPC   H3X 4517   4.805   1.416  10.505  1.2548  0.8924 -1.8243
   59SAPC   H3Y 4518   4.642   1.366  10.455 -0.1939  0.5504 -1.8953
   59SAPC   C34 4519   4.775   1.404  10.291 -0.0429 -0.0582  0.2014
   59SAPC   H4X 4520   4.884   1.409  10.273  0.0851  0.9357  1.1579
   59SAPC   H4Y 4521   4.746   1.510  10.271 -0.1277 -0.1921 -0.4112
   59SAPC   C35 4522   4.697   1.328  10.178  0.0974 -0.3403 -0.7093
   59SAPC   H5X 4523   4.594   1.355  10.208  0.7525  3.3274 -1.2151
   59SAPC   H5Y 4524   4.708   1.219  10.190  0.4796 -0.0874  1.8756
   59SAPC   C36 4525   4.729   1.379  10.043  0.2413 -0.4263 -0.0580
   59SAPC   H6X 4526   4.836   1.358  10.020  0.4816  0.4680  0.1901
   59SAPC   H6Y 4527   4.707   1.488  10.032 -1.4122 -0.5322  1.6063
   59SAPC   C37 4528   4.638   1.319   9.924 -0.6201 -0.1376  0.2216
   59SAPC   H7X 4529   4.530   1.329   9.948 -0.3405  0.0078  1.5113
   59SAPC   H7Y 4530   4.668   1.212   9.918 -0.6345 -0.1509  0.3817
   59SAPC   C38 4531   4.667   1.382   9.789  0.3081 -0.6035 -0.0903
   59SAPC   H8X 4532   4.773   1.389   9.758  0.0739  1.2196 -0.6551
   59SAPC   H8Y 4533   4.644   1.491   9.794  3.2844  0.1701 -1.3764
   59SAPC   C39 4534   4.602   1.303   9.673 -0.6826 -0.5316  0.2895
   59SAPC   H9X 4535   4.495   1.329   9.664 -0.7934 -0.4306  1.7003
   59SAPC   H9Y 4536   4.617   1.194   9.685  0.8442 -0.4070 -0.2813
   59SAPC  C310 4537   4.664   1.330   9.532 -0.4755  0.8024 -1.0811
   59SAPC  H10X 4538   4.648   1.238   9.472  1.1486 -0.4639  0.3126
   59SAPC  H10Y 4539   4.772   1.349   9.549 -0.6040  1.8753 -1.4240
   59SAPC  C311 4540   4.613   1.447   9.448 -0.0335 -0.0579  0.5916
   59SAPC  H11X 4541   4.635   1.541   9.504  1.5210  0.0879 -0.2397
   59SAPC  H11Y 4542   4.505   1.424   9.435  0.7343 -3.2391 -0.9275
   59SAPC  C312 4543   4.669   1.454   9.308 -0.1545 -0.1445  0.2207
   59SAPC  H12X 4544   4.661   1.347   9.279  1.3637 -0.0073 -0.7928
   59SAPC  H12Y 4545   4.772   1.495   9.310  0.1358 -0.8615  0.2908
   59SAPC  C313 4546   4.609   1.532   9.190  0.2041 -0.6857 -0.2018
   59SAPC  H13X 4547   4.589   1.637   9.221 -0.1012 -0.2383 -1.8046
   59SAPC  H13Y 4548   4.504   1.503   9.168 -0.4749  1.3394  0.1529
   59SAPC  C314 4549   4.691   1.512   9.062 -0.0465 -0.4348 -0.1537
   59SAPC  H14X 4550   4.718   1.405   9.046  2.6406  0.6836 -5.2363
   59SAPC  H14Y 4551   4.788   1.563   9.076 -0.8422  0.7947  1.2525
   59SAPC  C315 4552   4.633   1.567   8.926  0.3516  0.2091  0.0492
   59SAPC  H15X 4553   4.634   1.674   8.956  0.2079 -0.0832  1.1602
   59SAPC  H15Y 4554   4.526   1.539   8.910  0.2977  0.0827  0.5933
   59SAPC  C316 4555   4.733   1.556   8.813 -0.4987 -0.3382  0.4651
   59SAPC  H16X 4556   4.722   1.452   8.776 -0.1380 -0.6088  1.0983
   59SAPC  H16Y 4557   4.839   1.578   8.838 -0.3221  0.5356 -0.9552
   59SAPC  C317 4558   4.712   1.667   8.712 -0.2088 -0.3005 -0.3212
   59SAPC  H17X 4559   4.786   1.659   8.629  0.4560  3.6070 -0.3368
   59SAPC  H17Y 4560   4.734   1.757   8.773  0.1236 -0.6674  0.1005
   59SAPC  C318 4561   4.568   1.683   8.657 -0.5745 -0.0774  0.1721
   59SAPC  H18X 4562   4.541   1.593   8.596 -0.6895 -1.2235  1.8438
   59SAPC  H18Y 4563   4.565   1.778   8.599  0.1030  0.2676  0.6945
   59SAPC  H18Z 4564   4.495   1.693   8.740  2.0892  0.4152  2.5859
   60SAPC     N 4565   5.698   0.255  10.848  0.6919  0.4386 -0.3487
   60SAPC   C12 4566   5.726   0.286  10.704  0.0704  0.0542  0.2026
   60SAPC  H12A 4567   5.794   0.369  10.703  1.1218 -0.7031  2.6594
   60SAPC  H12B 4568   5.635   0.331  10.667 -0.1545 -0.3710  0.2386
   60SAPC   C13 4569   5.581   0.165  10.869 -0.1897 -0.0821  0.5091
   60SAPC  H13A 4570   5.565   0.140  10.973  1.1636 -1.7920  0.3583
   60SAPC  H13B 4571   5.497   0.224  10.837 -0.3792  0.7057  2.3255
   60SAPC  H13C 4572   5.589   0.070  10.818 -2.1188 -0.0148  0.0095
   60SAPC   C14 4573   5.815   0.176  10.909  0.1077  0.1277  0.4371
   60SAPC  H14A 4574   5.803   0.068  10.904  0.1269  0.0036  2.2785
   60SAPC  H14B 4575   5.910   0.202  10.864  1.0210 -1.0083  1.5911
   60SAPC  H14C 4576   5.830   0.204  11.012  2.1440  1.9001 -0.2540
   60SAPC   C15 4577   5.679   0.383  10.920  0.2018  0.2558 -0.1234
   60SAPC  H15A 4578   5.769   0.443  10.924  0.4746 -0.1300 -0.2899
   60SAPC  H15B 4579   5.604   0.450  10.883  0.6535  0.7274 -0.1993
   60SAPC  H15C 4580   5.663   0.366  11.025  0.2127 -0.3938 -0.2166
   60SAPC   C11 4581   5.773   0.177  10.605 -0.8306  0.0547 -0.5954
   60SAPC  H11A 4582   5.758   0.216  10.502  0.2096 -2.8106 -1.9335
   60SAPC  H11B 4583   5.701   0.093  10.615 -1.2089  0.2149 -1.8655
   60SAPC     P 4584   6.032   0.207  10.588  0.1633 -0.0203 -0.1422
   60SAPC   O13 4585   6.016   0.349  10.623 -0.2799  0.0992  0.2773
   60SAPC   O14 4586   6.147   0.138  10.653  0.2159 -0.1713 -0.3656
   60SAPC   O12 4587   5.901   0.132  10.637  0.3051  0.0430 -0.0405
   60SAPC   O11 4588   6.036   0.198  10.433  0.2639 -0.0434  0.4425
   60SAPC    C1 4589   6.155   0.216  10.351 -0.2386 -0.1100 -0.2533
   60SAPC    HA 4590   6.246   0.193  10.410 -0.5705  1.5218  0.9419
   60SAPC    HB 4591   6.147   0.154  10.259 -0.6165 -0.0606 -0.2557
   60SAPC    C2 4592   6.179   0.367  10.306 -0.2303  0.1155 -0.1269
   60SAPC    HS 4593   6.193   0.437  10.391 -0.0843  1.4245 -1.1943
   60SAPC   O21 4594   6.076   0.405  10.219  0.1690  0.7441  0.4136
   60SAPC   C21 4595   6.090   0.525  10.159 -0.6432  0.5799  0.2209
   60SAPC   O22 4596   6.178   0.604  10.195  0.3128 -0.2913  0.5556
   60SAPC   C22 4597   5.992   0.545  10.038  0.5399 -0.2198 -0.0494
   60SAPC   H2R 4598   5.921   0.462  10.058  0.5451 -0.3191 -0.4421
   60SAPC   H2S 4599   5.945   0.646  10.046  1.2589  0.2326 -1.2992
   60SAPC    C3 4600   6.321   0.367  10.233 -0.1724  0.6276  0.6856
   60SAPC    HX 4601   6.384   0.313  10.308  0.7337 -1.8546 -1.6762
   60SAPC    HY 4602   6.367   0.468  10.225 -0.8950  1.2171  2.9996
   60SAPC   O31 4603   6.306   0.310  10.099 -0.8771  0.3435  0.1143
   60SAPC   C31 4604   6.404   0.223  10.063  0.3463  0.8240  0.2220
   60SAPC   O32 4605   6.495   0.186  10.138  0.0137  0.3668  1.0954
   60SAPC   C32 4606   6.373   0.167   9.927  0.0728  0.6851  0.2518
   60SAPC   H2X 4607   6.272   0.203   9.897 -0.1951 -1.0638 -1.1405
   60SAPC   H2Y 4608   6.359   0.059   9.945 -1.6511  1.0008  0.9695
   60SAPC   C23 4609   6.075   0.514   9.912  0.4678  0.0213  0.4408
   60SAPC   H3R 4610   6.123   0.414   9.923 -0.9761 -0.9010 -1.1901
   60SAPC   H3S 4611   6.160   0.585   9.903 -0.8190  1.5668  0.1905
   60SAPC   C24 4612   6.000   0.496   9.776  0.1660  0.4089  0.0600
   60SAPC   H4R 4613   5.952   0.592   9.747 -1.6297 -0.3981  0.2493
   60SAPC   H4S 4614   5.912   0.431   9.791  0.3973 -0.0399 -0.4720
   60SAPC   C25 4615   6.097   0.446   9.671  0.1187  0.0629 -0.6062
   60SAPC   H5R 4616   6.192   0.407   9.710  0.5951 -0.2609 -2.0278
   60SAPC   C26 4617   6.083   0.465   9.546 -0.1454  0.4176  0.8401
   60SAPC   H6R 4618   6.170   0.441   9.484 -0.0195  1.0447  0.7601
   60SAPC   C27 4619   5.967   0.541   9.480  0.1782  0.4192 -0.0205
   60SAPC   H7R 4620   5.879   0.518   9.543  0.8095  0.0190  0.7401
   60SAPC   H7S 4621   5.947   0.499   9.379  3.1287  0.6682 -0.7927
   60SAPC   C28 4622   5.982   0.685   9.477 -0.2268 -0.3855 -0.2923
   60SAPC   H8R 4623   6.035   0.735   9.560 -2.7383 -0.2394  1.3145
   60SAPC   C29 4624   5.925   0.764   9.379  0.1892  0.5453 -0.8047
   60SAPC   H9R 4625   5.919   0.872   9.398  1.8166  0.6611 -0.7973
   60SAPC  C210 4626   5.852   0.705   9.256  0.6597  0.0562 -0.2028
   60SAPC  H10R 4627   5.909   0.623   9.208 -1.1547 -2.3370  1.5179
   60SAPC  H10S 4628   5.834   0.785   9.181 -2.0255  1.4593  1.7586
   60SAPC  C211 4629   5.712   0.655   9.295 -0.2773  0.5263  0.3887
   60SAPC  H11R 4630   5.682   0.644   9.400 -0.0964  0.0637  0.3953
   60SAPC  C212 4631   5.628   0.595   9.209 -0.2339 -0.1376 -0.5531
   60SAPC  H12R 4632   5.529   0.564   9.246 -0.6988  1.9306  0.0145
   60SAPC  C213 4633   5.664   0.541   9.068  0.6752 -0.4632 -0.4575
   60SAPC  H13R 4634   5.707   0.629   9.016  0.3307  0.0167  0.0465
   60SAPC  H13S 4635   5.571   0.530   9.009  0.2176  1.8261 -0.2898
   60SAPC  C214 4636   5.760   0.428   9.055 -0.5595  0.6173  0.0044
   60SAPC  H14R 4637   5.806   0.391   9.147 -1.8530  0.7237  0.7173
   60SAPC  C215 4638   5.785   0.353   8.951  0.0008 -0.4844 -0.2480
   60SAPC  H15R 4639   5.853   0.266   8.959  0.1469 -0.2603  1.2061
   60SAPC  C216 4640   5.710   0.363   8.816 -0.0348 -0.0727 -0.5849
   60SAPC  H16R 4641   5.770   0.411   8.735  0.1106 -2.5427 -2.0242
   60SAPC  H16S 4642   5.620   0.426   8.833  1.1925  1.8484 -0.8117
   60SAPC  C217 4643   5.659   0.233   8.763 -0.4535  0.4782 -0.1938
   60SAPC  H17R 4644   5.603   0.177   8.841  0.6451 -0.5914 -0.1411
   60SAPC  H17S 4645   5.750   0.174   8.740  0.5793  2.6415 -2.1106
   60SAPC  C218 4646   5.581   0.239   8.627 -0.8804  0.5839 -0.2995
   60SAPC  H18R 4647   5.655   0.249   8.544  0.2539  1.2001  0.7457
   60SAPC  H18S 4648   5.523   0.333   8.618 -3.2055 -0.4720  2.2989
   60SAPC  C219 4649   5.493   0.119   8.585 -0.7360  0.1917 -0.0794
   60SAPC  H19R 4650   5.522   0.019   8.625 -1.6109  0.5361  1.5039
   60SAPC  H19S 4651   5.512   0.107   8.476  2.4111 -1.0459  0.4776
   60SAPC  C220 4652   5.349   0.132   8.604  0.4519 -0.1203 -0.3211
   60SAPC  H20R 4653   5.309   0.210   8.536  1.2617  1.1335  0.5919
   60SAPC  H20S 4654   5.340   0.173   8.707  1.4521 -0.2553 -0.1644
   60SAPC  H20T 4655   5.288   0.040   8.601  1.5143 -0.8322 -1.7062
   60SAPC   C33 4656   6.481   0.196   9.826  0.0341 -0.0937 -0.3616
   60SAPC   H3X 4657   6.579   0.206   9.878  0.7924  2.0873 -2.0471
   60SAPC   H3Y 4658   6.465   0.302   9.794 -1.9497 -0.4983 -0.8511
   60SAPC   C34 4659   6.481   0.106   9.701  0.3986  0.0942 -0.3170
   60SAPC   H4X 4660   6.453   0.002   9.727 -2.4378  1.4791  2.9955
   60SAPC   H4Y 4661   6.582   0.116   9.658 -0.3795 -0.2270 -2.3371
   60SAPC   C35 4662   6.402   0.167   9.581 -0.3506  0.1786  0.0827
   60SAPC   H5X 4663   6.300   0.189   9.616 -0.8196 -1.0381 -0.4483
   60SAPC   H5Y 4664   6.395   0.103   9.490 -0.2609  2.6174 -1.7208
   60SAPC   C36 4665   6.474   0.282   9.509 -0.3918 -0.1405 -0.1161
   60SAPC   H6X 4666   6.585   0.277   9.496 -0.1966 -2.5781  1.7284
   60SAPC   H6Y 4667   6.440   0.374   9.561  0.3375  0.3274 -0.4498
   60SAPC   C37 4668   6.412   0.303   9.373 -0.0215  0.3324  0.3598
   60SAPC   H7X 4669   6.303   0.321   9.387 -0.1163 -0.2321  0.3960
   60SAPC   H7Y 4670   6.414   0.213   9.308  1.5878  1.4032 -1.1701
   60SAPC   C38 4671   6.485   0.407   9.290 -0.6179 -0.3019 -0.6077
   60SAPC   H8X 4672   6.584   0.370   9.253 -0.0751  1.5001 -1.0589
   60SAPC   H8Y 4673   6.511   0.492   9.357 -0.0280 -1.0184  0.0960
   60SAPC   C39 4674   6.395   0.450   9.171 -0.3269 -0.2043 -0.1311
   60SAPC   H9X 4675   6.442   0.546   9.140 -0.7647 -0.3756 -1.3634
   60SAPC   H9Y 4676   6.293   0.477   9.208  0.4687  0.3249  1.8215
   60SAPC  C310 4677   6.368   0.364   9.053  0.2904 -0.1061 -0.4236
   60SAPC  H10X 4678   6.311   0.270   9.073 -1.2026  0.4398 -1.9166
   60SAPC  H10Y 4679   6.465   0.321   9.018  0.7199  0.2868  0.2779
   60SAPC  C311 4680   6.293   0.435   8.934  0.2890  0.1923 -1.0213
   60SAPC  H11X 4681   6.185   0.448   8.955  0.5451  1.1911 -0.2710
   60SAPC  H11Y 4682   6.290   0.357   8.854 -2.5939 -1.6789  0.7167
   60SAPC  C312 4683   6.364   0.545   8.859 -0.3795 -0.4457  0.0711
   60SAPC  H12X 4684   6.375   0.631   8.929 -0.2132 -1.4134  1.2550
   60SAPC  H12Y 4685   6.297   0.581   8.778 -0.8880 -1.4228  0.0473
   60SAPC  C313 4686   6.501   0.521   8.810 -0.6845 -0.0214 -0.3565
   60SAPC  H13X 4687   6.560   0.487   8.898 -1.3481 -2.2299 -0.7017
   60SAPC  H13Y 4688   6.558   0.609   8.773  0.5587 -1.0699 -1.0364
   60SAPC  C314 4689   6.511   0.417   8.698  0.6198 -0.0319 -0.0501
   60SAPC  H14X 4690   6.473   0.316   8.725 -0.8887  0.8765  1.3990
   60SAPC  H14Y 4691   6.615   0.415   8.656  0.4755  2.1410 -0.6363
   60SAPC  C315 4692   6.437   0.459   8.568  0.1491 -0.6220  1.5401
   60SAPC  H15X 4693   6.476   0.559   8.539  0.9512 -1.1745  0.6550
   60SAPC  H15Y 4694   6.331   0.475   8.597 -0.1273 -0.0903  0.3111
   60SAPC  C316 4695   6.457   0.358   8.454  0.2148 -0.0372 -0.7133
   60SAPC  H16X 4696   6.394   0.268   8.473  1.2359 -0.6713 -0.1898
   60SAPC  H16Y 4697   6.563   0.328   8.440  1.1639  2.9135 -0.4625
   60SAPC  C317 4698   6.405   0.421   8.322 -0.2140 -0.8376  0.0841
   60SAPC  H17X 4699   6.296   0.426   8.344  0.1161  0.7435  1.6053
   60SAPC  H17Y 4700   6.422   0.349   8.240 -0.6291  1.0503 -1.7577
   60SAPC  C318 4701   6.450   0.565   8.283 -0.4928 -0.0716 -0.4923
   60SAPC  H18X 4702   6.559   0.553   8.270  0.1395 -2.1612  4.4250
   60SAPC  H18Y 4703   6.432   0.649   8.354  0.5462  3.2959 -3.8795
   60SAPC  H18Z 4704   6.402   0.596   8.188 -0.1175 -0.3230 -0.7647
   61SAPC     N 4705   0.171   5.562  11.084 -0.1926  0.0980  0.0355
   61SAPC   C12 4706   0.062   5.623  11.004 -0.3759  0.0979  0.4341
   61SAPC  H12A 4707  -0.032   5.642  11.054 -2.1547  0.3968 -2.7456
   61SAPC  H12B 4708   0.042   5.563  10.917  0.6318 -0.1041  0.3274
   61SAPC   C13 4709   0.136   5.416  11.115  0.0414  0.1049  0.0754
   61SAPC  H13A 4710   0.108   5.374  11.019  2.9729 -0.3004 -0.6982
   61SAPC  H13B 4711   0.223   5.369  11.160 -0.2765 -0.5977 -0.0271
   61SAPC  H13C 4712   0.058   5.413  11.190  0.1194 -2.0716  0.1443
   61SAPC   C14 4713   0.295   5.550  10.999  0.3370 -0.3087 -0.0967
   61SAPC  H14A 4714   0.373   5.502  11.056  0.1588  0.8531  1.2032
   61SAPC  H14B 4715   0.276   5.511  10.900 -1.5561  3.8472 -1.6013
   61SAPC  H14C 4716   0.332   5.650  10.979 -2.2930  0.1029 -3.8995
   61SAPC   C15 4717   0.213   5.636  11.210 -0.7923 -0.2575 -0.3860
   61SAPC  H15A 4718   0.238   5.736  11.178 -0.7215 -0.2502 -0.3088
   61SAPC  H15B 4719   0.135   5.648  11.284 -0.4823  1.2984 -0.2842
   61SAPC  H15C 4720   0.307   5.601  11.249 -1.6740 -1.3120  0.8703
   61SAPC   C11 4721   0.094   5.760  10.929 -0.4113 -0.5413 -0.2821
   61SAPC  H11A 4722   0.008   5.775  10.860 -1.3307 -0.2121  0.9079
   61SAPC  H11B 4723   0.188   5.747  10.872 -0.6888 -1.4813 -0.5453
   61SAPC     P 4724   0.001   5.950  11.074  0.0793 -0.1244 -0.0884
   61SAPC   O13 4725  -0.125   5.874  11.064 -0.0974 -0.2781 -0.0910
   61SAPC   O14 4726   0.036   6.013  11.201 -0.7067  0.0148  0.4211
   61SAPC   O12 4727   0.115   5.857  11.033  0.8227  0.7905 -0.7462
   61SAPC   O11 4728   0.007   6.071  10.971  0.1205 -0.9584 -0.1008
   61SAPC    C1 4729   0.127   6.151  10.963 -0.1807  0.2074 -0.3248
   61SAPC    HA 4730   0.117   6.235  11.034  0.4165 -0.6669  0.8424
   61SAPC    HB 4731   0.222   6.097  10.984 -0.5689 -0.1424  0.6121
   61SAPC    C2 4732   0.139   6.220  10.820 -0.8856  0.0432 -0.1976
   61SAPC    HS 4733   0.039   6.261  10.792 -0.9955 -0.1166 -0.0421
   61SAPC   O21 4734   0.190   6.120  10.734 -0.3208  0.1067  0.1932
   61SAPC   C21 4735   0.101   6.060  10.665  0.8163  0.4484 -0.6537
   61SAPC   O22 4736  -0.018   6.086  10.654 -0.2065 -0.3558  0.2012
   61SAPC   C22 4737   0.170   5.937  10.598  0.3767 -0.2965 -0.1862
   61SAPC   H2R 4738   0.277   5.969  10.590  0.6974 -1.4496 -0.7429
   61SAPC   H2S 4739   0.171   5.851  10.668 -0.3627  0.3992  0.6958
   61SAPC    C3 4740   0.239   6.339  10.820  0.3106 -0.6023  0.5429
   61SAPC    HX 4741   0.345   6.307  10.831  0.9668  0.7264 -1.3875
   61SAPC    HY 4742   0.201   6.382  10.915  1.7178 -0.4965  1.0744
   61SAPC   O31 4743   0.221   6.438  10.716  0.7521 -0.4576 -0.5772
   61SAPC   C31 4744   0.109   6.508  10.708 -0.7653  0.3765  0.6747
   61SAPC   O32 4745   0.016   6.504  10.778 -0.0212 -0.5527  0.4149
   61SAPC   C32 4746   0.134   6.608  10.590  0.4474 -0.3403 -0.1251
   61SAPC   H2X 4747   0.244   6.605  10.574  0.2354  1.1776 -2.3448
   61SAPC   H2Y 4748   0.092   6.704  10.625  0.4387 -0.5156  0.3524
   61SAPC   C23 4749   0.108   5.904  10.466  0.2367  0.2679  0.1397
   61SAPC   H3R 4750   0.136   5.984  10.394 -0.3864  0.9339  0.6254
   61SAPC   H3S 4751  -0.002   5.898  10.472  0.0732  1.9207 -0.7037
   61SAPC   C24 4752   0.147   5.774  10.394 -0.3299  0.6518  0.1400
   61SAPC   H4R 4753   0.094   5.766  10.296 -1.8629  2.4172  0.7462
   61SAPC   H4S 4754   0.109   5.686  10.450  0.7502  1.3670  2.1050
   61SAPC   C25 4755   0.297   5.774  10.381  0.8886 -0.0058 -0.8857
   61SAPC   H5R 4756   0.350   5.758  10.476 -0.8247 -2.0136 -0.1883
   61SAPC   C26 4757   0.373   5.801  10.275 -0.3673 -0.3014  0.0474
   61SAPC   H6R 4758   0.481   5.808  10.293 -0.3960 -0.0837  0.1375
   61SAPC   C27 4759   0.319   5.834  10.134 -0.5405 -0.0998  0.0107
   61SAPC   H7R 4760   0.241   5.910  10.154 -0.9561  0.5630 -3.4773
   61SAPC   H7S 4761   0.274   5.740  10.094 -0.1539  0.0419 -0.7727
   61SAPC   C28 4762   0.414   5.891  10.033 -0.3146 -0.9713  0.2059
   61SAPC   H8R 4763   0.491   5.956  10.076  1.4206 -1.4809 -1.9464
   61SAPC   C29 4764   0.418   5.873   9.903 -0.4483 -0.8425  0.2949
   61SAPC   H9R 4765   0.500   5.927   9.853 -0.0040  1.7193  3.4566
   61SAPC  C210 4766   0.316   5.791   9.827 -0.4851 -0.2057 -0.3053
   61SAPC  H10R 4767   0.303   5.689   9.869  0.8059 -0.5323 -0.6522
   61SAPC  H10S 4768   0.354   5.769   9.725 -3.2271 -1.8211 -1.0766
   61SAPC  C211 4769   0.188   5.877   9.816  0.6253 -0.2133  0.5108
   61SAPC  H11R 4770   0.144   5.912   9.910 -1.0783  0.3049 -0.4364
   61SAPC  C212 4771   0.124   5.907   9.699 -0.7673 -0.7073  0.0307
   61SAPC  H12R 4772   0.039   5.977   9.700  0.9404  1.5542 -1.2698
   61SAPC  C213 4773   0.157   5.872   9.556 -0.4718 -0.7360  0.5617
   61SAPC  H13R 4774   0.259   5.909   9.530 -0.7192 -1.2484 -1.3413
   61SAPC  H13S 4775   0.088   5.932   9.492 -0.4768 -1.4263 -0.0921
   61SAPC  C214 4776   0.152   5.727   9.520 -0.2057 -0.3726 -0.7172
   61SAPC  H14R 4777   0.085   5.680   9.593 -0.1664 -1.1510 -1.1771
   61SAPC  C215 4778   0.194   5.660   9.408  0.0348 -0.5592 -1.0460
   61SAPC  H15R 4779   0.173   5.552   9.396  2.8667 -1.1696 -1.2326
   61SAPC  C216 4780   0.267   5.715   9.292  0.1452 -0.2736 -0.1327
   61SAPC  H16R 4781   0.363   5.659   9.294  0.2043 -0.1666  0.1187
   61SAPC  H16S 4782   0.293   5.821   9.312  0.1481 -0.7834  3.2355
   61SAPC  C217 4783   0.202   5.699   9.162 -0.3494 -0.1389 -0.7043
   61SAPC  H17R 4784   0.158   5.597   9.160 -1.6053  0.3747 -0.2155
   61SAPC  H17S 4785   0.271   5.716   9.077  1.1576  1.5645  0.7677
   61SAPC  C218 4786   0.092   5.805   9.142  0.1575  0.2296 -0.3478
   61SAPC  H18R 4787   0.148   5.901   9.137  1.1838 -0.3494 -0.2528
   61SAPC  H18S 4788   0.021   5.811   9.228 -0.1571 -2.0384 -0.3908
   61SAPC  C219 4789  -0.004   5.785   9.026 -0.4851 -0.1160 -0.4118
   61SAPC  H19R 4790  -0.075   5.870   9.019 -1.7522 -1.2763 -3.5547
   61SAPC  H19S 4791  -0.060   5.690   9.037  0.9285 -0.7199  2.5490
   61SAPC  C220 4792   0.070   5.771   8.892 -0.5316  0.2225  0.1724
   61SAPC  H20R 4793   0.123   5.673   8.896 -1.0307 -0.1207 -1.1697
   61SAPC  H20S 4794   0.138   5.856   8.871  2.0681 -1.4025  1.4424
   61SAPC  H20T 4795  -0.006   5.765   8.812  1.9908  0.3084 -2.4110
   61SAPC   C33 4796   0.052   6.563  10.473  0.2220  0.3415  1.0954
   61SAPC   H3X 4797  -0.052   6.542  10.504  0.2692  0.0107  1.0437
   61SAPC   H3Y 4798   0.079   6.459  10.442 -2.7651 -0.7656  1.8778
   61SAPC   C34 4799   0.052   6.660  10.351  0.3206  0.4473  0.1078
   61SAPC   H4X 4800   0.156   6.700  10.343  1.3093 -1.9810  0.0741
   61SAPC   H4Y 4801  -0.008   6.748  10.382  1.3497  1.5477 -0.9019
   61SAPC   C35 4802  -0.001   6.597  10.217 -0.5044 -0.0044 -0.1661
   61SAPC   H5X 4803  -0.107   6.567  10.235 -0.8772  2.0601  1.5888
   61SAPC   H5Y 4804   0.046   6.504  10.181  0.4183 -0.2955  1.7001
   61SAPC   C36 4805   0.002   6.715  10.110  0.0498  0.4484  0.1788
   61SAPC   H6X 4806   0.103   6.755  10.128  0.5061 -0.3840 -0.4551
   61SAPC   H6Y 4807  -0.068   6.794  10.147  0.2683  0.4433  0.6136
   61SAPC   C37 4808  -0.040   6.683   9.968 -0.0990  0.2910 -0.0431
   61SAPC   H7X 4809  -0.019   6.777   9.914 -0.6920  0.2244 -0.3938
   61SAPC   H7Y 4810  -0.147   6.654   9.965 -0.3589  1.2479 -0.0863
   61SAPC   C38 4811   0.046   6.570   9.902  0.3918  0.1789 -0.0625
   61SAPC   H8X 4812   0.013   6.474   9.946 -3.2041  1.4680  0.3286
   61SAPC   H8Y 4813   0.152   6.600   9.919  0.5382  0.0198 -0.6808
   61SAPC   C39 4814   0.012   6.556   9.754 -0.1262  0.1698 -0.1784
   61SAPC   H9X 4815  -0.090   6.515   9.737  0.3053  0.2716 -3.7505
   61SAPC   H9Y 4816   0.071   6.476   9.704  1.4909  1.0975  0.1755
   61SAPC  C310 4817   0.025   6.685   9.673  0.2043 -0.3040 -0.6637
   61SAPC  H10X 4818   0.118   6.736   9.705  0.3269 -0.6757 -0.4346
   61SAPC  H10Y 4819  -0.058   6.754   9.702  2.1546  1.8921  0.0441
   61SAPC  C311 4820   0.023   6.677   9.523  0.5954  0.0920 -0.2785
   61SAPC  H11X 4821  -0.053   6.598   9.506 -0.9513  1.0303  1.7990
   61SAPC  H11Y 4822   0.118   6.633   9.486  0.1207  0.0948 -1.5486
   61SAPC  C312 4823  -0.014   6.799   9.446 -0.1608  0.1077 -0.4022
   61SAPC  H12X 4824   0.080   6.859   9.440 -0.9349  1.3721 -0.1836
   61SAPC  H12Y 4825  -0.091   6.861   9.497  1.4965  1.2740  0.8368
   61SAPC  C313 4826  -0.052   6.767   9.302 -0.1385 -0.7237  0.3074
   61SAPC  H13X 4827  -0.158   6.734   9.296 -1.0013  1.8842 -0.0045
   61SAPC  H13Y 4828   0.009   6.679   9.269 -1.1795 -1.3589  0.0173
   61SAPC  C314 4829  -0.045   6.891   9.210  0.0575 -0.1866 -0.0789
   61SAPC  H14X 4830   0.050   6.947   9.222 -0.7546  1.5364 -1.2476
   61SAPC  H14Y 4831  -0.126   6.965   9.231  0.1849 -0.0021 -0.2300
   61SAPC  C315 4832  -0.063   6.865   9.063 -0.2915  0.2320 -0.1564
   61SAPC  H15X 4833  -0.053   6.959   9.005 -2.7260 -0.4714 -1.8714
   61SAPC  H15Y 4834  -0.157   6.813   9.036 -1.1535  1.5788  0.1738
   61SAPC  C316 4835   0.058   6.775   9.014 -0.5921 -0.1730 -0.2261
   61SAPC  H16X 4836   0.069   6.689   9.084  0.2117  0.7455  0.8102
   61SAPC  H16Y 4837   0.145   6.836   9.047 -1.4079  1.2023 -0.5415
   61SAPC  C317 4838   0.047   6.728   8.868 -0.1818 -0.4338 -0.1016
   61SAPC  H17X 4839   0.023   6.819   8.809 -1.9846  0.0934  1.3702
   61SAPC  H17Y 4840  -0.036   6.654   8.864 -0.0512 -0.6275  0.6271
   61SAPC  C318 4841   0.176   6.679   8.807 -0.0380  0.1269 -1.0235
   61SAPC  H18X 4842   0.178   6.570   8.830 -3.8933  0.5437  2.4871
   61SAPC  H18Y 4843   0.270   6.717   8.853 -0.8603  0.3212  0.6061
   61SAPC  H18Z 4844   0.186   6.687   8.697  1.2408  2.4579 -0.7994
   62SAPC     N 4845   5.076   4.253  10.704  0.3674  0.6396 -1.1981
   62SAPC   C12 4846   5.168   4.371  10.733  0.2193 -0.7257 -0.2628
   62SAPC  H12A 4847   5.108   4.446  10.783 -1.2727 -2.0739  0.0774
   62SAPC  H12B 4848   5.194   4.418  10.640 -0.0075  1.4380  0.7122
   62SAPC   C13 4849   5.025   4.193  10.831 -0.6717 -0.1348  0.0217
   62SAPC  H13A 4850   5.104   4.155  10.894  1.5450  0.5912 -2.1438
   62SAPC  H13B 4851   4.984   4.270  10.893  1.0524  0.1923  0.8193
   62SAPC  H13C 4852   4.961   4.110  10.805  0.3780 -0.2093 -2.6228
   62SAPC   C14 4853   4.950   4.292  10.626 -0.4404 -0.1397  0.6169
   62SAPC  H14A 4854   4.972   4.350  10.537 -2.8513 -2.0568 -1.3684
   62SAPC  H14B 4855   4.890   4.205  10.607 -0.9908  0.4390 -0.3961
   62SAPC  H14C 4856   4.880   4.348  10.686 -0.8559  0.1502 -0.1283
   62SAPC   C15 4857   5.150   4.151  10.635 -0.8986 -0.2588  0.9714
   62SAPC  H15A 4858   5.248   4.133  10.679  0.2759  0.4115 -1.2277
   62SAPC  H15B 4859   5.104   4.054  10.640 -0.0202 -0.6352  3.6550
   62SAPC  H15C 4860   5.184   4.191  10.541 -1.8135  1.0796  1.1830
   62SAPC   C11 4861   5.293   4.349  10.820  0.1513 -0.3062  0.2341
   62SAPC  H11A 4862   5.282   4.283  10.908  0.8330 -0.3691  0.2739
   62SAPC  H11B 4863   5.343   4.446  10.843 -0.9849  0.4319 -0.3077
   62SAPC     P 4864   5.480   4.335  10.638  0.1523  0.0823  0.0908
   62SAPC   O13 4865   5.611   4.361  10.697  0.3767  0.1963 -0.1690
   62SAPC   O14 4866   5.482   4.246  10.520  0.4854  0.4426  0.1001
   62SAPC   O12 4867   5.386   4.277  10.746  0.5404 -1.1476  0.2066
   62SAPC   O11 4868   5.420   4.478  10.599 -0.3042 -0.4376 -0.0684
   62SAPC    C1 4869   5.345   4.482  10.471  0.1321 -0.3132  0.3032
   62SAPC    HA 4870   5.287   4.389  10.453  0.1505 -0.0813 -1.0689
   62SAPC    HB 4871   5.272   4.565  10.479  1.5260  0.9164  0.6932
   62SAPC    C2 4872   5.439   4.502  10.352  0.3920  0.0098 -0.4965
   62SAPC    HS 4873   5.498   4.409  10.337  0.0722 -0.3775  0.6041
   62SAPC   O21 4874   5.526   4.617  10.369  0.0134  0.2663  0.0927
   62SAPC   C21 4875   5.649   4.604  10.334  0.3922 -0.5864  0.0712
   62SAPC   O22 4876   5.697   4.500  10.285  0.0070 -0.2548 -0.9431
   62SAPC   C22 4877   5.718   4.739  10.363 -0.2457  1.2073  0.2185
   62SAPC   H2R 4878   5.700   4.761  10.470 -1.6001  1.4281 -0.0333
   62SAPC   H2S 4879   5.825   4.716  10.347 -0.5218  1.5279 -2.5625
   62SAPC    C3 4880   5.356   4.540  10.225  0.3000 -0.1130  0.3282
   62SAPC    HX 4881   5.324   4.646  10.234  2.9668  0.7402  0.3933
   62SAPC    HY 4882   5.259   4.486  10.217 -0.6895  1.4995  0.8642
   62SAPC   O31 4883   5.444   4.533  10.108  0.0499  0.3937 -0.9060
   62SAPC   C31 4884   5.469   4.407  10.073  0.2743 -0.1782 -0.2902
   62SAPC   O32 4885   5.416   4.310  10.123 -0.0222  0.2015 -0.3196
   62SAPC   C32 4886   5.580   4.410   9.968  0.3976  0.5193 -0.0891
   62SAPC   H2X 4887   5.657   4.476  10.011  0.3614 -0.8939  2.3056
   62SAPC   H2Y 4888   5.537   4.448   9.873 -1.4997 -0.9053  0.1421
   62SAPC   C23 4889   5.672   4.841  10.260 -0.5697  0.5163 -0.5327
   62SAPC   H3R 4890   5.698   4.939  10.304  0.4992  0.3785 -0.8332
   62SAPC   H3S 4891   5.561   4.839  10.250 -1.0671  3.7019  2.5528
   62SAPC   C24 4892   5.745   4.824  10.122 -0.4223  0.9053 -0.2362
   62SAPC   H4R 4893   5.750   4.715  10.099  1.0673  0.5171  1.7218
   62SAPC   H4S 4894   5.851   4.854  10.137 -0.1839 -0.1746  0.3480
   62SAPC   C25 4895   5.703   4.922  10.013 -0.1799  0.1418 -0.1634
   62SAPC   H5R 4896   5.691   5.026  10.049  1.0405 -0.2376  1.4546
   62SAPC   C26 4897   5.672   4.890   9.885 -0.1584 -0.1991  0.7476
   62SAPC   H6R 4898   5.642   4.972   9.818 -2.1802  0.6127  2.5307
   62SAPC   C27 4899   5.673   4.755   9.827  0.2439  0.5635  0.0065
   62SAPC   H7R 4900   5.671   4.677   9.906 -0.8302 -1.0315 -1.4986
   62SAPC   H7S 4901   5.770   4.741   9.774  0.1230 -1.3010  0.2221
   62SAPC   C28 4902   5.563   4.730   9.725 -0.0885  0.5173  0.7560
   62SAPC   H8R 4903   5.471   4.691   9.772 -0.7652  0.1801 -0.7873
   62SAPC   C29 4904   5.578   4.743   9.591 -0.1965 -0.8659  0.2356
   62SAPC   H9R 4905   5.493   4.710   9.529 -0.0500 -0.5064 -0.1587
   62SAPC  C210 4906   5.696   4.780   9.509  0.0711 -0.2983  0.1945
   62SAPC  H10R 4907   5.757   4.691   9.484  0.8960  0.5110 -0.8053
   62SAPC  H10S 4908   5.764   4.840   9.574  0.6722 -1.2646  0.4823
   62SAPC  C211 4909   5.663   4.854   9.385 -0.8145  0.0735 -0.0150
   62SAPC  H11R 4910   5.605   4.945   9.409  0.6489  0.5400  1.9667
   62SAPC  C212 4911   5.709   4.835   9.261 -0.8238  0.6641  0.0835
   62SAPC  H12R 4912   5.671   4.897   9.179  0.2873  1.4572  0.1522
   62SAPC  C213 4913   5.806   4.724   9.219  0.3452 -0.4690  0.4629
   62SAPC  H13R 4914   5.792   4.625   9.269  2.6480 -0.4246  1.2969
   62SAPC  H13S 4915   5.908   4.757   9.248 -0.7899  2.5352  1.3569
   62SAPC  C214 4916   5.807   4.704   9.073 -0.5092 -0.6931 -0.0716
   62SAPC  H14R 4917   5.902   4.709   9.018  0.1177 -0.7319  0.9946
   62SAPC  C215 4918   5.701   4.694   8.994  0.1124  0.3593  0.6332
   62SAPC  H15R 4919   5.708   4.692   8.884 -3.1689  1.5226  0.2901
   62SAPC  C216 4920   5.556   4.690   9.032  0.2713  0.4386  0.6681
   62SAPC  H16R 4921   5.504   4.767   8.971  1.2530  0.8477  0.3274
   62SAPC  H16S 4922   5.525   4.720   9.134  0.0720 -0.4548  0.8769
   62SAPC  C217 4923   5.505   4.548   9.010 -0.0602  0.2488 -0.0704
   62SAPC  H17R 4924   5.561   4.476   9.073  1.0140 -0.2615 -1.5474
   62SAPC  H17S 4925   5.511   4.512   8.905  1.2267 -0.7466  0.3172
   62SAPC  C218 4926   5.351   4.557   9.036 -0.1976 -0.1406  0.0301
   62SAPC  H18R 4927   5.308   4.636   8.970  1.5205 -1.2003 -2.5382
   62SAPC  H18S 4928   5.335   4.571   9.145  0.6891 -1.9586  0.4376
   62SAPC  C219 4929   5.290   4.419   8.993  0.3089 -0.0691  0.5675
   62SAPC  H19R 4930   5.317   4.347   9.074  0.3670 -1.6361 -0.7790
   62SAPC  H19S 4931   5.323   4.384   8.893 -1.8527 -0.6482  0.0034
   62SAPC  C220 4932   5.136   4.409   8.983  0.4405  0.2919  0.2646
   62SAPC  H20R 4933   5.077   4.435   9.073 -1.1999 -1.9921 -0.0755
   62SAPC  H20S 4934   5.108   4.308   8.946  0.4059  0.5533 -0.4467
   62SAPC  H20T 4935   5.101   4.474   8.900 -0.6583 -1.6139 -0.8098
   62SAPC   C33 4936   5.632   4.267   9.941  0.5425 -0.2140  0.5006
   62SAPC   H3X 4937   5.697   4.277   9.851 -1.7808 -0.3150 -1.3011
   62SAPC   H3Y 4938   5.560   4.189   9.909  0.8453 -0.2721 -0.0579
   62SAPC   C34 4939   5.709   4.216  10.054  0.1435  0.1348 -0.2927
   62SAPC   H4X 4940   5.633   4.184  10.129  0.2780  0.4414 -0.0222
   62SAPC   H4Y 4941   5.771   4.294  10.102 -0.2859 -0.6096  1.5717
   62SAPC   C35 4942   5.798   4.096  10.032 -0.5641  0.2121  0.2462
   62SAPC   H5X 4943   5.741   4.023   9.971 -0.1476 -0.8644  1.0961
   62SAPC   H5Y 4944   5.820   4.044  10.128 -0.5401  0.0384  0.1466
   62SAPC   C36 4945   5.924   4.141   9.968  0.5503 -0.4696  1.0242
   62SAPC   H6X 4946   5.969   4.219  10.034  0.4949  2.1098 -1.7677
   62SAPC   H6Y 4947   5.912   4.198   9.874  2.3467 -1.9851 -0.1961
   62SAPC   C37 4948   6.016   4.028   9.939  0.1411  0.1075 -0.2967
   62SAPC   H7X 4949   5.963   3.985   9.851  0.1561  2.9087 -1.7967
   62SAPC   H7Y 4950   6.033   3.950  10.016  0.3530 -1.1008 -1.5426
   62SAPC   C38 4951   6.155   4.079   9.884 -0.5524  0.1050  0.6651
   62SAPC   H8X 4952   6.230   4.000   9.905 -1.9735 -2.0132 -1.6753
   62SAPC   H8Y 4953   6.172   4.173   9.940 -0.9800  1.5076 -1.4332
   62SAPC   C39 4954   6.152   4.108   9.734 -0.4514  0.2248 -0.1997
   62SAPC   H9X 4955   6.063   4.169   9.705  0.7233  2.6593  0.9860
   62SAPC   H9Y 4956   6.155   4.012   9.680 -3.3977  1.2097 -2.4195
   62SAPC  C310 4957   6.278   4.178   9.682  0.2857  0.0648 -0.5088
   62SAPC  H10X 4958   6.366   4.143   9.740  0.4981 -2.4168 -2.1639
   62SAPC  H10Y 4959   6.265   4.288   9.693 -2.6111  0.1465 -3.2261
   62SAPC  C311 4960   6.298   4.137   9.536 -0.3284 -0.6442 -1.0708
   62SAPC  H11X 4961   6.206   4.149   9.474 -0.1507 -0.0729 -1.2354
   62SAPC  H11Y 4962   6.329   4.031   9.545 -0.1045 -0.3821  2.2721
   62SAPC  C312 4963   6.411   4.208   9.464 -0.2284 -0.2946  0.5287
   62SAPC  H12X 4964   6.507   4.182   9.515 -0.0384 -1.3744 -0.3446
   62SAPC  H12Y 4965   6.379   4.313   9.482 -2.8271 -0.9122 -0.1033
   62SAPC  C313 4966   6.417   4.166   9.307  0.2748 -0.4660 -0.1897
   62SAPC  H13X 4967   6.316   4.182   9.264  0.2111 -2.0552 -0.6813
   62SAPC  H13Y 4968   6.437   4.057   9.312 -1.6028 -0.8260  0.1987
   62SAPC  C314 4969   6.517   4.253   9.232  0.7396  0.1932 -0.1359
   62SAPC  H14X 4970   6.601   4.263   9.305  0.7754  0.6906 -0.2367
   62SAPC  H14Y 4971   6.488   4.359   9.213  0.4051  0.2993  0.8594
   62SAPC  C315 4972   6.562   4.180   9.108  0.4576 -0.5806  0.1668
   62SAPC  H15X 4973   6.584   4.074   9.135  1.0800 -0.5918 -0.3799
   62SAPC  H15Y 4974   6.661   4.207   9.068 -0.1264  1.2984 -0.0942
   62SAPC  C316 4975   6.466   4.164   8.990 -0.1455  0.0942 -0.8921
   62SAPC  H16X 4976   6.426   4.268   8.986 -0.5885 -0.1031 -1.8574
   62SAPC  H16Y 4977   6.382   4.095   9.011  0.6495  0.3982  5.0756
   62SAPC  C317 4978   6.540   4.140   8.857 -0.0125 -0.9732  0.3290
   62SAPC  H17X 4979   6.592   4.042   8.853 -0.5617 -1.3485  1.7466
   62SAPC  H17Y 4980   6.621   4.215   8.844  0.3016 -0.9643  2.1211
   62SAPC  C318 4981   6.442   4.148   8.732  0.2873  1.0291 -1.1775
   62SAPC  H18X 4982   6.378   4.238   8.746  0.2695  0.7227  1.0578
   62SAPC  H18Y 4983   6.380   4.056   8.731  0.5113  0.8545 -0.1334
   62SAPC  H18Z 4984   6.499   4.165   8.637  1.6154 -1.1224 -0.8392
   63SAPC     N 4985   3.054   3.020   6.080  0.3121 -0.2593  0.3872
   63SAPC   C12 4986   3.063   3.098   6.208  0.3986  0.0562  0.2402
   63SAPC  H12A 4987   3.153   3.159   6.208  0.4139  0.0986 -1.9525
   63SAPC  H12B 4988   3.054   3.030   6.291 -1.7680  0.5858  0.4882
   63SAPC   C13 4989   3.039   3.115   5.963 -0.2473  0.1158  0.2085
   63SAPC  H13A 4990   3.000   3.061   5.878 -0.8187  0.7741  0.0424
   63SAPC  H13B 4991   2.970   3.192   5.992  0.2871  1.0901 -1.0077
   63SAPC  H13C 4992   3.135   3.160   5.941 -0.4092  0.5420  0.3801
   63SAPC   C14 4993   3.177   2.942   6.052 -0.0033 -0.0646 -0.3859
   63SAPC  H14A 4994   3.267   3.001   6.059  1.1474 -1.7908 -0.1221
   63SAPC  H14B 4995   3.182   2.867   6.130  1.4370  0.6637  0.2678
   63SAPC  H14C 4996   3.175   2.910   5.949 -0.5607  2.3976 -1.2241
   63SAPC   C15 4997   2.939   2.925   6.084 -0.1188  0.0919 -0.1409
   63SAPC  H15A 4998   2.851   2.965   6.131 -0.0641  0.1545 -0.0905
   63SAPC  H15B 4999   2.908   2.894   5.986 -1.0389 -0.8777  0.4418
   63SAPC  H15C 5000   2.956   2.832   6.136  0.7160  1.6901  2.6415
   63SAPC   C11 5001   2.944   3.184   6.252  0.5634  0.1659 -0.0645
   63SAPC  H11A 5002   2.916   3.262   6.179 -1.9376 -0.0650  0.5435
   63SAPC  H11B 5003   2.979   3.239   6.342 -1.8345 -1.2847  1.8911
   63SAPC     P 5004   2.842   3.006   6.419 -0.2868 -0.0104  0.0044
   63SAPC   O13 5005   2.785   2.874   6.379  0.4703 -0.0485  0.1553
   63SAPC   O14 5006   2.982   3.009   6.476  0.1078  0.1860  0.4344
   63SAPC   O12 5007   2.836   3.101   6.290 -0.2672  0.0567  0.6143
   63SAPC   O11 5008   2.747   3.079   6.522  0.2921 -0.1051 -0.1235
   63SAPC    C1 5009   2.748   3.220   6.543  0.5151 -0.1507  0.4870
   63SAPC    HA 5010   2.846   3.263   6.571 -0.3604  2.2211  0.1137
   63SAPC    HB 5011   2.717   3.272   6.450  2.4150 -0.5920 -0.4387
   63SAPC    C2 5012   2.652   3.266   6.658 -0.0610 -1.1352  0.0139
   63SAPC    HS 5013   2.650   3.377   6.654 -0.1961 -1.1350  0.0910
   63SAPC   O21 5014   2.696   3.208   6.784  0.4116  0.1971  0.3206
   63SAPC   C21 5015   2.780   3.286   6.855 -0.3161 -0.2221 -0.0583
   63SAPC   O22 5016   2.809   3.403   6.825 -0.5115  0.0818 -0.1342
   63SAPC   C22 5017   2.836   3.214   6.975 -0.5778 -0.1635 -0.1770
   63SAPC   H2R 5018   2.904   3.289   7.022  2.3849 -2.0743 -1.0981
   63SAPC   H2S 5019   2.768   3.174   7.054 -1.0823 -1.0388 -1.0357
   63SAPC    C3 5020   2.511   3.214   6.633  0.1086 -0.3313  0.2159
   63SAPC    HX 5021   2.509   3.103   6.635  0.7472 -0.3609 -0.2944
   63SAPC    HY 5022   2.477   3.249   6.533 -4.1404 -0.2198  1.4991
   63SAPC   O31 5023   2.416   3.249   6.733  0.2630  0.3170  0.4646
   63SAPC   C31 5024   2.400   3.383   6.751 -0.2014  0.2606 -0.2377
   63SAPC   O32 5025   2.443   3.473   6.682  0.0300 -0.8237  0.5964
   63SAPC   C32 5026   2.327   3.391   6.888 -0.6688  0.4253  0.3221
   63SAPC   H2X 5027   2.244   3.318   6.891  0.4021 -0.8388  0.3412
   63SAPC   H2Y 5028   2.284   3.493   6.899 -3.1044 -0.4392 -0.7264
   63SAPC   C23 5029   2.930   3.099   6.932  0.0880 -0.6918 -0.9594
   63SAPC   H3R 5030   2.987   3.113   6.837  0.5374 -1.8669 -0.8767
   63SAPC   H3S 5031   2.856   3.016   6.926 -0.0938 -0.8197  1.9818
   63SAPC   C24 5032   3.027   3.068   7.046 -0.7158 -0.8331  0.2106
   63SAPC   H4R 5033   3.085   3.152   7.090 -3.5885  0.9894  0.7549
   63SAPC   H4S 5034   3.117   3.015   7.008  0.5263  1.0546  0.3988
   63SAPC   C25 5035   2.955   2.990   7.161 -0.3099  0.1214 -0.3223
   63SAPC   H5R 5036   2.916   2.892   7.130 -0.4597  0.7180 -2.1180
   63SAPC   C26 5037   2.935   3.034   7.289 -0.4892 -0.1444  0.3383
   63SAPC   H6R 5038   2.888   2.966   7.362  0.8372 -0.4826  0.9165
   63SAPC   C27 5039   2.976   3.169   7.348 -0.1681  0.4283  0.1668
   63SAPC   H7R 5040   3.024   3.229   7.268 -0.1659  2.3777  1.5563
   63SAPC   H7S 5041   3.050   3.154   7.429 -0.7229 -0.8970  0.4585
   63SAPC   C28 5042   2.854   3.239   7.397  0.2783 -0.6665  0.7068
   63SAPC   H8R 5043   2.809   3.312   7.328  1.9590 -0.5770 -0.3448
   63SAPC   C29 5044   2.809   3.238   7.527  0.0815 -0.1799  0.2039
   63SAPC   H9R 5045   2.710   3.283   7.543 -1.1662 -2.4173 -0.7335
   63SAPC  C210 5046   2.878   3.167   7.641 -0.5230  0.3020  0.1137
   63SAPC  H10R 5047   2.989   3.168   7.628 -0.5704  2.0690 -0.4505
   63SAPC  H10S 5048   2.839   3.063   7.650 -0.7694  0.2441 -1.4143
   63SAPC  C211 5049   2.865   3.265   7.753 -0.1301 -1.3817 -1.1203
   63SAPC  H11R 5050   2.886   3.370   7.725 -1.4930 -1.1669 -1.4077
   63SAPC  C212 5051   2.838   3.255   7.884  0.1087  0.2633  0.1898
   63SAPC  H12R 5052   2.836   3.343   7.950 -1.0753  0.7245 -0.4479
   63SAPC  C213 5053   2.806   3.123   7.954 -0.3186 -0.5995  0.3869
   63SAPC  H13R 5054   2.709   3.084   7.916  0.4237 -0.1772 -2.0925
   63SAPC  H13S 5055   2.789   3.146   8.061  0.6716  0.1385  0.3959
   63SAPC  C214 5056   2.920   3.027   7.941 -0.8459 -0.8881 -0.3773
   63SAPC  H14R 5057   3.020   3.072   7.935  0.0305 -2.7621 -0.8002
   63SAPC  C215 5058   2.906   2.893   7.942 -0.2050  0.3789  0.0409
   63SAPC  H15R 5059   2.999   2.835   7.947  0.5787  1.7009  1.7444
   63SAPC  C216 5060   2.777   2.816   7.947  0.9538 -0.0742 -0.2466
   63SAPC  H16R 5061   2.695   2.869   8.002 -1.5466 -2.1773 -1.7244
   63SAPC  H16S 5062   2.795   2.721   8.002  1.6701 -1.1779 -2.3163
   63SAPC  C217 5063   2.727   2.761   7.814  0.3819  0.2536  0.4295
   63SAPC  H17R 5064   2.710   2.847   7.746  0.1731 -0.1739 -0.0667
   63SAPC  H17S 5065   2.627   2.715   7.832 -0.2754  1.1855 -0.6628
   63SAPC  C218 5066   2.813   2.654   7.755  0.6731  0.4330 -0.2252
   63SAPC  H18R 5067   2.833   2.583   7.837  2.0479  1.2200  0.1541
   63SAPC  H18S 5068   2.912   2.691   7.722  1.5840  0.2877  2.1596
   63SAPC  C219 5069   2.746   2.578   7.642 -0.5053  0.7098  0.5627
   63SAPC  H19R 5070   2.737   2.654   7.561  0.1080  3.2210  2.6953
   63SAPC  H19S 5071   2.650   2.535   7.677  0.5557 -2.1674  0.2112
   63SAPC  C220 5072   2.826   2.461   7.579 -0.1954 -0.3801  0.2626
   63SAPC  H20R 5073   2.834   2.367   7.637  0.0193 -0.0070  0.8364
   63SAPC  H20S 5074   2.927   2.492   7.545  0.2876 -0.6006  1.4799
   63SAPC  H20T 5075   2.767   2.429   7.491 -1.4066 -1.0080  1.2766
   63SAPC   C33 5076   2.422   3.346   7.006  0.1796  0.2597  1.0539
   63SAPC   H3X 5077   2.510   3.414   7.002  0.7704 -0.4933  1.1215
   63SAPC   H3Y 5078   2.462   3.243   6.995  1.5154  0.7125  1.4886
   63SAPC   C34 5079   2.352   3.327   7.139  0.0622 -0.7816 -0.0117
   63SAPC   H4X 5080   2.273   3.251   7.117 -1.4146  1.0165 -1.1964
   63SAPC   H4Y 5081   2.295   3.421   7.152  1.4727 -0.0187  0.8289
   63SAPC   C35 5082   2.453   3.303   7.252 -0.1547 -0.2007 -0.2100
   63SAPC   H5X 5083   2.518   3.392   7.261 -0.0060 -0.2430 -0.8140
   63SAPC   H5Y 5084   2.520   3.217   7.231  1.7726  1.0688  0.4971
   63SAPC   C36 5085   2.392   3.279   7.394 -0.2517  0.5414  0.6386
   63SAPC   H6X 5086   2.439   3.192   7.446  0.6741  0.2836 -0.5897
   63SAPC   H6Y 5087   2.285   3.248   7.388 -0.3849  0.9777  0.7544
   63SAPC   C37 5088   2.397   3.414   7.474  0.0588  0.3241 -0.7724
   63SAPC   H7X 5089   2.346   3.493   7.415 -0.0045  0.9512  0.1053
   63SAPC   H7Y 5090   2.504   3.444   7.479  0.4594 -1.0831 -0.5914
   63SAPC   C38 5091   2.331   3.405   7.614  0.4582 -0.2595  0.5726
   63SAPC   H8X 5092   2.354   3.304   7.653  0.4506 -0.4104  0.1856
   63SAPC   H8Y 5093   2.220   3.413   7.609  0.5264  0.1717 -0.4338
   63SAPC   C39 5094   2.391   3.507   7.716  0.8572  0.2542  0.1736
   63SAPC   H9X 5095   2.373   3.612   7.685 -2.4859 -0.6965 -1.6580
   63SAPC   H9Y 5096   2.499   3.485   7.720  0.3939 -2.4432 -0.2789
   63SAPC  C310 5097   2.331   3.494   7.860 -0.1542 -0.4890  0.5426
   63SAPC  H10X 5098   2.350   3.392   7.900 -0.4078 -0.2531  1.2869
   63SAPC  H10Y 5099   2.222   3.513   7.854 -0.1524 -0.4744  0.5625
   63SAPC  C311 5100   2.409   3.595   7.952 -0.2636  0.2028  0.2274
   63SAPC  H11X 5101   2.400   3.697   7.908 -2.9102  0.1067  0.3546
   63SAPC  H11Y 5102   2.514   3.564   7.969  0.4530  1.0389 -2.2069
   63SAPC  C312 5103   2.347   3.610   8.093  0.1182 -0.1308 -0.3676
   63SAPC  H12X 5104   2.238   3.627   8.085  0.1118  0.5710  0.9192
   63SAPC  H12Y 5105   2.392   3.699   8.141  0.2776 -1.4046  1.9839
   63SAPC  C313 5106   2.384   3.482   8.176 -0.4139 -0.4357  0.0278
   63SAPC  H13X 5107   2.489   3.448   8.166 -0.4342 -1.0220  1.5085
   63SAPC  H13Y 5108   2.333   3.393   8.132 -1.5820  0.8083 -1.2237
   63SAPC  C314 5109   2.358   3.495   8.324 -0.3876 -0.4578 -0.0902
   63SAPC  H14X 5110   2.412   3.409   8.369  3.3052  1.7120  0.0001
   63SAPC  H14Y 5111   2.247   3.486   8.332 -0.3317 -2.9461 -1.4132
   63SAPC  C315 5112   2.433   3.614   8.395 -0.5800  0.2675  0.5027
   63SAPC  H15X 5113   2.432   3.587   8.503 -1.8173  0.4764  0.5548
   63SAPC  H15Y 5114   2.385   3.714   8.383  0.0520  0.5088 -0.0901
   63SAPC  C316 5115   2.583   3.643   8.360 -1.0397  0.1011 -0.1553
   63SAPC  H16X 5116   2.593   3.665   8.251 -0.7683  1.7368  0.1779
   63SAPC  H16Y 5117   2.642   3.552   8.383 -2.1621 -0.9722 -1.3310
   63SAPC  C317 5118   2.629   3.763   8.443 -0.8929 -0.5530 -0.1628
   63SAPC  H17X 5119   2.564   3.852   8.438  0.9223  0.7775 -1.6619
   63SAPC  H17Y 5120   2.726   3.792   8.396 -0.6064 -2.4936 -0.8619
   63SAPC  C318 5121   2.674   3.737   8.589 -0.5811  0.8868  0.2347
   63SAPC  H18X 5122   2.592   3.685   8.644 -2.5906  1.7608 -1.7661
   63SAPC  H18Y 5123   2.700   3.832   8.639  0.0052  0.6391  0.4068
   63SAPC  H18Z 5124   2.765   3.677   8.608 -1.2382  0.3674  1.9365
   64SAPC     N 5125   6.395   3.692   5.718 -0.2651 -0.8387  0.0231
   64SAPC   C12 5126   6.313   3.771   5.823 -0.1963 -0.1931  0.1390
   64SAPC  H12A 5127   6.212   3.734   5.826 -0.3978  0.4110  2.4197
   64SAPC  H12B 5128   6.309   3.872   5.786 -1.0749  0.9243  2.9945
   64SAPC   C13 5129   6.536   3.737   5.727  0.1860  0.3126  0.7848
   64SAPC  H13A 5130   6.546   3.839   5.691  0.6430 -0.5750 -1.8039
   64SAPC  H13B 5131   6.575   3.723   5.826  0.2358  1.0554  0.8766
   64SAPC  H13C 5132   6.598   3.683   5.658 -1.9103  0.6814 -1.5620
   64SAPC   C14 5133   6.393   3.540   5.741  0.3635 -0.5000  0.1614
   64SAPC  H14A 5134   6.294   3.495   5.741 -1.6259  3.4371  0.3769
   64SAPC  H14B 5135   6.457   3.485   5.674  1.0223  0.9545 -0.4357
   64SAPC  H14C 5136   6.431   3.516   5.839 -0.2680 -1.2179  0.2451
   64SAPC   C15 5137   6.330   3.712   5.588  0.2511  0.0735  0.1606
   64SAPC  H15A 5138   6.317   3.818   5.571  0.3037 -0.1644 -1.4824
   64SAPC  H15B 5139   6.385   3.661   5.512 -0.9725  0.7148 -1.2078
   64SAPC  H15C 5140   6.229   3.675   5.580 -0.0158  1.0355 -1.3122
   64SAPC   C11 5141   6.360   3.774   5.968  0.0103  0.2679 -0.1485
   64SAPC  H11A 5142   6.284   3.815   6.038 -0.9399 -0.8127 -0.5073
   64SAPC  H11B 5143   6.442   3.847   5.959  1.6133 -1.5732 -1.1720
   64SAPC     P 5144   6.534   3.648   6.104  0.5040 -0.2038 -0.0204
   64SAPC   O13 5145   6.560   3.517   6.166  1.0372  0.3687  0.0378
   64SAPC   O14 5146   6.636   3.694   6.015 -0.1047 -0.3958 -0.1991
   64SAPC   O12 5147   6.396   3.648   6.021  0.4403  0.3813 -0.7533
   64SAPC   O11 5148   6.514   3.752   6.219  0.2738  0.5989 -0.0579
   64SAPC    C1 5149   6.393   3.742   6.297 -0.0258  0.1026  0.5824
   64SAPC    HA 5150   6.304   3.747   6.231  0.2884 -0.6657  0.0887
   64SAPC    HB 5151   6.389   3.643   6.346 -0.0304  0.1080  0.5931
   64SAPC    C2 5152   6.385   3.842   6.414  0.1935  0.0997  0.4570
   64SAPC    HS 5153   6.361   3.939   6.366  0.0319  0.2089  0.7575
   64SAPC   O21 5154   6.512   3.845   6.484 -1.2276  0.6628  0.3146
   64SAPC   C21 5155   6.542   3.952   6.550 -0.0030  0.2312  0.3003
   64SAPC   O22 5156   6.478   4.056   6.547 -0.0530 -0.0039  0.2600
   64SAPC   C22 5157   6.673   3.939   6.628  1.0620  0.5101  0.6184
   64SAPC   H2R 5158   6.677   3.834   6.664 -0.5701  0.2572  0.1628
   64SAPC   H2S 5159   6.756   3.960   6.556 -0.7026 -0.2317 -1.7697
   64SAPC    C3 5160   6.270   3.799   6.510 -0.1349 -0.5260 -0.3880
   64SAPC    HX 5161   6.295   3.699   6.553  2.5193  0.1416 -0.2081
   64SAPC    HY 5162   6.175   3.801   6.453 -0.5150 -1.6541  0.1809
   64SAPC   O31 5163   6.258   3.887   6.630  0.1155 -0.6686  0.3240
   64SAPC   C31 5164   6.173   3.986   6.607  0.7750 -0.3435  0.3424
   64SAPC   O32 5165   6.126   4.013   6.496 -0.3319 -0.2388  0.3871
   64SAPC   C32 5166   6.136   4.062   6.734 -0.1177  0.7494  0.4884
   64SAPC   H2X 5167   6.128   4.169   6.703  2.1938  0.9107  0.2779
   64SAPC   H2Y 5168   6.224   4.049   6.800  1.1386 -1.6205 -1.4926
   64SAPC   C23 5169   6.687   4.036   6.749  0.4408 -0.0942  0.6710
   64SAPC   H3R 5170   6.595   4.061   6.807 -0.4199  0.7723 -0.9984
   64SAPC   H3S 5171   6.727   4.130   6.706 -1.1897  0.1138 -0.4649
   64SAPC   C24 5172   6.784   3.972   6.855  0.4578 -0.2053  0.3317
   64SAPC   H4R 5173   6.833   4.048   6.920 -1.3742  1.5948 -0.3108
   64SAPC   H4S 5174   6.863   3.924   6.794 -0.8302  0.2905 -1.8147
   64SAPC   C25 5175   6.717   3.859   6.931  0.4127  0.2305 -0.3436
   64SAPC   H5R 5176   6.679   3.778   6.866  0.8439  0.6223 -1.0932
   64SAPC   C26 5177   6.677   3.850   7.058 -0.5764 -0.6170 -0.2280
   64SAPC   H6R 5178   6.629   3.758   7.093  0.1350 -1.7311 -2.0979
   64SAPC   C27 5179   6.708   3.944   7.173  0.0015 -0.4544  0.0286
   64SAPC   H7R 5180   6.626   3.958   7.247 -0.7922  0.9571 -1.0504
   64SAPC   H7S 5181   6.727   4.048   7.138  0.5427 -0.0603  1.4243
   64SAPC   C28 5182   6.842   3.917   7.247  0.6341 -0.3733  0.1265
   64SAPC   H8R 5183   6.921   3.901   7.172  0.4089  0.3025 -0.2685
   64SAPC   C29 5184   6.874   3.913   7.374 -0.2810 -0.0599  0.3513
   64SAPC   H9R 5185   6.981   3.899   7.398 -0.5635 -1.2406  1.0066
   64SAPC  C210 5186   6.792   3.945   7.491 -0.5516  0.0143 -0.4552
   64SAPC  H10R 5187   6.690   3.971   7.456 -1.0195 -0.2198  0.6804
   64SAPC  H10S 5188   6.837   4.029   7.550 -2.5366  0.4098  0.6077
   64SAPC  C211 5189   6.804   3.833   7.588 -0.2268 -0.5196  1.0038
   64SAPC  H11R 5190   6.899   3.778   7.591 -0.1519 -0.3408  2.6711
   64SAPC  C212 5191   6.712   3.802   7.678 -1.3094 -0.0054 -0.1693
   64SAPC  H12R 5192   6.733   3.720   7.749  0.0105 -0.0546 -0.5777
   64SAPC  C213 5193   6.578   3.864   7.712  0.7409  0.1905 -0.1711
   64SAPC  H13R 5194   6.535   3.794   7.787  1.7619 -1.1483 -0.7879
   64SAPC  H13S 5195   6.513   3.857   7.623  0.6056 -0.1646 -0.0460
   64SAPC  C214 5196   6.564   4.010   7.743  0.0248 -0.2371 -0.7576
   64SAPC  H14R 5197   6.591   4.082   7.664  1.7158  1.5524  1.3171
   64SAPC  C215 5198   6.530   4.062   7.861 -0.1810 -0.0179  0.0369
   64SAPC  H15R 5199   6.505   4.167   7.881 -2.1595 -0.6127  0.9707
   64SAPC  C216 5200   6.485   3.977   7.980  0.4089  0.0519 -0.3974
   64SAPC  H16R 5201   6.561   3.897   7.994  1.2231  0.8024 -0.3812
   64SAPC  H16S 5202   6.391   3.928   7.948  1.1919 -2.0366  0.3253
   64SAPC  C217 5203   6.464   4.051   8.118 -0.0034  0.7508 -0.4701
   64SAPC  H17R 5204   6.546   4.119   8.149 -0.7708  1.0562  0.9824
   64SAPC  H17S 5205   6.447   3.977   8.200 -0.2474 -0.0303 -1.2191
   64SAPC  C218 5206   6.335   4.135   8.108 -0.3243  0.4366  0.5917
   64SAPC  H18R 5207   6.255   4.081   8.162  0.0160 -0.4306  0.2590
   64SAPC  H18S 5208   6.307   4.137   8.000 -0.5967 -0.0140  0.6500
   64SAPC  C219 5209   6.359   4.271   8.159 -0.4851  0.4612 -0.5753
   64SAPC  H19R 5210   6.263   4.325   8.152 -1.2489 -1.0721 -3.9373
   64SAPC  H19S 5211   6.431   4.337   8.107  0.4734  0.9553  1.2704
   64SAPC  C220 5212   6.394   4.270   8.305 -0.3657 -0.5775 -0.0658
   64SAPC  H20R 5213   6.494   4.230   8.332 -0.2852 -0.5861 -0.3693
   64SAPC  H20S 5214   6.319   4.206   8.356  1.7355 -2.3828  0.9623
   64SAPC  H20T 5215   6.390   4.373   8.345 -0.1812 -0.8717  0.7304
   64SAPC   C33 5216   6.009   4.002   6.796  0.2707  0.1423 -0.0333
   64SAPC   H3X 5217   6.018   3.899   6.836 -2.2780 -1.0110 -2.1211
   64SAPC   H3Y 5218   5.923   3.997   6.725  0.7076  0.7247 -0.6122
   64SAPC   C34 5219   5.955   4.086   6.919 -0.4932  0.2855  1.2007
   64SAPC   H4X 5220   5.995   4.187   6.895 -0.6611  0.0558 -0.1236
   64SAPC   H4Y 5221   6.000   4.052   7.015  0.6770  1.8720  1.2471
   64SAPC   C35 5222   5.804   4.105   6.921 -0.3509 -0.0561 -0.5911
   64SAPC   H5X 5223   5.753   4.010   6.946 -1.0541  0.1706 -1.1396
   64SAPC   H5Y 5224   5.768   4.140   6.822 -1.7843  1.0037  0.2760
   64SAPC   C36 5225   5.747   4.208   7.030  0.1893  0.3472  0.2249
   64SAPC   H6X 5226   5.638   4.227   7.024  0.2901  1.7721  1.9184
   64SAPC   H6Y 5227   5.801   4.304   7.013 -1.0971  1.1915  0.8031
   64SAPC   C37 5228   5.789   4.196   7.178  0.3194  0.8142 -0.1385
   64SAPC   H7X 5229   5.898   4.185   7.190  0.3668  0.7287 -0.6120
   64SAPC   H7Y 5230   5.750   4.105   7.229 -0.2207  0.4216 -1.1970
   64SAPC   C38 5231   5.738   4.313   7.260  0.1287 -0.0593 -0.4140
   64SAPC   H8X 5232   5.628   4.321   7.246 -0.2580  1.6437  2.6422
   64SAPC   H8Y 5233   5.781   4.409   7.225 -0.1488  0.1785 -0.1083
   64SAPC   C39 5234   5.766   4.301   7.403 -0.1562  1.2798 -0.6786
   64SAPC   H9X 5235   5.875   4.292   7.423 -0.4992  2.5909  2.3383
   64SAPC   H9Y 5236   5.727   4.209   7.451  1.4748  0.6073 -0.5649
   64SAPC  C310 5237   5.721   4.420   7.490  0.2002 -0.5057 -0.1145
   64SAPC  H10X 5238   5.617   4.441   7.459  0.9712 -0.8188 -3.1967
   64SAPC  H10Y 5239   5.784   4.507   7.463  0.6561 -0.3141  1.4856
   64SAPC  C311 5240   5.743   4.398   7.641  0.2739 -1.0588 -0.3923
   64SAPC  H11X 5241   5.841   4.437   7.678 -0.9141 -1.3010  3.4853
   64SAPC  H11Y 5242   5.756   4.291   7.668 -2.7647 -1.8099 -1.5775
   64SAPC  C312 5243   5.622   4.450   7.720 -0.2766 -0.2000 -0.0737
   64SAPC  H12X 5244   5.535   4.388   7.689  2.0828 -2.9187 -1.7417
   64SAPC  H12Y 5245   5.601   4.553   7.683 -1.6348 -0.0006  1.1645
   64SAPC  C313 5246   5.636   4.455   7.871  0.1645  0.1397 -0.6059
   64SAPC  H13X 5247   5.675   4.360   7.913 -2.3373 -0.9741 -0.6112
   64SAPC  H13Y 5248   5.536   4.462   7.919  0.5471 -0.6288  0.3344
   64SAPC  C314 5249   5.726   4.566   7.925 -0.2601  0.0757  0.0775
   64SAPC  H14X 5250   5.687   4.660   7.880 -2.2899 -0.9773 -0.4998
   64SAPC  H14Y 5251   5.826   4.542   7.883 -0.0802 -0.0317  0.5656
   64SAPC  C315 5252   5.735   4.586   8.076 -0.0459  0.4611  0.6619
   64SAPC  H15X 5253   5.830   4.533   8.099 -1.4693 -2.0583  1.0359
   64SAPC  H15Y 5254   5.650   4.534   8.124  1.4131 -1.5902  1.1663
   64SAPC  C316 5255   5.743   4.729   8.130 -0.1367 -0.2455 -0.1296
   64SAPC  H16X 5256   5.656   4.774   8.079 -0.4078 -1.1621 -0.4990
   64SAPC  H16Y 5257   5.832   4.784   8.091 -0.9393  2.8624  2.1039
   64SAPC  C317 5258   5.728   4.742   8.284 -0.4541  0.2146 -0.3965
   64SAPC  H17X 5259   5.657   4.660   8.309  1.0358 -1.0283 -0.0923
   64SAPC  H17Y 5260   5.687   4.844   8.298 -1.2978 -0.0822 -0.6246
   64SAPC  C318 5261   5.859   4.727   8.356 -0.0082 -0.1372  0.5183
   64SAPC  H18X 5262   5.849   4.752   8.464 -0.2309  0.3552  0.3832
   64SAPC  H18Y 5263   5.937   4.785   8.303 -0.2247  0.9410  1.3455
   64SAPC  H18Z 5264   5.885   4.619   8.351  0.1530 -0.1034 -5.0634
   65SAPC     N 5265   5.124   5.192   5.884  0.4430 -0.4458  0.6785
   65SAPC   C12 5266   5.216   5.177   5.997  0.0155 -0.4584 -0.9536
   65SAPC  H12A 5267   5.187   5.249   6.072  0.1554 -1.3820  0.0221
   65SAPC  H12B 5268   5.321   5.195   5.980  1.1243 -4.4154  0.4202
   65SAPC   C13 5269   5.151   5.096   5.772 -0.4664 -0.1791  0.2189
   65SAPC  H13A 5270   5.244   5.126   5.727 -0.6635  2.3750  1.3529
   65SAPC  H13B 5271   5.181   5.000   5.812  1.3605 -0.0425 -0.7268
   65SAPC  H13C 5272   5.068   5.078   5.705 -0.8499 -0.1171  0.6663
   65SAPC   C14 5273   4.976   5.187   5.914  0.6610  0.2907  0.9051
   65SAPC  H14A 5274   4.954   5.114   5.990  3.2250  1.0389  2.4860
   65SAPC  H14B 5275   4.941   5.283   5.951  0.4341  0.7269 -0.3810
   65SAPC  H14C 5276   4.925   5.157   5.823  1.5315  1.0409  0.1381
   65SAPC   C15 5277   5.134   5.332   5.828 -0.1331  0.4979 -0.5325
   65SAPC  H15A 5278   5.118   5.399   5.912  0.0655  0.4082 -0.4235
   65SAPC  H15B 5279   5.232   5.348   5.787  0.9840 -1.6973  1.0835
   65SAPC  H15C 5280   5.065   5.342   5.745 -0.7793  0.1398 -0.0507
   65SAPC   C11 5281   5.224   5.032   6.055 -0.0086  0.0732  0.6031
   65SAPC  H11A 5282   5.121   4.993   6.067  0.2403 -0.9327 -0.3735
   65SAPC  H11B 5283   5.268   5.021   6.157 -1.3290 -0.7701  1.1087
   65SAPC     P 5284   5.441   4.929   5.967 -0.1051  0.6212 -0.2676
   65SAPC   O13 5285   5.468   4.828   5.867 -0.2876  0.5565  0.1945
   65SAPC   O14 5286   5.489   5.063   5.937  0.0430 -0.1079 -0.0951
   65SAPC   O12 5287   5.288   4.930   5.973  0.4995  0.3285 -0.4896
   65SAPC   O11 5288   5.482   4.889   6.110  0.0831  0.2090 -0.9850
   65SAPC    C1 5289   5.432   4.758   6.162  0.5643  0.4477  0.8224
   65SAPC    HA 5290   5.343   4.715   6.112  1.3959 -1.5816  1.0144
   65SAPC    HB 5291   5.513   4.687   6.139  1.1625  1.3873 -0.0239
   65SAPC    C2 5292   5.407   4.782   6.312  0.1540  0.8197  0.0749
   65SAPC    HS 5293   5.316   4.846   6.323 -1.0596 -0.3345 -2.4143
   65SAPC   O21 5294   5.525   4.832   6.365 -0.2301  0.0922 -0.2629
   65SAPC   C21 5295   5.514   4.960   6.423  0.0658  0.0643 -0.2688
   65SAPC   O22 5296   5.412   5.023   6.419  0.3075  0.1334 -0.2496
   65SAPC   C22 5297   5.642   4.996   6.501 -0.3977  0.0963  0.4748
   65SAPC   H2R 5298   5.670   4.907   6.561  1.7540  0.4266  0.0315
   65SAPC   H2S 5299   5.714   5.006   6.417  0.3761 -0.7219  1.0262
   65SAPC    C3 5300   5.379   4.651   6.396  0.2762 -0.3203  0.4538
   65SAPC    HX 5301   5.463   4.578   6.394  0.0662 -0.5510 -0.2480
   65SAPC    HY 5302   5.300   4.606   6.332 -0.5779  0.7892  0.6854
   65SAPC   O31 5303   5.324   4.693   6.522 -0.0183 -0.0944 -0.6874
   65SAPC   C31 5304   5.407   4.661   6.627 -0.0486 -0.4697 -0.3104
   65SAPC   O32 5305   5.518   4.610   6.611  0.5349  0.3621 -0.3541
   65SAPC   C32 5306   5.333   4.692   6.761 -0.0565 -0.2385  0.1827
   65SAPC   H2X 5307   5.228   4.660   6.744 -0.3321  1.0747 -0.6678
   65SAPC   H2Y 5308   5.323   4.803   6.766 -1.2696 -0.3240 -0.0400
   65SAPC   C23 5309   5.635   5.126   6.579 -0.4456 -0.0916  0.9489
   65SAPC   H3R 5310   5.577   5.210   6.534  0.0626 -0.5650 -0.6863
   65SAPC   H3S 5311   5.737   5.168   6.589  0.3965 -1.5265 -0.9934
   65SAPC   C24 5312   5.585   5.097   6.723  0.0153 -0.1750  0.0009
   65SAPC   H4R 5313   5.485   5.048   6.723  0.6520 -1.5525 -0.9228
   65SAPC   H4S 5314   5.568   5.195   6.772 -2.6369 -1.8292  2.7205
   65SAPC   C25 5315   5.691   5.018   6.801  0.4788 -0.9654  0.3429
   65SAPC   H5R 5316   5.736   4.928   6.757  0.0341 -0.6276 -0.8338
   65SAPC   C26 5317   5.733   5.059   6.924 -0.3827  0.2947 -0.0045
   65SAPC   H6R 5318   5.795   4.992   6.986 -1.0801 -0.7583 -0.4067
   65SAPC   C27 5319   5.674   5.165   7.019 -0.8647 -0.4330 -0.4380
   65SAPC   H7R 5320   5.661   5.112   7.115 -1.7761  0.0471 -0.2832
   65SAPC   H7S 5321   5.571   5.201   6.999 -0.7863 -0.4276 -0.8552
   65SAPC   C28 5322   5.781   5.266   7.036 -0.5123 -0.6101 -0.5096
   65SAPC   H8R 5323   5.828   5.299   6.942  0.6819  2.1885  0.9300
   65SAPC   C29 5324   5.824   5.328   7.148  0.4196  0.5443  0.6065
   65SAPC   H9R 5325   5.903   5.404   7.143 -1.1810  2.3515  1.1151
   65SAPC  C210 5326   5.763   5.306   7.288  0.1784  0.5146 -0.2691
   65SAPC  H10R 5327   5.837   5.278   7.366 -1.0602 -0.8803  0.4432
   65SAPC  H10S 5328   5.682   5.230   7.287  1.4693 -0.9231 -1.4616
   65SAPC  C211 5329   5.715   5.436   7.345  0.0412 -0.3757 -0.1248
   65SAPC  H11R 5330   5.734   5.521   7.278  0.3467  0.7449  1.3288
   65SAPC  C212 5331   5.671   5.465   7.465 -0.2868  0.5145  0.8502
   65SAPC  H12R 5332   5.627   5.557   7.505  1.4861  1.3554  0.9475
   65SAPC  C213 5333   5.661   5.353   7.566  0.2836  0.6046  0.5910
   65SAPC  H13R 5334   5.655   5.248   7.528  3.6065 -0.4902  2.5914
   65SAPC  H13S 5335   5.563   5.372   7.612  0.6501  1.2295  1.1195
   65SAPC  C214 5336   5.765   5.371   7.675  0.4544  0.4757 -0.2428
   65SAPC  H14R 5337   5.858   5.317   7.654 -0.4441 -2.2854  2.2745
   65SAPC  C215 5338   5.750   5.449   7.784  0.0429  1.1466  0.3615
   65SAPC  H15R 5339   5.828   5.454   7.861  0.2819  0.9748  0.1306
   65SAPC  C216 5340   5.620   5.534   7.801  0.0990 -0.1721  0.2275
   65SAPC  H16R 5341   5.564   5.548   7.706  0.3567 -2.7808 -0.3956
   65SAPC  H16S 5342   5.657   5.633   7.834  1.6835 -1.0156  1.0976
   65SAPC  C217 5343   5.517   5.501   7.909  1.1589  0.7243 -0.2259
   65SAPC  H17R 5344   5.566   5.465   8.002 -0.5310  0.1854  0.4994
   65SAPC  H17S 5345   5.462   5.414   7.868 -1.5431  2.1941  0.0444
   65SAPC  C218 5346   5.422   5.614   7.924  0.5099 -0.4677 -0.5628
   65SAPC  H18R 5347   5.371   5.615   7.825 -2.5965 -3.3694  0.8039
   65SAPC  H18S 5348   5.462   5.717   7.941 -2.2134  0.4399  1.0366
   65SAPC  C219 5349   5.318   5.613   8.031  0.0589 -0.0710  0.0088
   65SAPC  H19R 5350   5.233   5.547   8.006  0.5791  0.0893 -2.4215
   65SAPC  H19S 5351   5.267   5.712   8.029  0.7068  0.2642 -0.1876
   65SAPC  C220 5352   5.360   5.574   8.174 -0.1822 -0.1735  0.6001
   65SAPC  H20R 5353   5.426   5.652   8.218 -0.7620  1.4126 -1.2169
   65SAPC  H20S 5354   5.407   5.474   8.173  0.0968 -0.1211 -3.1673
   65SAPC  H20T 5355   5.263   5.570   8.229 -0.9365 -4.0798 -0.7061
   65SAPC   C33 5356   5.403   4.624   6.882 -0.1104 -0.8274  0.5175
   65SAPC   H3X 5357   5.508   4.659   6.883  0.0263 -1.2304  1.5215
   65SAPC   H3Y 5358   5.407   4.515   6.861 -0.9366 -0.8718  0.5711
   65SAPC   C34 5359   5.342   4.646   7.019 -0.2301  0.4131 -0.2718
   65SAPC   H4X 5360   5.235   4.626   6.997 -0.0660 -0.0168 -0.6915
   65SAPC   H4Y 5361   5.363   4.749   7.054  1.0796 -0.2215  0.9418
   65SAPC   C35 5362   5.393   4.543   7.124 -0.3904 -0.3608 -0.3407
   65SAPC   H5X 5363   5.499   4.514   7.106 -0.5346 -2.0255  1.1623
   65SAPC   H5Y 5364   5.332   4.451   7.107 -3.7915  1.3985  1.2456
   65SAPC   C36 5365   5.387   4.596   7.270  0.0689 -0.2099  0.0979
   65SAPC   H6X 5366   5.430   4.698   7.286  0.3888 -0.3298 -0.0023
   65SAPC   H6Y 5367   5.437   4.524   7.338 -1.1562 -1.9925 -0.8124
   65SAPC   C37 5368   5.245   4.623   7.310  0.3446  0.0390 -0.4135
   65SAPC   H7X 5369   5.195   4.524   7.316  0.6081 -0.0424  0.6320
   65SAPC   H7Y 5370   5.200   4.687   7.231  1.0422  1.0684  0.0069
   65SAPC   C38 5371   5.217   4.690   7.450 -0.4603 -0.2566 -0.0335
   65SAPC   H8X 5372   5.109   4.672   7.466 -1.0793  0.1359 -3.2281
   65SAPC   H8Y 5373   5.255   4.794   7.448 -0.5196 -0.2402 -0.2388
   65SAPC   C39 5374   5.285   4.631   7.565 -0.3019 -0.8660 -0.3006
   65SAPC   H9X 5375   5.394   4.653   7.558 -0.2222 -1.5637 -1.4888
   65SAPC   H9Y 5376   5.296   4.521   7.574  1.3887 -0.8534 -1.6173
   65SAPC  C310 5377   5.229   4.688   7.702 -0.0524 -0.1987  0.2789
   65SAPC  H10X 5378   5.124   4.651   7.699 -0.2004  0.2636 -2.0791
   65SAPC  H10Y 5379   5.237   4.798   7.691  2.7185 -0.3824 -0.1694
   65SAPC  C311 5380   5.324   4.637   7.816  0.0241  0.1096 -0.3997
   65SAPC  H11X 5381   5.418   4.697   7.817  0.3257 -0.1489  3.1885
   65SAPC  H11Y 5382   5.352   4.530   7.811  3.5476  0.9540 -2.5793
   65SAPC  C312 5383   5.258   4.652   7.948 -0.0678 -0.3280  0.2755
   65SAPC  H12X 5384   5.202   4.560   7.976  0.6715 -0.4073  1.6107
   65SAPC  H12Y 5385   5.189   4.739   7.941  0.5157  0.1142 -0.0880
   65SAPC  C313 5386   5.355   4.694   8.067 -0.6482  0.2306 -0.6962
   65SAPC  H13X 5387   5.402   4.791   8.040  1.2428 -0.7833 -1.2619
   65SAPC  H13Y 5388   5.439   4.622   8.079 -1.4317 -0.3890  1.5532
   65SAPC  C314 5389   5.280   4.712   8.197  0.2430 -0.6131 -0.0780
   65SAPC  H14X 5390   5.220   4.622   8.223 -2.3514  1.2469  0.8186
   65SAPC  H14Y 5391   5.207   4.793   8.175 -0.1229 -1.3088 -1.5873
   65SAPC  C315 5392   5.366   4.764   8.320  0.1765 -0.1790  0.4301
   65SAPC  H15X 5393   5.414   4.858   8.286  1.3157 -0.8714  0.0763
   65SAPC  H15Y 5394   5.444   4.688   8.344  0.7931 -0.1144 -1.2163
   65SAPC  C316 5395   5.280   4.775   8.453 -0.2530  0.7635 -0.7905
   65SAPC  H16X 5396   5.223   4.685   8.485  0.1514  0.2948 -1.3685
   65SAPC  H16Y 5397   5.201   4.847   8.424 -0.1189  0.9196 -0.7690
   65SAPC  C317 5398   5.352   4.824   8.581  0.2553  0.5818  0.0337
   65SAPC  H17X 5399   5.288   4.814   8.671 -1.1904 -1.5267 -1.1535
   65SAPC  H17Y 5400   5.387   4.928   8.561  0.0476  0.2616 -2.2610
   65SAPC  C318 5401   5.484   4.754   8.618  0.3672 -0.1003  0.2021
   65SAPC  H18X 5402   5.552   4.744   8.531  1.7967 -0.4202  1.3097
   65SAPC  H18Y 5403   5.465   4.655   8.664 -5.7414  0.3297 -0.5965
   65SAPC  H18Z 5404   5.548   4.809   8.690  2.3564 -0.3368 -1.2989
   66SAPC     N 5405   2.448   4.699   5.981 -0.4869 -0.0090 -0.6267
   66SAPC   C12 5406   2.376   4.578   6.041  0.7389  0.1308  0.3164
   66SAPC  H12A 5407   2.346   4.595   6.144 -3.4965  0.6448 -0.8298
   66SAPC  H12B 5408   2.435   4.488   6.036 -0.0770 -0.4186  0.5318
   66SAPC   C13 5409   2.471   4.657   5.838  0.0506 -0.1046 -0.5815
   66SAPC  H13A 5410   2.513   4.558   5.829 -2.1030 -1.1255 -0.2499
   66SAPC  H13B 5411   2.377   4.644   5.786 -0.7432  0.4308  0.6641
   66SAPC  H13C 5412   2.540   4.722   5.787  0.9876  0.2909  1.1185
   66SAPC   C14 5413   2.357   4.822   5.975  0.0914 -0.3570 -0.0210
   66SAPC  H14A 5414   2.356   4.878   6.067 -1.2161  0.5217 -0.5336
   66SAPC  H14B 5415   2.396   4.895   5.905 -2.8306  1.1788 -0.2031
   66SAPC  H14C 5416   2.255   4.793   5.956 -1.0169  1.5513  2.4430
   66SAPC   C15 5417   2.579   4.731   6.052  0.0548  0.9043  0.1195
   66SAPC  H15A 5418   2.564   4.775   6.149 -1.3273 -0.9486  0.8007
   66SAPC  H15B 5419   2.641   4.646   6.077  1.1018  1.9563  1.2418
   66SAPC  H15C 5420   2.631   4.810   6.000 -3.0301  2.7050 -0.4231
   66SAPC   C11 5421   2.236   4.549   5.982  0.2105  0.5115 -0.7146
   66SAPC  H11A 5422   2.210   4.445   6.011 -1.9706  1.0045 -0.7544
   66SAPC  H11B 5423   2.245   4.546   5.871 -0.1109 -0.9225 -0.7241
   66SAPC     P 5424   2.059   4.653   6.147  0.1559  0.3944  0.3829
   66SAPC   O13 5425   1.977   4.777   6.136 -0.3819 -0.1156 -0.1324
   66SAPC   O14 5426   1.987   4.526   6.157 -0.4187 -0.1236 -0.4774
   66SAPC   O12 5427   2.133   4.646   6.011  0.3172 -0.0241  0.1025
   66SAPC   O11 5428   2.173   4.662   6.250  0.0384  0.4043 -0.6125
   66SAPC    C1 5429   2.244   4.790   6.269  0.7729 -0.9287 -0.5062
   66SAPC    HA 5430   2.351   4.776   6.243  0.3652 -0.3817 -2.7609
   66SAPC    HB 5431   2.213   4.873   6.201 -1.7068 -0.9108  0.5328
   66SAPC    C2 5432   2.225   4.848   6.415  0.0352 -0.9027  0.2145
   66SAPC    HS 5433   2.250   4.956   6.409 -0.6512 -0.7546 -0.0939
   66SAPC   O21 5434   2.319   4.779   6.501  0.4291  0.2739 -0.2723
   66SAPC   C21 5435   2.336   4.823   6.622  0.5602  0.1661  0.1294
   66SAPC   O22 5436   2.306   4.932   6.658  0.4837 -0.4056 -0.2763
   66SAPC   C22 5437   2.402   4.717   6.716 -0.0415 -0.0271  0.3887
   66SAPC   H2R 5438   2.327   4.647   6.758 -1.1230  0.7050 -0.2450
   66SAPC   H2S 5439   2.479   4.661   6.659  0.3307  0.5468  0.3219
   66SAPC    C3 5440   2.071   4.843   6.462 -0.0641 -0.0675 -0.2354
   66SAPC    HX 5441   2.052   4.734   6.446  0.3265  0.0787 -1.9482
   66SAPC    HY 5442   2.012   4.897   6.385 -0.9791  0.2903  0.7035
   66SAPC   O31 5443   2.041   4.878   6.603  0.0367 -0.4019  0.8055
   66SAPC   C31 5444   2.029   5.012   6.622  0.5110  0.0017 -0.3815
   66SAPC   O32 5445   2.032   5.103   6.539  0.2664 -0.1984 -0.4945
   66SAPC   C32 5446   2.004   5.038   6.773 -0.7147 -0.8606 -0.5125
   66SAPC   H2X 5447   1.996   5.146   6.794  0.8100 -0.8554  0.2070
   66SAPC   H2Y 5448   2.098   5.002   6.820  1.6991  1.6385 -3.0302
   66SAPC   C23 5449   2.476   4.785   6.834  0.3462 -0.5934  0.7134
   66SAPC   H3R 5450   2.455   4.721   6.922 -1.9255  1.0385  1.4419
   66SAPC   H3S 5451   2.421   4.880   6.852  0.1376 -0.7258  0.7777
   66SAPC   C24 5452   2.626   4.811   6.809 -0.3338 -0.7238 -0.5497
   66SAPC   H4R 5453   2.637   4.856   6.708  0.6428  2.3347  0.8023
   66SAPC   H4S 5454   2.672   4.710   6.807  1.2878 -0.0695  1.4256
   66SAPC   C25 5455   2.699   4.897   6.903 -0.0124 -0.6636  0.1151
   66SAPC   H5R 5456   2.704   4.999   6.863 -2.4483  0.5435  2.5245
   66SAPC   C26 5457   2.753   4.851   7.016  0.3198  0.3732  0.9951
   66SAPC   H6R 5458   2.800   4.926   7.080  0.5899 -0.3509  1.6651
   66SAPC   C27 5459   2.746   4.708   7.070 -0.3057 -0.1017  0.3416
   66SAPC   H7R 5460   2.817   4.638   7.020 -0.7496 -0.8196  0.6934
   66SAPC   H7S 5461   2.655   4.647   7.053  1.0797 -1.6981 -1.9285
   66SAPC   C28 5462   2.769   4.716   7.224  0.0416  0.8339  0.0401
   66SAPC   H8R 5463   2.873   4.695   7.249 -0.2110 -1.0487 -0.3586
   66SAPC   C29 5464   2.678   4.748   7.320 -0.6072 -0.0537 -0.5153
   66SAPC   H9R 5465   2.716   4.764   7.422 -0.5375 -0.2846 -0.5050
   66SAPC  C210 5466   2.533   4.788   7.306 -0.6003  0.0727  0.3931
   66SAPC  H10R 5467   2.473   4.718   7.367  2.6966 -3.3462  0.0692
   66SAPC  H10S 5468   2.509   4.769   7.199  1.6414  0.2784 -0.1924
   66SAPC  C211 5469   2.501   4.927   7.352  0.7925  0.5623  0.0292
   66SAPC  H11R 5470   2.503   5.000   7.270  0.0609 -0.0137 -0.5138
   66SAPC  C212 5471   2.480   4.980   7.476 -0.4456  0.3194  0.1359
   66SAPC  H12R 5472   2.464   5.088   7.488  1.6504  0.7385 -0.4003
   66SAPC  C213 5473   2.485   4.903   7.607  0.0454 -0.3559  0.2708
   66SAPC  H13R 5474   2.562   4.962   7.662  2.7290 -0.7103 -2.7993
   66SAPC  H13S 5475   2.535   4.804   7.604  1.2469  0.1243  2.4672
   66SAPC  C214 5476   2.358   4.907   7.673 -0.1204  0.4124  0.1177
   66SAPC  H14R 5477   2.306   5.004   7.674 -2.6124 -0.8148  1.1228
   66SAPC  C215 5478   2.307   4.803   7.739 -0.2344  0.5615 -0.9260
   66SAPC  H15R 5479   2.213   4.821   7.794  0.7589  1.7668  0.4382
   66SAPC  C216 5480   2.364   4.662   7.753  0.1305  0.1041 -0.0322
   66SAPC  H16R 5481   2.470   4.656   7.720  0.7616  2.1218  1.4167
   66SAPC  H16S 5482   2.305   4.584   7.700  1.3942 -0.2243 -1.0142
   66SAPC  C217 5483   2.363   4.613   7.908 -0.2045 -0.0492 -0.0382
   66SAPC  H17R 5484   2.403   4.510   7.908 -0.6286 -0.2225 -0.8365
   66SAPC  H17S 5485   2.256   4.603   7.937 -1.1473  1.3598 -2.7057
   66SAPC  C218 5486   2.446   4.700   8.004  0.2719  0.4088 -0.3242
   66SAPC  H18R 5487   2.428   4.649   8.101 -0.1720 -1.5327 -1.3678
   66SAPC  H18S 5488   2.403   4.802   8.004  0.6533  0.5719 -0.5401
   66SAPC  C219 5489   2.592   4.708   7.970 -0.0584  0.4871 -0.2090
   66SAPC  H19R 5490   2.616   4.767   7.878 -0.3753  1.5595  0.3896
   66SAPC  H19S 5491   2.636   4.606   7.956 -1.3546 -0.6726  3.1870
   66SAPC  C220 5492   2.670   4.771   8.086 -0.1862 -0.4382  0.0112
   66SAPC  H20R 5493   2.645   4.723   8.183 -1.8469  0.5253  0.0954
   66SAPC  H20S 5494   2.641   4.877   8.102 -0.9188 -0.5846 -0.3024
   66SAPC  H20T 5495   2.780   4.765   8.070 -0.6259 -2.8861 -3.2177
   66SAPC   C33 5496   1.877   4.965   6.825  0.8208 -0.1771 -0.5236
   66SAPC   H3X 5497   1.872   4.855   6.836 -1.4973 -0.0152  0.8360
   66SAPC   H3Y 5498   1.794   5.012   6.768  0.1628 -0.2585  0.3418
   66SAPC   C34 5499   1.835   5.022   6.966 -0.4273  0.0870  0.0666
   66SAPC   H4X 5500   1.859   5.131   6.970  0.0183  0.0005 -0.1254
   66SAPC   H4Y 5501   1.897   4.970   7.042 -1.4600 -0.4596  0.5559
   66SAPC   C35 5502   1.684   5.010   6.996 -0.4616 -0.3074  0.1432
   66SAPC   H5X 5503   1.651   4.905   6.980 -1.8920  0.2481 -0.7882
   66SAPC   H5Y 5504   1.625   5.055   6.914 -0.9510 -3.4714 -1.3780
   66SAPC   C36 5505   1.649   5.073   7.125 -0.1190 -0.2529 -0.6063
   66SAPC   H6X 5506   1.565   5.141   7.099  0.2892  0.9331  0.9955
   66SAPC   H6Y 5507   1.728   5.141   7.164 -1.8865  0.7606  1.4316
   66SAPC   C37 5508   1.608   4.979   7.237 -0.2212  0.0236 -0.5255
   66SAPC   H7X 5509   1.699   4.922   7.266 -0.0037 -0.2342 -1.6613
   66SAPC   H7Y 5510   1.532   4.907   7.200 -1.0056 -0.3301  1.6277
   66SAPC   C38 5511   1.550   5.055   7.356  1.1981  0.8498  0.5914
   66SAPC   H8X 5512   1.452   5.091   7.318  1.6693 -1.3443 -3.1671
   66SAPC   H8Y 5513   1.607   5.143   7.391  2.5518  0.8950 -1.5704
   66SAPC   C39 5514   1.523   4.964   7.478 -0.2555 -0.8206 -0.5979
   66SAPC   H9X 5515   1.619   4.942   7.530 -2.7566 -2.2121  3.9606
   66SAPC   H9Y 5516   1.476   4.864   7.463 -0.6820 -0.5306 -1.2605
   66SAPC  C310 5517   1.428   5.038   7.579 -0.6603 -0.3524 -0.0898
   66SAPC  H10X 5518   1.344   5.080   7.520 -0.3386 -0.3317 -0.5398
   66SAPC  H10Y 5519   1.489   5.124   7.614 -1.6574  1.7567 -3.0989
   66SAPC  C311 5520   1.389   4.954   7.703 -0.0144  0.4151  0.0980
   66SAPC  H11X 5521   1.483   4.907   7.740 -0.3637  0.8107  1.5739
   66SAPC  H11Y 5522   1.323   4.872   7.669 -0.5736 -0.2205  2.5217
   66SAPC  C312 5523   1.324   5.030   7.826  0.3254  0.4634  0.5170
   66SAPC  H12X 5524   1.222   5.059   7.793  1.2024  0.9989 -1.8722
   66SAPC  H12Y 5525   1.368   5.131   7.839 -0.2913  0.7566  0.3450
   66SAPC  C313 5526   1.331   4.961   7.964  0.0027 -0.1556 -0.2166
   66SAPC  H13X 5527   1.437   4.934   7.983 -0.8277 -4.7165 -0.7415
   66SAPC  H13Y 5528   1.281   4.862   7.952  0.5410 -0.4794  0.1407
   66SAPC  C314 5529   1.252   5.041   8.069  0.2063 -0.0528 -0.1675
   66SAPC  H14X 5530   1.145   5.037   8.037  0.3022 -0.8335 -0.4169
   66SAPC  H14Y 5531   1.264   5.151   8.067  0.1065 -0.0217  0.7903
   66SAPC  C315 5532   1.280   4.989   8.208  0.3602  0.0783  0.4853
   66SAPC  H15X 5533   1.384   5.024   8.226  0.7445 -0.1501 -1.1309
   66SAPC  H15Y 5534   1.280   4.878   8.217 -2.7402 -0.0104  0.3671
   66SAPC  C316 5535   1.194   5.058   8.316  0.5514  0.2719 -0.0760
   66SAPC  H16X 5536   1.083   5.054   8.309  0.5430  0.3550  0.0094
   66SAPC  H16Y 5537   1.223   5.164   8.330  1.1268 -0.0082  1.0189
   66SAPC  C317 5538   1.223   5.013   8.460  0.6317 -0.0296 -0.6339
   66SAPC  H17X 5539   1.330   5.032   8.481  0.1667  0.1861  1.8392
   66SAPC  H17Y 5540   1.186   4.908   8.465 -1.2982  0.6618  1.1539
   66SAPC  C318 5541   1.134   5.092   8.555  0.9267 -0.2758 -0.5205
   66SAPC  H18X 5542   1.138   5.203   8.551  1.5229 -0.2481  0.4677
   66SAPC  H18Y 5543   1.147   5.070   8.663 -2.9348  1.4825  0.4726
   66SAPC  H18Z 5544   1.029   5.059   8.545  1.2136 -0.7741 -2.0665
   67SAPC     N 5545   6.233   6.751   6.379 -0.2173  0.2205 -0.1507
   67SAPC   C12 5546   6.083   6.732   6.381 -0.2495  0.3187 -0.1110
   67SAPC  H12A 5547   6.042   6.788   6.298  1.7261  1.0092 -0.6665
   67SAPC  H12B 5548   6.048   6.775   6.474  2.6587  0.3018  1.0983
   67SAPC   C13 5549   6.292   6.706   6.241  0.6863  0.0526 -0.3498
   67SAPC  H13A 5550   6.246   6.757   6.158  1.8915  1.9174  0.0504
   67SAPC  H13B 5551   6.399   6.723   6.240  0.9700 -0.6191  3.3254
   67SAPC  H13C 5552   6.286   6.600   6.224 -1.6406  0.4719 -2.7948
   67SAPC   C14 5553   6.275   6.886   6.409 -0.2621 -0.3340 -0.3734
   67SAPC  H14A 5554   6.249   6.954   6.329  0.1370  2.4418  1.7212
   67SAPC  H14B 5555   6.236   6.910   6.506 -4.3355 -2.1734 -1.3393
   67SAPC  H14C 5556   6.383   6.893   6.403 -0.3890  2.2189 -0.9287
   67SAPC   C15 5557   6.303   6.662   6.488 -0.3997 -0.4725  0.2728
   67SAPC  H15A 5558   6.405   6.646   6.456 -0.7483 -0.6106 -0.8278
   67SAPC  H15B 5559   6.298   6.712   6.583 -2.0895  0.9436 -0.4971
   67SAPC  H15C 5560   6.251   6.567   6.494 -0.0066 -0.7263 -0.2487
   67SAPC   C11 5561   6.026   6.585   6.362 -0.0437 -0.1802  0.1127
   67SAPC  H11A 5562   6.065   6.541   6.267  2.0931 -0.7177  1.1842
   67SAPC  H11B 5563   5.915   6.594   6.355  0.0135  2.3604  1.2991
   67SAPC     P 5564   6.048   6.340   6.466  0.0027 -0.4093 -0.6102
   67SAPC   O13 5565   6.099   6.310   6.334 -0.1098 -0.0997  0.0763
   67SAPC   O14 5566   6.125   6.286   6.582 -0.4807  0.2295 -0.2620
   67SAPC   O12 5567   6.047   6.496   6.473 -0.3314 -0.3947  0.0319
   67SAPC   O11 5568   5.892   6.293   6.460  0.0998 -0.2623  0.2970
   67SAPC    C1 5569   5.785   6.348   6.541 -0.2138 -0.1017 -0.2766
   67SAPC    HA 5570   5.809   6.454   6.566 -0.9399  0.1775 -0.7168
   67SAPC    HB 5571   5.688   6.341   6.486 -0.6608 -0.0017  0.4833
   67SAPC    C2 5572   5.752   6.269   6.677 -0.2854  0.1562  0.6229
   67SAPC    HS 5573   5.649   6.295   6.710  0.2201  2.7185  0.4164
   67SAPC   O21 5574   5.845   6.299   6.781  0.0337 -0.4399  0.5893
   67SAPC   C21 5575   5.815   6.413   6.840  0.6204 -1.3613 -0.4506
   67SAPC   O22 5576   5.713   6.480   6.816 -0.2696 -0.0486 -0.3898
   67SAPC   C22 5577   5.922   6.451   6.947 -0.5617 -0.1914  0.2020
   67SAPC   H2R 5578   6.018   6.406   6.915 -0.1883  0.5986  0.2066
   67SAPC   H2S 5579   5.930   6.561   6.955  2.1468 -0.3831  1.2035
   67SAPC    C3 5580   5.751   6.116   6.660  0.1007 -0.1590 -0.6472
   67SAPC    HX 5581   5.849   6.085   6.703  0.2662  0.0315 -0.8773
   67SAPC    HY 5582   5.756   6.085   6.554 -0.5657 -0.9647 -0.4436
   67SAPC   O31 5583   5.639   6.047   6.721 -0.2898  0.3543  0.0960
   67SAPC   C31 5584   5.520   6.047   6.663 -0.5225  0.5112 -0.6477
   67SAPC   O32 5585   5.494   6.109   6.562 -0.5348 -0.2950  0.3866
   67SAPC   C32 5586   5.426   5.954   6.740 -0.8697  0.4249  0.4542
   67SAPC   H2X 5587   5.487   5.875   6.788 -2.1022 -0.2975  0.8621
   67SAPC   H2Y 5588   5.367   5.914   6.655 -0.0077  0.9332 -0.4071
   67SAPC   C23 5589   5.892   6.369   7.077 -0.5992 -0.6640 -0.1032
   67SAPC   H3R 5590   5.985   6.340   7.129 -0.9812 -1.2670  0.2571
   67SAPC   H3S 5591   5.840   6.274   7.052  0.2141 -1.6911  1.8837
   67SAPC   C24 5592   5.809   6.447   7.176 -0.6027 -0.1078  0.1933
   67SAPC   H4R 5593   5.710   6.476   7.136 -0.7449  1.6759  1.7257
   67SAPC   H4S 5594   5.878   6.531   7.198  0.8271 -0.9080 -0.9663
   67SAPC   C25 5595   5.794   6.366   7.301  0.5401  0.0690  0.2026
   67SAPC   H5R 5596   5.742   6.270   7.291  1.4624 -0.7165  2.3828
   67SAPC   C26 5597   5.846   6.400   7.420  0.5758 -0.6893  0.0965
   67SAPC   H6R 5598   5.826   6.334   7.506  2.1259 -1.3396 -0.0110
   67SAPC   C27 5599   5.918   6.532   7.450  0.1955 -0.5347 -0.3835
   67SAPC   H7R 5600   5.874   6.619   7.396 -1.1611  0.2369  1.8341
   67SAPC   H7S 5601   6.019   6.529   7.404  1.5989  1.3985  2.2821
   67SAPC   C28 5602   5.941   6.567   7.597  0.4400  0.3145 -0.4749
   67SAPC   H8R 5603   5.986   6.490   7.662 -0.4662 -1.0228 -1.3832
   67SAPC   C29 5604   5.912   6.690   7.650  0.4028  0.7211  0.4058
   67SAPC   H9R 5605   5.928   6.707   7.757 -1.2417 -0.7156  0.9343
   67SAPC  C210 5606   5.857   6.803   7.576  0.0083 -0.5216  0.3131
   67SAPC  H10R 5607   5.758   6.781   7.530 -0.0943 -1.1385  0.8139
   67SAPC  H10S 5608   5.933   6.823   7.497  1.3041 -4.1478  0.4728
   67SAPC  C211 5609   5.843   6.916   7.671  0.9250  0.4060  0.0835
   67SAPC  H11R 5610   5.943   6.956   7.695  1.0818 -0.0975  0.2688
   67SAPC  C212 5611   5.732   6.967   7.733  0.1891  0.1466  0.5220
   67SAPC  H12R 5612   5.741   7.040   7.814  1.5172  0.1476  0.3871
   67SAPC  C213 5613   5.588   6.919   7.716  0.2876 -0.1079 -0.0034
   67SAPC  H13R 5614   5.545   6.935   7.817  0.7104 -0.3823  0.2208
   67SAPC  H13S 5615   5.588   6.809   7.703 -0.5494 -0.0027 -1.0845
   67SAPC  C214 5616   5.498   6.996   7.614  0.1268  0.2017  0.4386
   67SAPC  H14R 5617   5.479   7.104   7.630  1.9003  0.4738  0.9312
   67SAPC  C215 5618   5.427   6.935   7.509  0.2633 -0.4516 -0.1894
   67SAPC  H15R 5619   5.389   7.002   7.430  1.6656 -0.9491 -1.3335
   67SAPC  C216 5620   5.422   6.789   7.478 -0.4461 -0.1300 -0.2531
   67SAPC  H16R 5621   5.324   6.745   7.507 -1.3366  1.1241 -1.2471
   67SAPC  H16S 5622   5.492   6.728   7.539 -0.9066 -2.0199 -1.5147
   67SAPC  C217 5623   5.458   6.747   7.329  0.2692 -0.0270 -0.3614
   67SAPC  H17R 5624   5.441   6.638   7.317  0.2258  0.1295 -1.8479
   67SAPC  H17S 5625   5.563   6.776   7.307  0.8803 -1.3239  0.6959
   67SAPC  C218 5626   5.356   6.797   7.217  0.4394 -0.5686 -0.0669
   67SAPC  H18R 5627   5.351   6.908   7.216 -0.2386 -0.5826  0.8524
   67SAPC  H18S 5628   5.254   6.757   7.233 -1.0633  2.1623 -2.0672
   67SAPC  C219 5629   5.406   6.759   7.085 -0.5653  0.1349  0.4586
   67SAPC  H19R 5630   5.399   6.648   7.087  0.8858  0.0181  0.7054
   67SAPC  H19S 5631   5.515   6.774   7.069 -0.2991 -2.0759 -0.1231
   67SAPC  C220 5632   5.320   6.811   6.968  0.0164  0.1346  0.6627
   67SAPC  H20R 5633   5.340   6.918   6.946 -1.6710  0.1438 -1.1260
   67SAPC  H20S 5634   5.212   6.800   6.988 -0.6369 -1.5443 -2.8405
   67SAPC  H20T 5635   5.358   6.763   6.875  1.0457  0.3982  0.9365
   67SAPC   C33 5636   5.346   6.025   6.849  0.2269 -0.1060  0.3339
   67SAPC   H3X 5637   5.265   5.960   6.889 -0.6926  0.2037 -0.9680
   67SAPC   H3Y 5638   5.285   6.101   6.796 -3.1419 -3.3753 -0.9521
   67SAPC   C34 5639   5.421   6.082   6.972  0.9724  0.5939 -0.2471
   67SAPC   H4X 5640   5.486   6.164   6.933  0.0262  2.0293  1.0385
   67SAPC   H4Y 5641   5.488   6.008   7.020  2.7930  0.3849 -2.8953
   67SAPC   C35 5642   5.320   6.126   7.083  0.0225 -0.2192  0.3614
   67SAPC   H5X 5643   5.255   6.038   7.096  2.1251 -1.9077  0.0251
   67SAPC   H5Y 5644   5.266   6.218   7.053 -1.0229 -0.4460  1.4900
   67SAPC   C36 5645   5.386   6.159   7.215 -0.3038  0.2156  0.1599
   67SAPC   H6X 5646   5.462   6.239   7.213 -1.1788  1.0544 -0.7208
   67SAPC   H6Y 5647   5.436   6.064   7.245  2.4769  1.5951  0.1392
   67SAPC   C37 5648   5.282   6.190   7.317 -0.5432 -0.7271  0.2988
   67SAPC   H7X 5649   5.228   6.097   7.344 -0.2142 -1.4105 -1.2810
   67SAPC   H7Y 5650   5.208   6.260   7.273 -1.3108 -0.3009  2.1690
   67SAPC   C38 5651   5.324   6.233   7.458  0.0047 -0.8451  0.0449
   67SAPC   H8X 5652   5.372   6.144   7.504 -0.8176 -1.0414  0.5484
   67SAPC   H8Y 5653   5.233   6.252   7.518 -0.0569  1.4383 -0.6685
   67SAPC   C39 5654   5.419   6.349   7.471  0.1033 -0.2610 -0.0960
   67SAPC   H9X 5655   5.382   6.442   7.421  1.8676  1.4128  1.5297
   67SAPC   H9Y 5656   5.507   6.317   7.411  0.6660  1.8118 -0.4781
   67SAPC  C310 5657   5.457   6.380   7.618  0.5260 -0.3703  0.1166
   67SAPC  H10X 5658   5.559   6.423   7.619  0.1997  0.6110 -2.2616
   67SAPC  H10Y 5659   5.466   6.287   7.678 -1.3381  0.1093  1.2355
   67SAPC  C311 5660   5.357   6.472   7.690 -0.2310  0.2842 -0.2052
   67SAPC  H11X 5661   5.294   6.525   7.616  1.2139 -1.2910 -2.7096
   67SAPC  H11Y 5662   5.398   6.566   7.732 -1.6478  0.9097 -0.1812
   67SAPC  C312 5663   5.278   6.396   7.792  0.2504  0.5000 -0.1669
   67SAPC  H12X 5664   5.347   6.352   7.868  1.3001  0.2282 -1.2429
   67SAPC  H12Y 5665   5.216   6.319   7.743  0.8914 -1.2929  1.6833
   67SAPC  C313 5666   5.179   6.488   7.859 -0.0175 -0.5100 -0.2404
   67SAPC  H13X 5667   5.097   6.430   7.906 -0.2512  0.6472  0.8548
   67SAPC  H13Y 5668   5.136   6.556   7.783 -1.3218 -1.8411 -0.7323
   67SAPC  C314 5669   5.237   6.576   7.979 -0.2319 -0.5334 -0.1831
   67SAPC  H14X 5670   5.163   6.658   7.992  0.5437  0.1713 -0.1101
   67SAPC  H14Y 5671   5.335   6.622   7.953 -0.6936  0.4893 -0.1919
   67SAPC  C315 5672   5.253   6.507   8.115 -0.2563  0.0576  0.1065
   67SAPC  H15X 5673   5.335   6.433   8.106 -0.1735  0.1022  0.4864
   67SAPC  H15Y 5674   5.163   6.450   8.146 -1.3471  2.3222  1.3272
   67SAPC  C316 5675   5.289   6.604   8.225 -0.6613 -0.0044  0.0771
   67SAPC  H16X 5676   5.222   6.693   8.225  1.2758  1.6014 -2.5816
   67SAPC  H16Y 5677   5.390   6.646   8.206  0.0356 -0.8062  1.7811
   67SAPC  C317 5678   5.281   6.543   8.369 -0.3831  0.9078 -0.2675
   67SAPC  H17X 5679   5.304   6.615   8.450  2.5457 -0.7583  0.5107
   67SAPC  H17Y 5680   5.356   6.462   8.367 -3.7640 -2.4864 -1.2697
   67SAPC  C318 5681   5.145   6.478   8.403 -0.3544 -0.2858 -0.7259
   67SAPC  H18X 5682   5.063   6.539   8.360 -0.9394  0.1928  0.9912
   67SAPC  H18Y 5683   5.127   6.486   8.512 -0.0212 -1.1038 -0.5990
   67SAPC  H18Z 5684   5.136   6.374   8.365 -0.0068 -1.0157  1.0840
   68SAPC     N 5685   4.200   3.848   6.037 -0.2020 -0.0536 -0.0188
   68SAPC   C12 5686   4.056   3.892   6.048  0.4155  0.3239  0.4653
   68SAPC  H12A 5687   4.017   3.837   6.133  3.8829 -1.4335  1.0792
   68SAPC  H12B 5688   3.993   3.860   5.966 -0.1502  0.9151  0.6551
   68SAPC   C13 5689   4.206   3.702   6.035  0.2733 -0.1226  1.0218
   68SAPC  H13A 5690   4.165   3.659   6.125  1.6227 -2.1175  0.7436
   68SAPC  H13B 5691   4.175   3.661   5.940  4.2884 -0.1592 -0.4417
   68SAPC  H13C 5692   4.306   3.662   6.039 -0.0158 -1.2377 -1.3541
   68SAPC   C14 5693   4.276   3.903   5.916  0.8430 -0.8429 -0.2020
   68SAPC  H14A 5694   4.303   4.005   5.938 -2.5229  0.1610 -0.1484
   68SAPC  H14B 5695   4.366   3.847   5.896  1.8044  0.3134  0.7717
   68SAPC  H14C 5696   4.202   3.909   5.838  1.5528 -1.4320 -0.9349
   68SAPC   C15 5697   4.280   3.887   6.164  0.1459  0.2460  0.2038
   68SAPC  H15A 5698   4.383   3.859   6.150 -0.2329 -1.0703 -0.1382
   68SAPC  H15B 5699   4.269   3.994   6.171  1.1152  0.2906  1.2596
   68SAPC  H15C 5700   4.239   3.846   6.255  0.3759  0.8503  0.5790
   68SAPC   C11 5701   4.018   4.042   6.069  0.1794 -0.1420  1.1371
   68SAPC  H11A 5702   4.085   4.090   5.995 -1.8588  0.5155 -0.3758
   68SAPC  H11B 5703   4.039   4.068   6.175  3.4039  0.3445  0.4802
   68SAPC     P 5704   3.764   4.037   6.135  0.0658  0.8505 -0.4108
   68SAPC   O13 5705   3.639   4.101   6.098 -0.5792  0.0223  1.0434
   68SAPC   O14 5706   3.757   3.891   6.155 -0.2660  0.1231  0.0883
   68SAPC   O12 5707   3.883   4.077   6.035  0.7576  0.8968 -0.2848
   68SAPC   O11 5708   3.819   4.102   6.278  0.6325 -0.1914 -0.3345
   68SAPC    C1 5709   3.710   4.109   6.373  0.2949 -0.4586  0.2928
   68SAPC    HA 5710   3.653   4.200   6.346  0.4177 -0.3270  0.4732
   68SAPC    HB 5711   3.639   4.024   6.370 -0.6171  0.3166 -1.2008
   68SAPC    C2 5712   3.748   4.126   6.525 -0.3505  0.3450 -0.3586
   68SAPC    HS 5713   3.662   4.099   6.589  0.1366 -1.7814 -0.5390
   68SAPC   O21 5714   3.798   4.256   6.559  0.3714  0.2845  0.1964
   68SAPC   C21 5715   3.707   4.350   6.573 -0.3486  0.5292 -0.2671
   68SAPC   O22 5716   3.585   4.340   6.575  0.5856 -0.0783 -0.8190
   68SAPC   C22 5717   3.773   4.480   6.592 -0.1032  0.0837  0.5446
   68SAPC   H2R 5718   3.848   4.502   6.513 -1.2240 -1.4412 -1.0403
   68SAPC   H2S 5719   3.690   4.553   6.581 -0.1702 -0.1671 -0.8013
   68SAPC    C3 5720   3.862   4.022   6.554 -0.1314  0.2404 -0.5195
   68SAPC    HX 5721   3.941   4.035   6.477 -0.1165 -1.2832 -0.8065
   68SAPC    HY 5722   3.837   3.914   6.545  1.3630 -0.2035  0.4536
   68SAPC   O31 5723   3.919   4.043   6.691  0.0925 -0.4811  0.5033
   68SAPC   C31 5724   4.050   4.064   6.701  0.2277  0.4333 -0.3726
   68SAPC   O32 5725   4.129   4.078   6.613  0.4674  0.4768  0.0771
   68SAPC   C32 5726   4.091   4.068   6.850 -1.0241 -0.4710 -0.0078
   68SAPC   H2X 5727   4.142   4.165   6.869 -1.9374  0.4016 -1.7910
   68SAPC   H2Y 5728   4.156   3.978   6.860  0.5986  0.5364 -1.0685
   68SAPC   C23 5729   3.831   4.489   6.737 -0.4703  0.0122 -0.2493
   68SAPC   H3R 5730   3.926   4.544   6.721  0.1518 -1.1340 -0.5979
   68SAPC   H3S 5731   3.853   4.391   6.785  0.9449  1.1591  1.5614
   68SAPC   C24 5732   3.743   4.576   6.826  0.0485 -0.5563 -1.0085
   68SAPC   H4R 5733   3.649   4.534   6.867  0.5673  0.0817  0.9631
   68SAPC   H4S 5734   3.708   4.669   6.775 -3.0969 -2.0871 -1.8736
   68SAPC   C25 5735   3.817   4.604   6.962  0.3257 -0.3409  0.7202
   68SAPC   H5R 5736   3.892   4.533   7.001  0.1780 -0.5450  0.6358
   68SAPC   C26 5737   3.772   4.685   7.062 -1.0271 -0.5944 -0.2941
   68SAPC   H6R 5738   3.836   4.687   7.152  0.6680 -0.2781 -1.4422
   68SAPC   C27 5739   3.658   4.774   7.058  0.3498 -0.1396 -0.7213
   68SAPC   H7R 5740   3.637   4.791   6.951  1.8010  0.3631 -0.9484
   68SAPC   H7S 5741   3.702   4.873   7.083  0.6128 -0.9291  2.3587
   68SAPC   C28 5742   3.537   4.732   7.145  0.0188  0.3266  0.8638
   68SAPC   H8R 5743   3.489   4.641   7.106  0.1672  0.9881 -0.9613
   68SAPC   C29 5744   3.490   4.791   7.249  0.4018  0.0038  0.4614
   68SAPC   H9R 5745   3.400   4.755   7.302 -0.9097  3.2020  0.6386
   68SAPC  C210 5746   3.530   4.920   7.314 -0.4150 -0.6465 -0.7086
   68SAPC  H10R 5747   3.438   4.980   7.330 -0.7639 -1.7068  1.7369
   68SAPC  H10S 5748   3.587   4.989   7.248 -1.9205  0.7180 -0.6586
   68SAPC  C211 5749   3.600   4.899   7.448  0.6488  0.1483  0.1196
   68SAPC  H11R 5750   3.655   4.803   7.448 -0.1576 -0.3253 -0.8403
   68SAPC  C212 5751   3.607   4.983   7.556 -0.6172  0.0013 -0.0749
   68SAPC  H12R 5752   3.654   4.944   7.648 -1.8243  0.0022  0.5596
   68SAPC  C213 5753   3.533   5.111   7.570 -0.1341 -0.7748 -0.2132
   68SAPC  H13R 5754   3.574   5.183   7.497 -1.3686  1.8437  1.5103
   68SAPC  H13S 5755   3.559   5.152   7.670 -0.1535 -1.4965  0.0898
   68SAPC  C214 5756   3.381   5.104   7.568 -0.4963 -0.7195 -0.5809
   68SAPC  H14R 5757   3.327   5.033   7.504  1.0669 -1.2420 -1.3796
   68SAPC  C215 5758   3.303   5.179   7.645 -1.1816  0.3595  0.1721
   68SAPC  H15R 5759   3.199   5.146   7.657 -0.6031 -1.5008  0.2600
   68SAPC  C216 5760   3.349   5.285   7.743 -0.3803 -0.1542  0.5134
   68SAPC  H16R 5761   3.290   5.378   7.730  2.2091  1.3562 -1.0657
   68SAPC  H16S 5762   3.446   5.328   7.711 -1.2971 -0.7925 -3.6112
   68SAPC  C217 5763   3.358   5.254   7.895  0.6228 -0.4305 -0.9891
   68SAPC  H17R 5764   3.416   5.337   7.941  0.3590 -0.0075 -1.4142
   68SAPC  H17S 5765   3.408   5.157   7.920 -0.6725 -1.2939 -1.6363
   68SAPC  C218 5766   3.219   5.239   7.954  0.4347  0.2925 -0.2170
   68SAPC  H18R 5767   3.168   5.155   7.903  2.4159 -0.6210 -0.7752
   68SAPC  H18S 5768   3.157   5.326   7.923  3.2107  2.3898 -0.3706
   68SAPC  C219 5769   3.203   5.212   8.105 -0.0317  0.3366  0.9377
   68SAPC  H19R 5770   3.279   5.133   8.126 -2.2648 -1.9414  0.9243
   68SAPC  H19S 5771   3.099   5.176   8.125 -0.3286  0.3196 -0.5534
   68SAPC  C220 5772   3.241   5.330   8.198 -0.0516  0.7747 -0.1124
   68SAPC  H20R 5773   3.240   5.294   8.303 -0.3579 -2.3744 -1.0927
   68SAPC  H20S 5774   3.175   5.416   8.172  0.1481  1.0725  0.3475
   68SAPC  H20T 5775   3.345   5.360   8.175  1.2248 -1.9124  1.7482
   68SAPC   C33 5776   3.983   4.033   6.965 -0.3396  0.1245  0.1941
   68SAPC   H3X 5777   4.045   3.977   7.038 -1.9676  0.5265  1.9776
   68SAPC   H3Y 5778   3.915   3.953   6.930 -0.6189 -0.2717  1.5647
   68SAPC   C34 5779   3.918   4.140   7.041  0.1154  0.5934 -0.4224
   68SAPC   H4X 5780   3.863   4.090   7.124 -1.0256  1.3056 -0.7315
   68SAPC   H4Y 5781   3.853   4.203   6.977  0.7720 -0.5960 -2.3472
   68SAPC   C35 5782   4.029   4.224   7.113 -0.1803 -0.3261 -1.0784
   68SAPC   H5X 5783   4.084   4.289   7.042  0.5390 -0.5942 -0.7765
   68SAPC   H5Y 5784   4.101   4.152   7.157 -1.8506 -1.3018  0.1621
   68SAPC   C36 5785   3.961   4.329   7.215  0.1996  0.0506  0.1599
   68SAPC   H6X 5786   3.890   4.269   7.276 -0.2642 -1.2381 -1.5769
   68SAPC   H6Y 5787   3.906   4.398   7.148  1.0911 -0.3689 -1.0370
   68SAPC   C37 5788   4.075   4.397   7.304  0.1687  0.5886  0.3251
   68SAPC   H7X 5789   4.067   4.503   7.271 -0.1339 -0.1065 -2.0622
   68SAPC   H7Y 5790   4.177   4.367   7.273  0.5645  1.2388  0.9631
   68SAPC   C38 5791   4.046   4.385   7.450 -0.7703  0.6723  0.2774
   68SAPC   H8X 5792   4.056   4.275   7.460  1.8413  0.9678  1.8004
   68SAPC   H8Y 5793   3.945   4.419   7.483 -1.4679 -2.3432  1.6294
   68SAPC   C39 5794   4.159   4.445   7.538  0.3138  0.0945  0.9949
   68SAPC   H9X 5795   4.195   4.531   7.478  0.3696 -0.3316  0.4058
   68SAPC   H9Y 5796   4.245   4.375   7.545  0.7413  0.3033 -1.4503
   68SAPC  C310 5797   4.108   4.485   7.670  0.4211 -1.0834 -1.0607
   68SAPC  H10X 5798   4.069   4.404   7.735  1.5882 -0.5671  0.3507
   68SAPC  H10Y 5799   4.021   4.554   7.658 -0.1822 -1.6046  0.1452
   68SAPC  C311 5800   4.214   4.568   7.749 -0.0604  0.7678 -0.2912
   68SAPC  H11X 5801   4.252   4.654   7.690 -0.8782  0.4256 -1.3543
   68SAPC  H11Y 5802   4.302   4.503   7.768  0.6440  1.9339  0.5623
   68SAPC  C312 5803   4.167   4.623   7.881 -0.0021 -0.1591  0.2765
   68SAPC  H12X 5804   4.122   4.541   7.940  0.1468 -0.1666  0.3781
   68SAPC  H12Y 5805   4.096   4.708   7.866  1.9323  1.4166 -0.3556
   68SAPC  C313 5806   4.285   4.667   7.975 -0.1796 -0.5096 -1.0396
   68SAPC  H13X 5807   4.328   4.760   7.932 -0.4255 -0.0266 -0.2500
   68SAPC  H13Y 5808   4.370   4.595   7.973 -0.8680 -1.6590  2.9861
   68SAPC  C314 5809   4.243   4.699   8.120 -0.5252 -0.0945  0.3515
   68SAPC  H14X 5810   4.177   4.619   8.160 -1.0231  0.4357  0.6119
   68SAPC  H14Y 5811   4.192   4.797   8.108  0.2724  0.5923  2.3312
   68SAPC  C315 5812   4.358   4.717   8.220 -0.5402  0.6477  0.1947
   68SAPC  H15X 5813   4.309   4.739   8.317  2.0972  1.3805  1.4575
   68SAPC  H15Y 5814   4.423   4.804   8.195  1.6523 -0.8390  0.4462
   68SAPC  C316 5815   4.455   4.607   8.231 -0.0416  0.3439 -0.7373
   68SAPC  H16X 5816   4.502   4.601   8.131 -3.0481  0.6332 -2.2862
   68SAPC  H16Y 5817   4.404   4.508   8.240  1.2328 -0.2333  0.6013
   68SAPC  C317 5818   4.558   4.634   8.338 -0.0200 -0.2283 -1.0759
   68SAPC  H17X 5819   4.504   4.619   8.434 -2.2940  0.3103 -2.1750
   68SAPC  H17Y 5820   4.591   4.740   8.342  2.4662 -0.9706 -0.6349
   68SAPC  C318 5821   4.670   4.535   8.337 -0.1709 -0.2539 -0.1648
   68SAPC  H18X 5822   4.738   4.545   8.249 -1.7998 -0.1494 -1.4693
   68SAPC  H18Y 5823   4.631   4.431   8.336  1.5616 -0.9487 -1.1572
   68SAPC  H18Z 5824   4.729   4.552   8.429  0.6783 -0.8552 -0.5850
   69SLPC     N 5825   1.162   4.704  11.062 -0.0314 -0.0329  0.2533
   69SLPC   C13 5826   1.221   4.727  11.194 -0.3294  1.1451 -0.1726
   69SLPC  H13A 5827   1.241   4.635  11.247 -0.3765  0.2825 -1.6086
   69SLPC  H13B 5828   1.322   4.764  11.187 -0.3662  1.5260  0.9877
   69SLPC  H13C 5829   1.177   4.801  11.260  1.9035  2.3601  0.0361
   69SLPC   C14 5830   1.023   4.649  11.086  0.1806  0.7316  0.3792
   69SLPC  H14A 5831   0.972   4.617  10.996  1.1411 -2.5581  0.8815
   69SLPC  H14B 5832   1.028   4.564  11.152 -3.7815  0.0529  0.0958
   69SLPC  H14C 5833   0.959   4.716  11.141 -0.3751  0.2009  0.3843
   69SLPC   C15 5834   1.242   4.605  10.990  0.0588  0.2091 -0.5694
   69SLPC  H15A 5835   1.347   4.630  10.983  0.3394  0.2091  2.3270
   69SLPC  H15B 5836   1.231   4.508  11.036 -0.2808  0.6522  0.3181
   69SLPC  H15C 5837   1.198   4.604  10.892  0.4796  1.5849 -0.8051
   69SLPC   C12 5838   1.137   4.832  10.992 -0.0546 -0.1275 -0.0795
   69SLPC  H12A 5839   1.067   4.886  11.054 -0.9142 -2.0999  0.7369
   69SLPC  H12B 5840   1.074   4.816  10.905  0.1043  0.5701 -0.3305
   69SLPC   C11 5841   1.265   4.909  10.945 -0.3682  0.3749  0.0859
   69SLPC  H11A 5842   1.244   4.969  10.854 -0.7928  0.7278  0.4144
   69SLPC  H11B 5843   1.340   4.830  10.919 -0.9122 -0.5373  1.2091
   69SLPC     P 5844   1.268   5.132  11.084  0.1560  0.2252  0.1407
   69SLPC   O13 5845   1.118   5.135  11.082  0.0362 -0.0905 -0.9573
   69SLPC   O14 5846   1.338   5.188  11.203 -0.0058  0.2492  0.0153
   69SLPC   O12 5847   1.318   4.981  11.056 -0.0260 -0.0973 -0.1563
   69SLPC   O11 5848   1.311   5.215  10.960  0.0628  0.0565  0.8377
   69SLPC    C1 5849   1.450   5.215  10.926  0.0289 -0.1153  0.6501
   69SLPC    HA 5850   1.504   5.293  10.984 -2.0762  2.2428 -0.3602
   69SLPC    HB 5851   1.493   5.113  10.923  2.3608  0.6690  3.2529
   69SLPC    C2 5852   1.467   5.249  10.771 -0.1515  0.5469  0.1176
   69SLPC    HS 5853   1.452   5.359  10.763 -0.8888  0.5944  1.7165
   69SLPC   O21 5854   1.373   5.163  10.702  0.2031 -0.4424 -0.0847
   69SLPC   C21 5855   1.264   5.222  10.668 -0.4338  0.0797 -0.2318
   69SLPC   O22 5856   1.234   5.340  10.682 -0.2928  0.2364  0.5429
   69SLPC   C22 5857   1.174   5.111  10.610 -0.4656  0.1319 -0.0316
   69SLPC   H2R 5858   1.225   5.015  10.589 -1.8511 -0.6057 -0.1260
   69SLPC   H2S 5859   1.084   5.102  10.675 -0.1265 -2.7660  0.1570
   69SLPC    C3 5860   1.612   5.220  10.717  0.6299  0.3900  0.5502
   69SLPC    HX 5861   1.625   5.110  10.725 -0.3858  0.2444  0.3984
   69SLPC    HY 5862   1.688   5.258  10.789  0.1884  2.0808  0.1475
   69SLPC   O31 5863   1.620   5.271  10.582 -0.2014  0.0612 -0.1051
   69SLPC   C31 5864   1.645   5.188  10.487  0.7731  0.0054 -0.4612
   69SLPC   O32 5865   1.648   5.065  10.498  0.3456 -0.7498  0.2370
   69SLPC   C32 5866   1.663   5.258  10.351  0.7151 -0.1545  0.2796
   69SLPC   H2X 5867   1.743   5.336  10.349  0.2768  0.3467 -2.8953
   69SLPC   H2Y 5868   1.570   5.316  10.332  3.2123  3.1986 -3.3088
   69SLPC   C23 5869   1.108   5.159  10.477 -0.2880  0.1192 -0.1093
   69SLPC   H3R 5870   1.081   5.267  10.470  1.4088  0.4452 -3.2603
   69SLPC   H3S 5871   1.019   5.091  10.475  0.3745 -0.9166  1.9420
   69SLPC   C24 5872   1.193   5.121  10.352  0.2704 -0.1612 -0.1411
   69SLPC   H4R 5873   1.217   5.013  10.349  2.5375  0.3270 -1.7571
   69SLPC   H4S 5874   1.289   5.177  10.361  0.3727 -0.5053  0.9760
   69SLPC   C25 5875   1.115   5.160  10.229 -0.4143  0.2068  0.8850
   69SLPC   H5R 5876   1.091   5.268  10.238  0.7964  0.3186  3.8290
   69SLPC   H5S 5877   1.021   5.100  10.226 -0.4573  0.2936  0.1835
   69SLPC   C26 5878   1.192   5.129  10.095  0.1413 -0.2609  0.7179
   69SLPC   H6R 5879   1.219   5.021  10.092 -1.1431 -0.6154  1.2272
   69SLPC   H6S 5880   1.291   5.177  10.109  0.8442 -1.5090  0.1754
   69SLPC   C27 5881   1.111   5.185   9.976  0.4788  0.2205  0.1436
   69SLPC   H7R 5882   1.113   5.296   9.977 -0.1244  0.2762 -1.4963
   69SLPC   H7S 5883   1.004   5.161   9.991  1.3117 -4.6715 -0.1362
   69SLPC   C28 5884   1.140   5.133   9.833  0.0964  1.1292  0.0087
   69SLPC   H8R 5885   1.052   5.164   9.773 -1.9362 -0.8762  1.7791
   69SLPC   H8S 5886   1.137   5.022   9.831  1.6715  0.9946  1.7949
   69SLPC   C29 5887   1.281   5.159   9.780  0.4070  0.1556  0.2692
   69SLPC   H9R 5888   1.349   5.177   9.864  0.9200 -0.3718 -0.0284
   69SLPC  C210 5889   1.311   5.181   9.653 -0.9261  0.3786 -0.0277
   69SLPC  H10R 5890   1.416   5.196   9.628 -0.7778 -1.0061 -0.3257
   69SLPC  C211 5891   1.222   5.158   9.536  0.7015 -0.3655  0.0446
   69SLPC  H11R 5892   1.138   5.086   9.552  0.5870  0.1441  1.9399
   69SLPC  H11S 5893   1.279   5.112   9.452  2.2382  0.6701  0.4743
   69SLPC  C212 5894   1.167   5.290   9.492  0.6159  0.0608 -0.2992
   69SLPC  H12R 5895   1.199   5.381   9.544 -0.9277  0.2771  0.3283
   69SLPC  C213 5896   1.085   5.304   9.385  0.7093 -0.8556 -0.1389
   69SLPC  H13R 5897   1.051   5.402   9.349 -0.2917 -1.1040  0.0891
   69SLPC  C214 5898   1.034   5.189   9.303 -0.1453 -0.0197  0.2722
   69SLPC  H14R 5899   0.928   5.210   9.279  0.0740  1.0143  0.1560
   69SLPC  H14S 5900   1.035   5.094   9.362 -0.8841  0.5148  1.1602
   69SLPC  C215 5901   1.108   5.163   9.173  0.6064 -0.4123  0.2974
   69SLPC  H15R 5902   1.061   5.069   9.137  0.5703 -0.7308  1.1605
   69SLPC  H15S 5903   1.217   5.141   9.183  0.3043 -2.2237  0.0553
   69SLPC  C216 5904   1.081   5.273   9.069 -0.0689 -0.1522 -0.1212
   69SLPC  H16R 5905   1.134   5.366   9.096  1.9291 -1.4741  0.7146
   69SLPC  H16S 5906   0.971   5.291   9.079  0.0493  1.2156 -0.9669
   69SLPC  C217 5907   1.122   5.222   8.926  0.6197 -0.6658  0.1033
   69SLPC  H17R 5908   1.043   5.248   8.853  0.8054 -0.6548 -0.0949
   69SLPC  H17S 5909   1.134   5.111   8.924 -1.1517 -0.8657 -1.2611
   69SLPC  C218 5910   1.253   5.281   8.875  0.4178 -0.7104 -0.0938
   69SLPC  H18R 5911   1.287   5.245   8.775 -1.1973  1.2506 -1.4143
   69SLPC  H18S 5912   1.326   5.250   8.954 -0.8748  0.6103  1.6955
   69SLPC  H18T 5913   1.247   5.392   8.873 -2.1692 -0.8051  0.0873
   69SLPC   C33 5914   1.658   5.165  10.232 -0.0738 -0.0490  0.1898
   69SLPC   H3X 5915   1.571   5.096  10.245  0.8274 -1.2759 -0.1457
   69SLPC   H3Y 5916   1.741   5.093  10.246 -1.7613 -2.2151 -0.2693
   69SLPC   C34 5917   1.648   5.205  10.087 -0.5773 -0.4707  0.1929
   69SLPC   H4X 5918   1.746   5.244  10.050  0.0049 -2.3491 -0.3649
   69SLPC   H4Y 5919   1.569   5.283  10.077 -0.1215 -0.2110 -1.9641
   69SLPC   C35 5920   1.621   5.092   9.988 -0.2016 -0.4095 -0.0022
   69SLPC   H5X 5921   1.527   5.041  10.020 -0.4646  0.6692  1.0314
   69SLPC   H5Y 5922   1.698   5.013   9.997  0.3593 -0.3466 -3.0929
   69SLPC   C36 5923   1.614   5.135   9.837 -0.1714  0.1319  0.1333
   69SLPC   H6X 5924   1.574   5.238   9.821 -1.3414 -0.6597 -2.4487
   69SLPC   H6Y 5925   1.557   5.060   9.779  1.6915  0.7698 -2.7123
   69SLPC   C37 5926   1.753   5.138   9.778 -0.4172  1.1578 -0.0436
   69SLPC   H7X 5927   1.803   5.043   9.805  3.0162  3.1713  1.2941
   69SLPC   H7Y 5928   1.804   5.229   9.817 -1.2264  1.5587  0.0855
   69SLPC   C38 5929   1.756   5.130   9.619  0.1499 -0.0567 -0.0595
   69SLPC   H8X 5930   1.731   5.028   9.582 -0.9898  0.0593  0.3307
   69SLPC   H8Y 5931   1.863   5.144   9.593  0.0312 -1.9883 -1.8760
   69SLPC   C39 5932   1.699   5.243   9.546  0.4152 -1.2695  0.5588
   69SLPC   H9X 5933   1.755   5.336   9.567 -1.7984  0.3956 -0.5514
   69SLPC   H9Y 5934   1.602   5.265   9.594  0.4226  1.0177 -0.3407
   69SLPC  C310 5935   1.692   5.230   9.390  0.5081  0.7401  0.3060
   69SLPC  H10X 5936   1.680   5.125   9.358 -3.4957  1.0314  0.3692
   69SLPC  H10Y 5937   1.795   5.260   9.360  0.4778 -0.0751 -0.6726
   69SLPC  C311 5938   1.582   5.319   9.336 -0.5725  0.1524 -0.2351
   69SLPC  H11X 5939   1.595   5.420   9.381  1.1253  0.5502 -1.4745
   69SLPC  H11Y 5940   1.484   5.287   9.375  0.3273 -0.7327  1.4178
   69SLPC  C312 5941   1.562   5.326   9.181 -0.4472 -0.0033 -0.0789
   69SLPC  H12X 5942   1.475   5.392   9.160 -1.5684 -2.1809 -2.9953
   69SLPC  H12Y 5943   1.530   5.225   9.145  2.2501 -1.1468  0.4570
   69SLPC  C313 5944   1.686   5.389   9.112 -0.7592  0.3517 -0.7286
   69SLPC  H13X 5945   1.772   5.324   9.134 -1.7030 -1.7678 -2.8367
   69SLPC  H13Y 5946   1.690   5.490   9.158 -4.9406  1.2046 -1.7710
   69SLPC  C314 5947   1.670   5.390   8.962  0.1679 -0.2781 -0.0785
   69SLPC  H14X 5948   1.578   5.445   8.934  0.6052  0.3388 -0.3365
   69SLPC  H14Y 5949   1.665   5.285   8.926  0.4155 -0.6621  0.9628
   69SLPC  C315 5950   1.789   5.460   8.891 -0.2126  0.1311 -0.8773
   69SLPC  H15X 5951   1.876   5.391   8.891 -1.7646 -1.9499  0.6138
   69SLPC  H15Y 5952   1.804   5.548   8.957 -0.3887 -1.1853  1.0078
   69SLPC  C316 5953   1.754   5.494   8.744  0.4121 -0.3514 -0.0288
   69SLPC  H16X 5954   1.714   5.399   8.705 -1.3423  0.7302 -0.9842
   69SLPC  H16Y 5955   1.850   5.520   8.695  0.4492 -0.9906 -0.3010
   69SLPC  C317 5956   1.657   5.611   8.728 -0.2455  0.7936 -0.6637
   69SLPC  H17X 5957   1.704   5.699   8.777  3.0591 -1.3306  0.2760
   69SLPC  H17Y 5958   1.562   5.588   8.781  0.3934 -0.8765 -0.1671
   69SLPC  C318 5959   1.627   5.658   8.583  0.4983 -1.3014  0.3259
   69SLPC  H18X 5960   1.721   5.698   8.538 -0.6473  0.7257 -0.4087
   69SLPC  H18Y 5961   1.557   5.744   8.580  1.9423 -0.0804  0.4520
   69SLPC  H18Z 5962   1.600   5.568   8.525 -1.0321 -0.0681 -0.9719
   70SLPC     N 5963   1.247   2.953  11.068  0.7959  0.2045 -0.1096
   70SLPC   C13 5964   1.126   2.886  11.107  0.1109 -0.0447  0.7658
   70SLPC  H13A 5965   1.096   2.906  11.209 -0.2493 -0.7017  0.7972
   70SLPC  H13B 5966   1.037   2.913  11.053  0.6295 -0.5419 -0.3773
   70SLPC  H13C 5967   1.135   2.779  11.093 -2.0893 -0.0269 -1.3395
   70SLPC   C14 5968   1.361   2.883  11.129  0.2200  0.0470 -0.4067
   70SLPC  H14A 5969   1.368   2.896  11.236 -2.4503 -0.6082 -0.0804
   70SLPC  H14B 5970   1.359   2.777  11.111  2.9361 -0.1664  0.1037
   70SLPC  H14C 5971   1.449   2.929  11.085 -0.9868  3.5280  0.5349
   70SLPC   C15 5972   1.248   3.092  11.116 -0.6779 -0.4426  0.3290
   70SLPC  H15A 5973   1.162   3.141  11.073  0.2937 -0.3884 -1.7105
   70SLPC  H15B 5974   1.250   3.109  11.222 -0.9233  0.7605  0.1562
   70SLPC  H15C 5975   1.331   3.137  11.064 -0.3756 -2.1619 -0.7967
   70SLPC   C12 5976   1.254   2.958  10.917  0.5963 -0.7867  0.3355
   70SLPC  H12A 5977   1.341   3.017  10.894 -0.1126  1.7983  3.5797
   70SLPC  H12B 5978   1.163   3.006  10.882 -0.0195 -2.7599 -0.9788
   70SLPC   C11 5979   1.260   2.832  10.834 -0.3918  0.1711  0.0597
   70SLPC  H11A 5980   1.272   2.858  10.727  2.3069 -3.7440 -0.7952
   70SLPC  H11B 5981   1.166   2.779  10.859 -2.3480  2.8592 -1.2037
   70SLPC     P 5982   1.522   2.791  10.833 -0.3660  0.2304  0.0812
   70SLPC   O13 5983   1.567   2.918  10.897  0.3019  0.5306 -0.2634
   70SLPC   O14 5984   1.604   2.673  10.873 -0.1545  0.3873  0.7001
   70SLPC   O12 5985   1.374   2.760  10.869 -0.0927 -0.2548 -0.0387
   70SLPC   O11 5986   1.507   2.792  10.673 -0.2351 -0.6807  0.3031
   70SLPC    C1 5987   1.446   2.695  10.590 -0.4812 -0.3023  0.4988
   70SLPC    HA 5988   1.468   2.593  10.630  0.5517 -0.0948  0.4756
   70SLPC    HB 5989   1.336   2.706  10.585 -0.2465  2.1130 -0.6849
   70SLPC    C2 5990   1.501   2.716  10.453  0.1123 -0.2155 -0.3483
   70SLPC    HS 5991   1.609   2.699  10.471  0.0326 -0.5910 -0.2196
   70SLPC   O21 5992   1.461   2.844  10.408  0.4948 -0.1346  0.6565
   70SLPC   C21 5993   1.556   2.892  10.324  0.9677 -0.2628 -0.5569
   70SLPC   O22 5994   1.657   2.833  10.292 -0.1404  0.1275 -0.1805
   70SLPC   C22 5995   1.513   3.019  10.265  1.1631  0.0272 -0.5031
   70SLPC   H2R 5996   1.485   3.084  10.351 -0.4881  0.0851 -1.0579
   70SLPC   H2S 5997   1.591   3.068  10.202  1.4386 -0.7469 -0.7664
   70SLPC    C3 5998   1.442   2.608  10.361 -0.7902 -0.3665  0.4115
   70SLPC    HX 5999   1.332   2.610  10.372 -0.8084 -1.1600  0.4616
   70SLPC    HY 6000   1.474   2.512  10.407  0.1298 -0.0210  0.5192
   70SLPC   O31 6001   1.475   2.607  10.222 -0.5503 -0.1853  0.3244
   70SLPC   C31 6002   1.595   2.559  10.198 -0.1204  1.0005  0.0096
   70SLPC   O32 6003   1.674   2.514  10.282 -0.3634  0.1083 -0.3018
   70SLPC   C32 6004   1.632   2.576  10.047  0.5897  0.6172 -0.3198
   70SLPC   H2X 6005   1.742   2.569  10.041  0.9524  4.1042  0.2314
   70SLPC   H2Y 6006   1.606   2.680  10.017 -1.7529  0.2839  0.3142
   70SLPC   C23 6007   1.381   3.000  10.184 -0.6384  0.2670 -0.2104
   70SLPC   H3R 6008   1.318   3.090  10.165 -3.1794 -1.4737 -0.3848
   70SLPC   H3S 6009   1.314   2.934  10.242 -1.1040 -0.1987 -1.2547
   70SLPC   C24 6010   1.390   2.931  10.048 -0.2879  1.1188 -0.0584
   70SLPC   H4R 6011   1.290   2.923   9.999 -0.2232  2.0679 -0.3621
   70SLPC   H4S 6012   1.439   2.831  10.045  3.4938  2.8375  0.0204
   70SLPC   C25 6013   1.459   3.014   9.941 -0.0324  0.8109  0.1851
   70SLPC   H5R 6014   1.569   3.010   9.957  0.0696  1.6964 -0.2465
   70SLPC   H5S 6015   1.424   3.118   9.956 -1.2029  0.2647  1.3671
   70SLPC   C26 6016   1.440   2.962   9.800  1.1291  0.2819 -0.7492
   70SLPC   H6R 6017   1.332   2.943   9.779  0.9341  0.8407 -0.2745
   70SLPC   H6S 6018   1.485   2.861   9.794 -0.4078 -0.5376  0.6626
   70SLPC   C27 6019   1.502   3.050   9.695 -0.1534 -0.5806 -0.6657
   70SLPC   H7R 6020   1.609   3.062   9.721  0.5015 -1.4029 -2.7604
   70SLPC   H7S 6021   1.473   3.157   9.695  1.1401 -0.1440 -3.4877
   70SLPC   C28 6022   1.494   3.001   9.558  0.8212  0.0296 -0.8220
   70SLPC   H8R 6023   1.534   3.068   9.478 -1.2743  1.4229 -0.7786
   70SLPC   H8S 6024   1.385   3.001   9.537  0.2200 -1.9931  1.7818
   70SLPC   C29 6025   1.535   2.863   9.527  0.6535  0.0574  0.1944
   70SLPC   H9R 6026   1.587   2.810   9.609  2.0056  0.9843 -0.0314
   70SLPC  C210 6027   1.519   2.804   9.406  0.5414 -0.0089 -0.2951
   70SLPC  H10R 6028   1.547   2.699   9.387 -2.3874 -0.5489 -2.1726
   70SLPC  C211 6029   1.455   2.877   9.295  0.4379 -0.0280  0.0197
   70SLPC  H11R 6030   1.496   2.850   9.195 -2.3063  1.5954 -1.6752
   70SLPC  H11S 6031   1.466   2.987   9.306  0.3532  0.0674 -0.7824
   70SLPC  C212 6032   1.309   2.838   9.273  0.5990  0.4581  0.8721
   70SLPC  H12R 6033   1.240   2.878   9.350  1.0589  2.5055  0.2946
   70SLPC  C213 6034   1.241   2.779   9.167 -0.3021 -0.4347 -0.1527
   70SLPC  H13R 6035   1.135   2.754   9.185  0.0013 -0.9107  1.0365
   70SLPC  C214 6036   1.303   2.728   9.037 -0.6995  0.3409  0.0777
   70SLPC  H14R 6037   1.395   2.786   9.013 -1.7916  1.8522 -0.6339
   70SLPC  H14S 6038   1.232   2.754   8.955 -1.3408  0.4609  0.6656
   70SLPC  C215 6039   1.340   2.575   9.030 -0.8773  0.4639  0.3250
   70SLPC  H15R 6040   1.254   2.509   9.054 -0.6463 -0.2059 -0.6524
   70SLPC  H15S 6041   1.430   2.559   9.094  0.7259  1.1194 -1.6449
   70SLPC  C216 6042   1.368   2.549   8.879  0.6843 -0.0657 -0.6373
   70SLPC  H16R 6043   1.394   2.644   8.828  0.1461 -0.7863 -2.3274
   70SLPC  H16S 6044   1.274   2.512   8.833  0.4548 -1.8325  1.1271
   70SLPC  C217 6045   1.481   2.464   8.832  0.0561 -0.0931 -0.8773
   70SLPC  H17R 6046   1.558   2.462   8.911 -0.7074 -1.4111 -0.1256
   70SLPC  H17S 6047   1.517   2.504   8.735 -2.5426  0.1997 -1.8128
   70SLPC  C218 6048   1.441   2.319   8.810 -0.3589  0.3350 -0.3625
   70SLPC  H18R 6049   1.396   2.280   8.904 -0.1444 -0.8224 -0.7265
   70SLPC  H18S 6050   1.534   2.272   8.771 -0.5334 -0.3365  0.0170
   70SLPC  H18T 6051   1.362   2.323   8.733 -2.6154  1.9447  1.8545
   70SLPC   C33 6052   1.553   2.487   9.945 -1.0224 -0.6662  0.2803
   70SLPC   H3X 6053   1.442   2.496   9.946 -1.0853 -1.3433  0.3898
   70SLPC   H3Y 6054   1.583   2.381   9.958 -0.1311 -0.4527  0.0068
   70SLPC   C34 6055   1.583   2.535   9.800  0.3535 -0.2622  0.9540
   70SLPC   H4X 6056   1.693   2.550   9.794  0.2347  0.0193 -1.5635
   70SLPC   H4Y 6057   1.539   2.635   9.781 -0.8071 -0.7461  1.0454
   70SLPC   C35 6058   1.541   2.437   9.697  0.0100  0.1777  0.2872
   70SLPC   H5X 6059   1.583   2.341   9.735  0.8106  0.5485  0.3607
   70SLPC   H5Y 6060   1.585   2.461   9.598  0.1627  0.5782  0.4518
   70SLPC   C36 6061   1.386   2.415   9.671  0.2388 -0.1307  0.0996
   70SLPC   H6X 6062   1.333   2.509   9.700  1.2742  0.9241 -1.2691
   70SLPC   H6Y 6063   1.344   2.329   9.726  0.3011 -0.0908  0.2107
   70SLPC   C37 6064   1.351   2.380   9.526 -0.3498 -0.5604  0.2482
   70SLPC   H7X 6065   1.397   2.461   9.466 -1.0568  0.0565  0.5319
   70SLPC   H7Y 6066   1.242   2.390   9.505  0.2433 -0.4459 -3.5084
   70SLPC   C38 6067   1.406   2.238   9.486  0.0200  0.3185 -0.1364
   70SLPC   H8X 6068   1.354   2.160   9.545  1.2245 -0.1987  0.2807
   70SLPC   H8Y 6069   1.509   2.229   9.528 -0.2488 -0.5159  0.3796
   70SLPC   C39 6070   1.401   2.221   9.337  0.1448 -0.0606 -0.3826
   70SLPC   H9X 6071   1.462   2.128   9.326  0.4472 -0.6950  4.4772
   70SLPC   H9Y 6072   1.444   2.313   9.291 -1.8565  1.0253 -0.2017
   70SLPC  C310 6073   1.258   2.203   9.292  0.5219  0.5376 -0.3571
   70SLPC  H10X 6074   1.208   2.293   9.334 -1.3787 -0.7503  0.2707
   70SLPC  H10Y 6075   1.216   2.115   9.345  1.2498  1.1387  1.2792
   70SLPC  C311 6076   1.240   2.180   9.147  0.2774  0.4281  0.9369
   70SLPC  H11X 6077   1.310   2.102   9.109 -0.4592  1.2975 -2.5935
   70SLPC  H11Y 6078   1.257   2.277   9.096  1.7575  0.0210  0.6062
   70SLPC  C312 6079   1.099   2.134   9.108 -0.2874 -0.0402  0.6448
   70SLPC  H12X 6080   1.034   2.197   9.172  2.4723  2.4254  1.2138
   70SLPC  H12Y 6081   1.068   2.029   9.128 -2.3025  0.0126 -1.6449
   70SLPC  C313 6082   1.063   2.164   8.965  0.5699  0.2543 -0.3753
   70SLPC  H13X 6083   1.108   2.088   8.897 -0.7224 -2.4014  1.5308
   70SLPC  H13Y 6084   1.100   2.262   8.928 -0.3461  0.0076 -2.0364
   70SLPC  C314 6085   0.919   2.148   8.932  0.3183 -0.3222  0.0510
   70SLPC  H14X 6086   0.860   2.186   9.019 -0.9634  0.7159 -1.2181
   70SLPC  H14Y 6087   0.888   2.043   8.919 -1.8957  0.1590  0.9394
   70SLPC  C315 6088   0.872   2.243   8.820  0.2946  0.5362 -0.3643
   70SLPC  H15X 6089   0.919   2.203   8.728 -1.5430 -2.9240  0.0396
   70SLPC  H15Y 6090   0.911   2.346   8.837  0.7750  0.1163  1.3594
   70SLPC  C316 6091   0.717   2.221   8.791 -0.0149  0.1144 -0.1150
   70SLPC  H16X 6092   0.671   2.278   8.875  0.7721  1.1196 -0.3360
   70SLPC  H16Y 6093   0.704   2.111   8.790  0.8538 -0.0004  0.4298
   70SLPC  C317 6094   0.689   2.293   8.655 -0.1983  0.5265  0.1137
   70SLPC  H17X 6095   0.764   2.260   8.581  1.5336 -0.9786  2.4094
   70SLPC  H17Y 6096   0.715   2.401   8.668 -0.6939  0.8041 -1.0728
   70SLPC  C318 6097   0.546   2.273   8.601 -0.0865 -0.0609 -0.2658
   70SLPC  H18X 6098   0.469   2.310   8.672 -0.0712 -1.1210  0.3342
   70SLPC  H18Y 6099   0.525   2.165   8.583 -1.7814  0.6482 -3.3300
   70SLPC  H18Z 6100   0.527   2.322   8.504  0.2440 -0.3808 -0.4960
   71SLPC     N 6101   1.936   1.052  11.000 -0.1244 -0.1535  0.3813
   71SLPC   C13 6102   1.859   0.933  11.022  0.0051  0.2030 -0.1615
   71SLPC  H13A 6103   1.863   0.901  11.125  2.8022 -3.5653 -1.2264
   71SLPC  H13B 6104   1.755   0.941  10.992 -0.1802 -1.8715 -0.2188
   71SLPC  H13C 6105   1.902   0.855  10.961 -1.0453  0.0232 -0.6906
   71SLPC   C14 6106   2.078   1.030  11.052  0.4372 -0.5724  0.3193
   71SLPC  H14A 6107   2.092   0.979  11.146 -0.9694 -1.5407  0.0372
   71SLPC  H14B 6108   2.137   0.970  10.984  0.4725 -0.3796  0.1793
   71SLPC  H14C 6109   2.127   1.126  11.063 -0.6336 -0.0828  1.0440
   71SLPC   C15 6110   1.881   1.165  11.088 -0.2158  1.1749  1.1425
   71SLPC  H15A 6111   1.781   1.190  11.054  0.3391 -0.0755 -1.7606
   71SLPC  H15B 6112   1.870   1.130  11.190 -1.7272 -0.5037  0.4586
   71SLPC  H15C 6113   1.949   1.248  11.078  0.3771  0.5604 -0.2048
   71SLPC   C12 6114   1.940   1.095  10.850 -0.9314  0.2864 -0.3535
   71SLPC  H12A 6115   1.986   1.011  10.799 -1.5623 -1.4639  1.8261
   71SLPC  H12B 6116   1.993   1.189  10.843 -1.1402  0.3791 -0.7806
   71SLPC   C11 6117   1.802   1.120  10.790 -0.5934  0.4194 -0.1517
   71SLPC  H11A 6118   1.830   1.149  10.687 -2.9500  3.7843 -0.0088
   71SLPC  H11B 6119   1.755   1.211  10.834  0.8399  1.7470 -1.2418
   71SLPC     P 6120   1.745   0.878  10.691  0.0862 -0.1491 -0.2062
   71SLPC   O13 6121   1.878   0.819  10.720 -0.4576  0.1934  0.0690
   71SLPC   O14 6122   1.630   0.781  10.709 -0.1695  0.1362  0.7621
   71SLPC   O12 6123   1.718   1.004  10.790 -0.5841 -0.1800 -0.5430
   71SLPC   O11 6124   1.726   0.935  10.540 -0.8325 -0.1114  0.2508
   71SLPC    C1 6125   1.738   0.868  10.415 -0.3599  1.4514  0.6245
   71SLPC    HA 6126   1.836   0.817  10.408 -0.4048  1.3546  0.6850
   71SLPC    HB 6127   1.655   0.798  10.392 -0.1155  1.0386  0.9698
   71SLPC    C2 6128   1.717   0.978  10.311 -0.0818 -0.8339 -0.0833
   71SLPC    HS 6129   1.610   1.008  10.309 -0.1682 -1.1737 -1.1893
   71SLPC   O21 6130   1.759   0.928  10.184  0.1191 -0.0943 -0.0615
   71SLPC   C21 6131   1.663   0.863  10.122 -0.5863 -0.5214  0.3033
   71SLPC   O22 6132   1.557   0.841  10.174  0.1647 -0.7017  0.3803
   71SLPC   C22 6133   1.689   0.837   9.976 -0.1680  0.1126  0.1340
   71SLPC   H2R 6134   1.793   0.873   9.956  0.0170 -0.3218  0.3061
   71SLPC   H2S 6135   1.684   0.730   9.949 -1.0296 -0.0072  0.7259
   71SLPC    C3 6136   1.807   1.101  10.342  0.1858 -0.6960  0.0387
   71SLPC    HX 6137   1.913   1.074  10.323  0.7757  0.8207  0.9981
   71SLPC    HY 6138   1.781   1.136  10.444 -0.8673 -0.3320 -0.3346
   71SLPC   O31 6139   1.770   1.206  10.243  0.0953 -0.0402 -0.5732
   71SLPC   C31 6140   1.870   1.289  10.230 -0.7478 -0.0586  0.2510
   71SLPC   O32 6141   1.956   1.303  10.309  0.7667 -0.2832 -0.1913
   71SLPC   C32 6142   1.876   1.344  10.091  0.2653 -0.4541  0.0318
   71SLPC   H2X 6143   1.980   1.334  10.053  0.8886 -1.1538  1.8131
   71SLPC   H2Y 6144   1.861   1.451  10.116  0.3730 -0.6187  0.8240
   71SLPC   C23 6145   1.600   0.916   9.876  0.2044 -0.2098  0.3419
   71SLPC   H3R 6146   1.634   1.021   9.866 -1.2479  0.1324 -1.6246
   71SLPC   H3S 6147   1.499   0.916   9.923 -0.6672  0.8807 -1.4050
   71SLPC   C24 6148   1.588   0.852   9.741  0.1100 -0.4286  1.2506
   71SLPC   H4R 6149   1.552   0.747   9.737  1.1370 -0.7536 -0.3478
   71SLPC   H4S 6150   1.684   0.838   9.687 -0.8118  0.1398 -0.6390
   71SLPC   C25 6151   1.502   0.930   9.634  0.8171 -0.7653 -0.4141
   71SLPC   H5R 6152   1.542   1.034   9.622 -2.4087  0.7278  0.8190
   71SLPC   H5S 6153   1.397   0.940   9.668  0.8220  1.6991 -0.9517
   71SLPC   C26 6154   1.500   0.850   9.502  0.6500  0.2201 -0.7289
   71SLPC   H6R 6155   1.410   0.856   9.437  0.5065 -1.9280 -0.7927
   71SLPC   H6S 6156   1.502   0.745   9.536  0.4306  0.5284  0.2777
   71SLPC   C27 6157   1.616   0.882   9.411 -0.0985  0.5151 -0.3908
   71SLPC   H7R 6158   1.716   0.857   9.451 -0.8244 -1.0322  0.5347
   71SLPC   H7S 6159   1.621   0.992   9.393  0.7032  0.6651  0.6502
   71SLPC   C28 6160   1.612   0.806   9.274 -0.8730  0.8452 -0.3069
   71SLPC   H8R 6161   1.708   0.830   9.223 -2.0211  0.6552 -2.6818
   71SLPC   H8S 6162   1.532   0.852   9.212  0.2625  0.8953 -1.7710
   71SLPC   C29 6163   1.592   0.656   9.280 -0.3464 -0.2127  0.1730
   71SLPC   H9R 6164   1.521   0.617   9.354 -0.6823 -0.8874 -0.4828
   71SLPC  C210 6165   1.671   0.559   9.223 -0.1724 -0.2440  0.3758
   71SLPC  H10R 6166   1.637   0.455   9.232 -1.9154  0.2014 -0.5999
   71SLPC  C211 6167   1.777   0.581   9.122  0.1971 -0.1611 -0.1042
   71SLPC  H11R 6168   1.830   0.676   9.140 -1.7103  0.7540  1.0284
   71SLPC  H11S 6169   1.732   0.589   9.021 -0.9041 -2.2311  0.1620
   71SLPC  C212 6170   1.872   0.465   9.140 -0.1240 -0.0857  0.6933
   71SLPC  H12R 6171   1.905   0.444   9.243  1.4739  0.2033  0.2589
   71SLPC  C213 6172   1.913   0.391   9.036 -0.5183 -0.0338  0.0831
   71SLPC  H13R 6173   1.991   0.315   9.050 -1.8170 -0.9132  3.3459
   71SLPC  C214 6174   1.878   0.413   8.886 -0.4610  1.1674 -0.7923
   71SLPC  H14R 6175   1.962   0.464   8.834  1.8490 -0.8802  0.7080
   71SLPC  H14S 6176   1.784   0.472   8.880 -2.3261 -1.1968  1.9813
   71SLPC  C215 6177   1.859   0.278   8.812  0.4888 -0.2011  0.2803
   71SLPC  H15R 6178   1.939   0.209   8.845  0.2153 -1.5769 -1.7315
   71SLPC  H15S 6179   1.874   0.295   8.703 -2.7271 -1.2282 -0.4439
   71SLPC  C216 6180   1.721   0.225   8.821  0.2381  0.6497 -0.0358
   71SLPC  H16R 6181   1.655   0.314   8.819 -0.4128  0.2330  1.4293
   71SLPC  H16S 6182   1.700   0.158   8.907 -0.1611 -0.3967 -0.9213
   71SLPC  C217 6183   1.680   0.139   8.696  0.5276 -0.1092 -0.2262
   71SLPC  H17R 6184   1.591   0.075   8.710  1.0174 -0.9448 -0.8902
   71SLPC  H17S 6185   1.762   0.064   8.690  1.0897  0.4942 -0.3053
   71SLPC  C218 6186   1.663   0.215   8.560 -0.6109  0.2680 -0.6992
   71SLPC  H18R 6187   1.607   0.159   8.482  2.1480  0.9674 -3.3249
   71SLPC  H18S 6188   1.763   0.230   8.515 -0.7520  2.4477 -0.3774
   71SLPC  H18T 6189   1.610   0.312   8.577 -1.6017 -0.2483 -0.7353
   71SLPC   C33 6190   1.776   1.296   9.981 -0.1519 -0.4178  0.3722
   71SLPC   H3X 6191   1.672   1.308  10.020 -0.1287  0.5457  0.1514
   71SLPC   H3Y 6192   1.803   1.190   9.960 -0.3831 -0.3348 -0.3558
   71SLPC   C34 6193   1.793   1.370   9.844  0.0919  0.0456 -1.0172
   71SLPC   H4X 6194   1.897   1.355   9.811  0.3265  0.8243 -0.6636
   71SLPC   H4Y 6195   1.774   1.476   9.872 -2.1495 -0.9624  1.8473
   71SLPC   C35 6196   1.695   1.331   9.735 -0.0327  0.3193 -0.1034
   71SLPC   H5X 6197   1.590   1.329   9.771 -0.2863  1.6377 -0.7158
   71SLPC   H5Y 6198   1.722   1.225   9.713  1.5943  0.8616 -0.9192
   71SLPC   C36 6199   1.702   1.410   9.601  0.0768  0.3264 -0.3267
   71SLPC   H6X 6200   1.802   1.403   9.552 -0.5767 -1.4224 -1.4823
   71SLPC   H6Y 6201   1.680   1.515   9.631 -1.8843  0.0802 -0.8029
   71SLPC   C37 6202   1.587   1.375   9.515  1.0007  0.1921  0.2108
   71SLPC   H7X 6203   1.490   1.382   9.569  1.5489  0.2358  1.2139
   71SLPC   H7Y 6204   1.603   1.269   9.485  0.6589  0.2003 -0.0066
   71SLPC   C38 6205   1.571   1.458   9.377  0.1360 -1.1586 -0.1246
   71SLPC   H8X 6206   1.583   1.566   9.404  1.1246 -1.6148  1.4259
   71SLPC   H8Y 6207   1.470   1.434   9.337  0.2478 -0.4949 -0.8221
   71SLPC   C39 6208   1.691   1.443   9.286 -0.4591  0.7475  0.1705
   71SLPC   H9X 6209   1.707   1.334   9.272  0.3291  0.9103 -0.2100
   71SLPC   H9Y 6210   1.774   1.497   9.336  0.0765  0.0253  0.0729
   71SLPC  C310 6211   1.690   1.502   9.141 -0.1988  0.0338 -0.0261
   71SLPC  H10X 6212   1.690   1.610   9.163 -1.9764 -0.3479  2.1686
   71SLPC  H10Y 6213   1.605   1.477   9.074 -0.0518  1.0994 -0.6379
   71SLPC  C311 6214   1.821   1.470   9.067  0.6067  0.1650  0.4708
   71SLPC  H11X 6215   1.810   1.367   9.028  0.8487 -0.2235  1.4006
   71SLPC  H11Y 6216   1.904   1.482   9.139  1.5439 -0.9147 -0.3895
   71SLPC  C312 6217   1.828   1.566   8.945 -0.2980  0.0508  0.7019
   71SLPC  H12X 6218   1.849   1.662   8.997  0.8882 -0.0627  0.4673
   71SLPC  H12Y 6219   1.738   1.562   8.881 -0.8701 -0.7756  1.5215
   71SLPC  C313 6220   1.949   1.536   8.850 -0.1947  0.3352 -0.6738
   71SLPC  H13X 6221   1.950   1.437   8.798  2.7938  0.6137 -1.3538
   71SLPC  H13Y 6222   2.048   1.534   8.900 -1.6117 -1.1378  2.2987
   71SLPC  C314 6223   1.948   1.643   8.743  0.3236  0.2602  0.1732
   71SLPC  H14X 6224   1.938   1.746   8.784  0.1440  0.9939 -1.6520
   71SLPC  H14Y 6225   1.858   1.614   8.685 -0.0670 -2.4965  1.9538
   71SLPC  C315 6226   2.060   1.628   8.643 -0.4243 -0.1250 -0.5093
   71SLPC  H15X 6227   2.046   1.703   8.563  1.9052 -0.3916 -1.2290
   71SLPC  H15Y 6228   2.061   1.527   8.597  1.2003 -0.2227 -0.3315
   71SLPC  C316 6229   2.198   1.658   8.696  0.1964  0.2908  0.6833
   71SLPC  H16X 6230   2.236   1.588   8.774  0.4579  0.2593  0.5295
   71SLPC  H16Y 6231   2.191   1.762   8.735 -1.2554  0.7045 -0.5918
   71SLPC  C317 6232   2.298   1.676   8.580 -0.2932 -0.1516 -0.2579
   71SLPC  H17X 6233   2.249   1.737   8.501  0.2902 -0.0734 -0.5702
   71SLPC  H17Y 6234   2.301   1.576   8.531 -2.3618 -0.6603  0.5429
   71SLPC  C318 6235   2.427   1.732   8.631 -0.5841  0.4888  0.0834
   71SLPC  H18X 6236   2.508   1.718   8.556 -0.7920 -0.6490  0.0482
   71SLPC  H18Y 6237   2.460   1.680   8.723 -1.4710  0.7170  0.5392
   71SLPC  H18Z 6238   2.407   1.838   8.658 -0.0092  0.5884  0.1443
   72SLPC     N 6239   3.654   6.458  11.291  0.2127  0.2198 -0.4678
   72SLPC   C13 6240   3.537   6.554  11.335  0.2755 -0.0748  0.4423
   72SLPC  H13A 6241   3.464   6.566  11.257 -1.4614 -1.3904  1.7638
   72SLPC  H13B 6242   3.475   6.508  11.412  0.5951  0.6234  1.1299
   72SLPC  H13C 6243   3.577   6.651  11.359 -3.1224  1.5374  0.1413
   72SLPC   C14 6244   3.583   6.337  11.239 -0.1901  0.0264 -0.2292
   72SLPC  H14A 6245   3.508   6.306  11.310  0.5035 -0.1158  0.4499
   72SLPC  H14B 6246   3.538   6.362  11.144 -0.4646 -3.4376 -1.1558
   72SLPC  H14C 6247   3.651   6.253  11.226  0.3835  0.1196  1.8668
   72SLPC   C15 6248   3.736   6.418  11.422 -0.0093  0.0796  0.0561
   72SLPC  H15A 6249   3.784   6.501  11.472  0.6283 -1.8646  2.8733
   72SLPC  H15B 6250   3.662   6.377  11.488 -1.6621  0.7380 -1.3258
   72SLPC  H15C 6251   3.807   6.338  11.408 -0.8159 -0.6768  0.2159
   72SLPC   C12 6252   3.748   6.510  11.188  0.2937 -0.7612  0.7073
   72SLPC  H12A 6253   3.829   6.440  11.181 -0.4291 -1.4590 -1.3317
   72SLPC  H12B 6254   3.793   6.600  11.226  1.0436 -0.3622 -1.0298
   72SLPC   C11 6255   3.694   6.542  11.044  0.5931 -0.7026  1.2664
   72SLPC  H11A 6256   3.767   6.601  10.984  0.0535 -0.1971  1.0990
   72SLPC  H11B 6257   3.605   6.608  11.050  1.8907  0.9714  3.8882
   72SLPC     P 6258   3.759   6.322  10.910  0.0091 -0.2404 -0.0252
   72SLPC   O13 6259   3.897   6.341  10.969  0.3196 -0.0624  0.5867
   72SLPC   O14 6260   3.702   6.183  10.899  0.0482 -0.2212  0.1248
   72SLPC   O12 6261   3.656   6.420  10.984 -0.1972 -0.3403  0.4643
   72SLPC   O11 6262   3.763   6.384  10.764  0.4232  0.4376 -0.3417
   72SLPC    C1 6263   3.642   6.417  10.687  0.0235  0.1348  0.3322
   72SLPC    HA 6264   3.554   6.439  10.750 -0.2175  1.9006 -0.5583
   72SLPC    HB 6265   3.665   6.509  10.630  2.7990 -0.9547 -0.4779
   72SLPC    C2 6266   3.592   6.296  10.600  0.6684 -0.2761 -0.2632
   72SLPC    HS 6267   3.572   6.209  10.667 -0.4996  0.8677  0.9364
   72SLPC   O21 6268   3.692   6.271  10.498  0.0406  0.2626 -0.1375
   72SLPC   C21 6269   3.698   6.144  10.461 -0.6267  0.4318 -0.2803
   72SLPC   O22 6270   3.630   6.052  10.500  0.2833 -0.0475  0.5950
   72SLPC   C22 6271   3.813   6.129  10.357 -0.1825 -0.1573 -0.0959
   72SLPC   H2R 6272   3.858   6.230  10.347  2.5652 -1.0412  2.0329
   72SLPC   H2S 6273   3.887   6.059  10.402  0.4999  0.7471  0.2340
   72SLPC    C3 6274   3.461   6.342  10.534  0.3844 -0.4700 -0.0628
   72SLPC    HX 6275   3.462   6.447  10.500 -0.5793 -0.4023  0.0926
   72SLPC    HY 6276   3.381   6.321  10.608 -0.2190 -2.3562 -1.1742
   72SLPC   O31 6277   3.432   6.251  10.430  0.8782  0.4755 -0.0397
   72SLPC   C31 6278   3.383   6.302  10.313 -0.6946 -0.1620  0.6901
   72SLPC   O32 6279   3.346   6.415  10.301  0.3749  0.3652  0.2678
   72SLPC   C32 6280   3.371   6.197  10.210  0.1655 -0.4780 -0.7712
   72SLPC   H2X 6281   3.309   6.113  10.249 -0.2119  0.3778  0.5421
   72SLPC   H2Y 6282   3.473   6.153  10.217  0.6167  0.6443  0.0048
   72SLPC   C23 6283   3.763   6.079  10.215  0.1436  0.8079  0.0574
   72SLPC   H3R 6284   3.677   6.142  10.187 -0.2418  0.4607  0.4412
   72SLPC   H3S 6285   3.725   5.974  10.212 -0.8008  1.1626 -0.4349
   72SLPC   C24 6286   3.874   6.103  10.103  0.4326  0.5854 -0.2320
   72SLPC   H4R 6287   3.957   6.033  10.130  0.1458  0.1586 -0.4352
   72SLPC   H4S 6288   3.904   6.208  10.119  1.2180  0.2602  0.5312
   72SLPC   C25 6289   3.803   6.072   9.970 -0.8209  0.1760 -0.1878
   72SLPC   H5R 6290   3.726   6.149   9.946 -1.9894 -0.0243  2.5298
   72SLPC   H5S 6291   3.744   5.978   9.975  0.8754 -1.0002 -1.1765
   72SLPC   C26 6292   3.901   6.041   9.857 -0.2626  0.4839 -0.4241
   72SLPC   H6R 6293   3.963   5.951   9.874 -0.6941  0.6341  2.4485
   72SLPC   H6S 6294   3.969   6.129   9.849 -0.1175  0.3735 -0.4138
   72SLPC   C27 6295   3.831   6.026   9.720  0.5266 -0.2764 -0.1366
   72SLPC   H7R 6296   3.764   6.114   9.707  1.0823  0.3388  0.9855
   72SLPC   H7S 6297   3.770   5.933   9.729 -1.3817  0.7489 -1.7121
   72SLPC   C28 6298   3.935   6.006   9.608 -0.0052  0.0610 -0.0420
   72SLPC   H8R 6299   3.895   5.969   9.511 -0.8887 -0.1982  0.4155
   72SLPC   H8S 6300   4.015   5.947   9.657 -1.8289 -2.9001 -0.4226
   72SLPC   C29 6301   3.979   6.146   9.578 -0.5445 -0.4025 -0.2774
   72SLPC   H9R 6302   3.919   6.223   9.629  0.7190 -1.1832  2.5903
   72SLPC  C210 6303   4.080   6.174   9.495 -0.3604 -0.5499 -0.4258
   72SLPC  H10R 6304   4.108   6.280   9.491 -1.2049 -0.2907  0.2658
   72SLPC  C211 6305   4.164   6.074   9.413  0.3044  0.1577 -0.4954
   72SLPC  H11R 6306   4.123   6.060   9.311  0.4522 -1.9405 -0.3131
   72SLPC  H11S 6307   4.163   5.974   9.464  0.4887  0.6722  0.5489
   72SLPC  C212 6308   4.300   6.113   9.378 -0.8408 -0.5465 -0.1322
   72SLPC  H12R 6309   4.324   6.106   9.271  0.1121 -0.7231  0.0816
   72SLPC  C213 6310   4.405   6.132   9.465  1.0036 -0.2760  0.9383
   72SLPC  H13R 6311   4.492   6.165   9.407 -0.7226  2.4684 -0.3066
   72SLPC  C214 6312   4.399   6.125   9.616  0.2292 -0.4438  0.2017
   72SLPC  H14R 6313   4.299   6.162   9.650  1.5370  1.2005  2.5428
   72SLPC  H14S 6314   4.476   6.190   9.663  0.2422 -0.1525 -0.2160
   72SLPC  C215 6315   4.428   5.986   9.667 -0.8090  0.1439 -0.1024
   72SLPC  H15R 6316   4.530   5.947   9.650 -0.4558  0.7757  0.4709
   72SLPC  H15S 6317   4.353   5.916   9.625 -1.2997  0.4223  0.2902
   72SLPC  C216 6318   4.430   5.983   9.819 -0.4648 -0.1247  0.0899
   72SLPC  H16R 6319   4.434   5.874   9.840 -1.2355 -0.3602 -0.8950
   72SLPC  H16S 6320   4.335   6.025   9.857 -0.2671 -0.4233  0.9334
   72SLPC  C217 6321   4.551   6.054   9.886  0.3115 -1.0516 -0.3972
   72SLPC  H17R 6322   4.557   6.162   9.858 -1.3422 -1.3913 -2.2473
   72SLPC  H17S 6323   4.641   6.010   9.838  0.5453 -0.3967 -0.5731
   72SLPC  C218 6324   4.551   6.034  10.042  0.3321 -0.2456  0.7822
   72SLPC  H18R 6325   4.582   5.928  10.049 -0.5419 -0.4600  1.6132
   72SLPC  H18S 6326   4.447   6.050  10.078  0.0291 -2.0796  0.8111
   72SLPC  H18T 6327   4.625   6.095  10.098  1.1680  0.9130 -1.4386
   72SLPC   C33 6328   3.332   6.239  10.079  0.1923  0.3697  0.4998
   72SLPC   H3X 6329   3.369   6.342  10.062  0.6404  0.1394  0.0750
   72SLPC   H3Y 6330   3.222   6.233  10.063  0.4108  0.6529 -1.2169
   72SLPC   C34 6331   3.397   6.145   9.979  0.4431 -0.5432 -0.5187
   72SLPC   H4X 6332   3.376   6.037   9.991 -3.3951 -0.1132 -2.1191
   72SLPC   H4Y 6333   3.508   6.154   9.986  0.3865  1.4395 -1.4366
   72SLPC   C35 6334   3.354   6.177   9.833  0.4803  0.2890  0.8895
   72SLPC   H5X 6335   3.315   6.281   9.826  0.1451  0.0745 -0.7245
   72SLPC   H5Y 6336   3.258   6.124   9.817 -0.0020  0.9916  1.3954
   72SLPC   C36 6337   3.461   6.143   9.728 -0.1458 -0.1290  0.2066
   72SLPC   H6X 6338   3.498   6.039   9.737  1.1397  0.4243  1.7495
   72SLPC   H6Y 6339   3.544   6.215   9.743 -0.8926  0.5172  1.3596
   72SLPC   C37 6340   3.399   6.161   9.589 -0.3106  0.3333 -0.7012
   72SLPC   H7X 6341   3.357   6.264   9.590  2.2661  1.4492  0.0582
   72SLPC   H7Y 6342   3.320   6.086   9.567  0.2583 -0.8560  1.1064
   72SLPC   C38 6343   3.515   6.136   9.492  0.1366  0.0814  0.3010
   72SLPC   H8X 6344   3.509   6.029   9.465  0.6272 -0.1033  0.9056
   72SLPC   H8Y 6345   3.616   6.155   9.533  0.8205 -2.0944 -0.2287
   72SLPC   C39 6346   3.485   6.211   9.360  0.0498 -0.6029 -0.2430
   72SLPC   H9X 6347   3.465   6.319   9.377 -1.8759 -0.9743  0.0589
   72SLPC   H9Y 6348   3.393   6.171   9.314 -0.1137 -1.7880  1.0392
   72SLPC  C310 6349   3.602   6.199   9.254  0.0178  0.2231 -0.6108
   72SLPC  H10X 6350   3.627   6.092   9.240  2.2655  0.5347  0.5482
   72SLPC  H10Y 6351   3.695   6.243   9.297  1.7665 -3.3570 -0.3574
   72SLPC  C311 6352   3.556   6.271   9.126  0.1003  0.3888 -0.0568
   72SLPC  H11X 6353   3.538   6.378   9.153 -1.0653  0.4217 -0.8940
   72SLPC  H11Y 6354   3.459   6.232   9.090 -0.1278 -0.6299  1.5707
   72SLPC  C312 6355   3.667   6.268   9.020  0.0104  0.5325  0.0702
   72SLPC  H12X 6356   3.764   6.289   9.069  0.4304 -0.3730 -0.3527
   72SLPC  H12Y 6357   3.658   6.359   8.958  0.0056  1.2505  1.1086
   72SLPC  C313 6358   3.667   6.154   8.923  0.4595  0.5820  0.9875
   72SLPC  H13X 6359   3.666   6.060   8.984  2.5202 -0.2209 -0.1414
   72SLPC  H13Y 6360   3.764   6.155   8.870  0.8730  0.1954  1.7214
   72SLPC  C314 6361   3.547   6.153   8.826 -0.4126 -0.4748  0.1933
   72SLPC  H14X 6362   3.571   6.245   8.767  0.6011 -1.5675 -1.1741
   72SLPC  H14Y 6363   3.450   6.164   8.878 -2.5960 -1.2105 -3.3560
   72SLPC  C315 6364   3.554   6.031   8.733 -0.1980 -0.2106 -0.3704
   72SLPC  H15X 6365   3.558   5.936   8.792 -2.4785  0.3155  0.7362
   72SLPC  H15Y 6366   3.651   6.033   8.679 -0.1513  1.0310 -0.2683
   72SLPC  C316 6367   3.443   6.008   8.630 -0.2265  0.9571  0.5348
   72SLPC  H16X 6368   3.471   5.916   8.574 -0.1108  2.1333 -1.4310
   72SLPC  H16Y 6369   3.444   6.089   8.555  1.1340 -1.2808 -2.0651
   72SLPC  C317 6370   3.298   6.014   8.689  0.8062  0.8702 -0.1995
   72SLPC  H17X 6371   3.265   6.111   8.733 -1.5580  0.0169  0.0295
   72SLPC  H17Y 6372   3.286   5.940   8.771  0.8516  0.5437 -0.4863
   72SLPC  C318 6373   3.203   5.983   8.570 -0.5246 -0.0629  0.2059
   72SLPC  H18X 6374   3.215   5.875   8.546  0.9334  0.0992  0.0772
   72SLPC  H18Y 6375   3.236   6.035   8.478  0.6568 -0.4542  0.3790
   72SLPC  H18Z 6376   3.096   6.008   8.584 -0.2600  1.4532 -0.2687
   73SLPC     N 6377   3.103   4.910  11.006 -0.2928  0.2618 -0.5085
   73SLPC   C13 6378   3.255   4.932  11.014  0.1601  0.4856 -0.2441
   73SLPC  H13A 6379   3.279   5.030  11.051  2.7934 -0.4506  0.7471
   73SLPC  H13B 6380   3.300   4.857  11.077 -0.5563  2.6084  3.0851
   73SLPC  H13C 6381   3.283   4.927  10.910  0.8977  1.6975 -0.1225
   73SLPC   C14 6382   3.051   4.953  11.142 -0.5175  0.0319  0.2698
   73SLPC  H14A 6383   3.084   4.896  11.228 -0.2942  0.5518  0.5329
   73SLPC  H14B 6384   3.085   5.053  11.164  0.9231 -0.2643 -0.4840
   73SLPC  H14C 6385   2.943   4.955  11.139 -0.6067  4.4967 -0.6929
   73SLPC   C15 6386   3.065   4.762  10.988 -0.2597  0.3338  0.4302
   73SLPC  H15A 6387   3.102   4.701  11.070 -0.8559  0.2802  0.6663
   73SLPC  H15B 6388   2.960   4.741  10.997 -0.4096  0.7394 -0.3308
   73SLPC  H15C 6389   3.100   4.732  10.890  1.1115  0.9717  0.6934
   73SLPC   C12 6390   3.034   4.995  10.903 -0.6383  0.0227 -0.0245
   73SLPC  H12A 6391   3.060   5.098  10.921  2.6613 -0.6555 -0.2419
   73SLPC  H12B 6392   2.929   4.974  10.912 -0.5576 -0.1605  0.5369
   73SLPC   C11 6393   3.062   4.967  10.752 -0.8144  0.4048  0.7928
   73SLPC  H11A 6394   2.997   5.030  10.688 -0.6240 -0.7399 -0.5836
   73SLPC  H11B 6395   3.022   4.863  10.742 -0.6401  0.2303  1.7478
   73SLPC     P 6396   3.299   5.085  10.665 -0.0617 -0.0512  0.0237
   73SLPC   O13 6397   3.284   5.212  10.745  0.1774 -0.0455  0.2021
   73SLPC   O14 6398   3.436   5.033  10.662 -0.1741  0.2302 -0.2008
   73SLPC   O12 6399   3.203   4.966  10.723 -0.1932 -0.3612  0.3839
   73SLPC   O11 6400   3.249   5.108  10.515 -0.8177 -0.2582 -0.1655
   73SLPC    C1 6401   3.199   5.005  10.426 -0.4359  1.1170  0.3617
   73SLPC    HA 6402   3.241   4.905  10.452  1.2789  1.7328  0.0537
   73SLPC    HB 6403   3.093   4.971  10.432 -0.1062  0.1906  1.3223
   73SLPC    C2 6404   3.253   5.028  10.284 -1.4493 -0.7544 -0.0862
   73SLPC    HS 6405   3.364   5.031  10.290 -1.5292  1.7201  1.7317
   73SLPC   O21 6406   3.200   5.155  10.231  0.1493 -0.0688  0.1262
   73SLPC   C21 6407   3.273   5.209  10.131  0.3865  0.6087 -1.0152
   73SLPC   O22 6408   3.381   5.172  10.101 -0.1991  0.4921  0.2348
   73SLPC   C22 6409   3.205   5.331  10.076 -0.5992 -0.3283  0.0265
   73SLPC   H2R 6410   3.098   5.338  10.106 -1.0266 -2.1969 -0.8973
   73SLPC   H2S 6411   3.259   5.421  10.111 -0.3278  0.5110 -2.3808
   73SLPC    C3 6412   3.217   4.914  10.181  0.6592  0.2596 -0.3150
   73SLPC    HX 6413   3.108   4.898  10.192  0.5298  2.3816  2.5305
   73SLPC    HY 6414   3.268   4.823  10.217  1.4082  0.2316 -1.3948
   73SLPC   O31 6415   3.244   4.937  10.040 -0.4921 -0.0604 -0.1866
   73SLPC   C31 6416   3.144   4.968   9.954  0.4215 -0.3505  0.5398
   73SLPC   O32 6417   3.027   4.988   9.985  0.4117  0.8853 -0.0605
   73SLPC   C32 6418   3.199   4.962   9.803  0.3481 -0.1539  0.3638
   73SLPC   H2X 6419   3.188   4.854   9.776 -3.0239  0.7464 -2.7594
   73SLPC   H2Y 6420   3.305   4.991   9.787  0.6711 -2.1625 -1.6701
   73SLPC   C23 6421   3.217   5.350   9.917  0.0613  0.1662  0.3034
   73SLPC   H3R 6422   3.160   5.443   9.896  4.8063  3.3099 -0.1377
   73SLPC   H3S 6423   3.165   5.265   9.868  0.5955 -1.5068  2.4886
   73SLPC   C24 6424   3.352   5.374   9.860 -0.2887  0.5241  0.1973
   73SLPC   H4R 6425   3.402   5.275   9.853 -1.3549  0.1047 -2.5353
   73SLPC   H4S 6426   3.408   5.439   9.931 -1.2045  2.9679 -1.2046
   73SLPC   C25 6427   3.367   5.452   9.724 -0.0395  0.1062 -0.0340
   73SLPC   H5R 6428   3.476   5.457   9.705 -0.1104  0.3840 -0.3832
   73SLPC   H5S 6429   3.329   5.553   9.751  0.9886  0.4402  0.1800
   73SLPC   C26 6430   3.314   5.396   9.594  0.3941  0.4663 -0.0380
   73SLPC   H6R 6431   3.203   5.394   9.599  0.4227  0.8220  0.6981
   73SLPC   H6S 6432   3.351   5.291   9.582 -2.4967 -0.7640  0.9552
   73SLPC   C27 6433   3.353   5.479   9.474 -0.1615 -0.4325  0.0628
   73SLPC   H7R 6434   3.348   5.418   9.381  2.6942 -1.1226  0.2570
   73SLPC   H7S 6435   3.463   5.495   9.481  0.0082 -1.5197  0.1082
   73SLPC   C28 6436   3.280   5.611   9.475  0.1424  0.0045  0.0827
   73SLPC   H8R 6437   3.331   5.688   9.412  1.0449 -0.3854  0.3240
   73SLPC   H8S 6438   3.267   5.659   9.575 -2.5027 -0.9214  0.2558
   73SLPC   C29 6439   3.140   5.583   9.413 -0.7957  0.3060 -0.2245
   73SLPC   H9R 6440   3.062   5.556   9.485 -0.5624 -1.2902 -0.5422
   73SLPC  C210 6441   3.114   5.576   9.284  0.1877  0.5222  0.5133
   73SLPC  H10R 6442   3.009   5.555   9.259  0.1654 -0.3580  1.2872
   73SLPC  C211 6443   3.217   5.595   9.171  0.0330 -0.2077  0.0236
   73SLPC  H11R 6444   3.212   5.495   9.121 -1.6240  0.0515 -0.3796
   73SLPC  H11S 6445   3.322   5.616   9.202 -0.3675  2.1482 -0.0560
   73SLPC  C212 6446   3.176   5.706   9.076 -0.2104 -0.1102 -0.0942
   73SLPC  H12R 6447   3.100   5.773   9.119 -2.8980 -2.6124 -0.5822
   73SLPC  C213 6448   3.195   5.709   8.941  0.0717 -0.2916  0.4329
   73SLPC  H13R 6449   3.167   5.801   8.887 -0.0175 -0.4162  0.2671
   73SLPC  C214 6450   3.261   5.592   8.860  0.7110 -0.7511 -0.4122
   73SLPC  H14R 6451   3.330   5.538   8.928  1.3304 -1.5137 -1.6097
   73SLPC  H14S 6452   3.328   5.627   8.778 -0.7815  1.9555 -0.5612
   73SLPC  C215 6453   3.159   5.499   8.794  1.0324  0.2824 -0.5230
   73SLPC  H15R 6454   3.097   5.450   8.872  0.7176  2.5983  0.7532
   73SLPC  H15S 6455   3.215   5.416   8.744  2.5664 -0.0595  1.6159
   73SLPC  C216 6456   3.059   5.566   8.701 -0.2130 -0.6704  1.0050
   73SLPC  H16R 6457   3.112   5.635   8.632 -1.1267  0.5558  1.4937
   73SLPC  H16S 6458   2.996   5.629   8.768 -1.6555 -0.2325 -0.6818
   73SLPC  C217 6459   2.952   5.476   8.619  0.1681 -0.9588 -0.5143
   73SLPC  H17R 6460   2.898   5.548   8.554 -1.2570  1.0397  2.6058
   73SLPC  H17S 6461   2.881   5.433   8.693 -1.4994  0.1879 -1.3933
   73SLPC  C218 6462   3.016   5.365   8.533  0.2009  0.3764 -0.6102
   73SLPC  H18R 6463   3.104   5.398   8.474  0.7659  0.2491  0.1344
   73SLPC  H18S 6464   2.938   5.323   8.467 -0.9753  2.0079 -0.3037
   73SLPC  H18T 6465   3.049   5.287   8.605  1.5406 -0.5214 -2.1107
   73SLPC   C33 6466   3.098   5.034   9.703  0.1869 -0.0196  0.5703
   73SLPC   H3X 6467   3.104   5.145   9.706 -2.9078  0.6057 -4.5918
   73SLPC   H3Y 6468   2.989   5.014   9.710  0.0614  0.3210 -0.2864
   73SLPC   C34 6469   3.132   5.005   9.553  0.4473 -0.0710 -0.2617
   73SLPC   H4X 6470   3.087   4.907   9.526  1.7420 -0.9451  0.6179
   73SLPC   H4Y 6471   3.243   5.009   9.543  0.6484 -3.1335 -0.2597
   73SLPC   C35 6472   3.071   5.116   9.468  0.1040  0.7943  0.2245
   73SLPC   H5X 6473   3.095   5.219   9.500 -0.9499  1.3272 -0.6144
   73SLPC   H5Y 6474   2.961   5.098   9.468 -0.0824  1.7726  1.8828
   73SLPC   C36 6475   3.111   5.110   9.318  0.2692 -0.5513 -0.5348
   73SLPC   H6X 6476   3.098   5.005   9.284 -2.1957 -0.0705 -1.2906
   73SLPC   H6Y 6477   3.216   5.142   9.305 -0.3183  1.1321 -1.4845
   73SLPC   C37 6478   3.030   5.201   9.229 -0.2506  0.3662  0.2220
   73SLPC   H7X 6479   3.054   5.306   9.255  0.9338  0.5483 -1.4512
   73SLPC   H7Y 6480   2.925   5.182   9.260 -1.0505  0.2121 -2.3882
   73SLPC   C38 6481   3.041   5.164   9.086  0.5251 -0.5283  0.2591
   73SLPC   H8X 6482   3.014   5.060   9.056  2.2102 -0.0972 -3.1938
   73SLPC   H8Y 6483   3.146   5.174   9.052  1.3293 -1.4764  2.2668
   73SLPC   C39 6484   2.943   5.246   8.992 -0.0050  0.0812  0.6331
   73SLPC   H9X 6485   2.983   5.239   8.889 -0.8216 -0.1696  0.3294
   73SLPC   H9Y 6486   2.944   5.354   9.020 -1.2678  0.3875 -0.4013
   73SLPC  C310 6487   2.803   5.195   9.011 -0.3019 -0.3564  0.6108
   73SLPC  H10X 6488   2.732   5.278   8.993  0.1819  0.0768  0.6954
   73SLPC  H10Y 6489   2.790   5.166   9.117 -1.4919 -0.1241  0.5490
   73SLPC  C311 6490   2.762   5.084   8.914 -0.2176 -0.0898  0.6145
   73SLPC  H11X 6491   2.651   5.091   8.917 -0.1750  0.4452  1.0885
   73SLPC  H11Y 6492   2.778   4.986   8.963  1.3205  0.3865  1.1093
   73SLPC  C312 6493   2.821   5.089   8.773 -0.0299 -0.5250  0.3518
   73SLPC  H12X 6494   2.931   5.075   8.764 -0.2922 -2.4317 -0.2352
   73SLPC  H12Y 6495   2.806   5.193   8.734 -0.4610 -0.5687  0.3990
   73SLPC  C313 6496   2.764   4.984   8.680  0.1152  1.0268 -0.0970
   73SLPC  H13X 6497   2.653   4.980   8.693 -0.0053  0.5663 -1.2058
   73SLPC  H13Y 6498   2.798   4.884   8.715  2.0137  1.9970  0.9903
   73SLPC  C314 6499   2.794   5.011   8.531  0.2230  0.2692 -0.2724
   73SLPC  H14X 6500   2.900   5.035   8.509  0.2022  0.0041 -0.6820
   73SLPC  H14Y 6501   2.730   5.096   8.500 -2.0959 -1.4636 -0.5143
   73SLPC  C315 6502   2.760   4.881   8.455  0.0250 -0.4593 -0.4582
   73SLPC  H15X 6503   2.834   4.805   8.487  1.0253 -0.4404 -2.5791
   73SLPC  H15Y 6504   2.781   4.885   8.346  0.1099 -0.5493 -0.4462
   73SLPC  C316 6505   2.617   4.828   8.463 -0.2382 -0.2256  0.1845
   73SLPC  H16X 6506   2.598   4.789   8.565  1.2320 -0.2439  0.4704
   73SLPC  H16Y 6507   2.613   4.732   8.409  2.6791  0.3606 -1.2677
   73SLPC  C317 6508   2.506   4.924   8.415 -0.7201  0.6457  0.1343
   73SLPC  H17X 6509   2.516   4.971   8.315  2.6731 -0.4896 -0.1675
   73SLPC  H17Y 6510   2.507   5.015   8.478  1.6131 -0.6043  2.0650
   73SLPC  C318 6511   2.371   4.862   8.425  0.2956 -0.5956 -0.1344
   73SLPC  H18X 6512   2.358   4.775   8.357  0.5669 -0.4187 -0.4153
   73SLPC  H18Y 6513   2.294   4.937   8.397  1.7055  0.4594 -1.3120
   73SLPC  H18Z 6514   2.351   4.833   8.531 -1.0916  0.6520 -0.0212
   74SLPC     N 6515   3.161   5.537  10.591  0.0990 -0.1946 -0.6336
   74SLPC   C13 6516   3.115   5.633  10.491 -0.0120 -0.4987  0.4160
   74SLPC  H13A 6517   3.196   5.664  10.426  0.0765  0.5631  1.0251
   74SLPC  H13B 6518   3.038   5.587  10.431 -0.7389 -0.8154  1.5663
   74SLPC  H13C 6519   3.067   5.718  10.536  1.6380  0.4468  0.4700
   74SLPC   C14 6520   3.042   5.480  10.660  0.2086  0.0069 -0.1144
   74SLPC  H14A 6521   3.060   5.383  10.705 -1.0492  0.4968  1.5320
   74SLPC  H14B 6522   3.012   5.539  10.746  1.7838 -2.7715  2.5519
   74SLPC  H14C 6523   2.957   5.472  10.594 -0.6328 -3.1219  1.1366
   74SLPC   C15 6524   3.241   5.609  10.702  0.1974  0.3571  0.2071
   74SLPC  H15A 6525   3.340   5.635  10.667 -0.1316 -0.6965 -1.6698
   74SLPC  H15B 6526   3.205   5.705  10.734 -0.4009  0.8472 -1.8049
   74SLPC  H15C 6527   3.237   5.552  10.794 -0.9085  0.3540  0.1634
   74SLPC   C12 6528   3.248   5.422  10.534  0.1500  0.4027  0.0480
   74SLPC  H12A 6529   3.186   5.353  10.479 -2.4615  1.5000  1.4590
   74SLPC  H12B 6530   3.285   5.372  10.622 -2.2752  1.4877  1.7955
   74SLPC   C11 6531   3.366   5.459  10.445 -0.1090 -0.2434  0.1843
   74SLPC  H11A 6532   3.321   5.517  10.362 -0.6450 -1.9579 -0.7597
   74SLPC  H11B 6533   3.418   5.371  10.403  1.6245  0.8080  0.0445
   74SLPC     P 6534   3.609   5.517  10.537 -0.2589 -0.2150 -0.5995
   74SLPC   O13 6535   3.650   5.612  10.645  0.2383 -0.1000  0.0584
   74SLPC   O14 6536   3.628   5.372  10.561 -0.1935  0.1240  0.2578
   74SLPC   O12 6537   3.451   5.547  10.524  0.6504  0.1852  0.2670
   74SLPC   O11 6538   3.665   5.556  10.394  0.0654  0.1078 -0.5809
   74SLPC    C1 6539   3.659   5.685  10.342  1.0670 -0.5383  0.7995
   74SLPC    HA 6540   3.643   5.759  10.423 -2.8009 -0.9677  0.6060
   74SLPC    HB 6541   3.754   5.715  10.293  0.8415  0.9601  1.2132
   74SLPC    C2 6542   3.547   5.696  10.228 -0.5088  0.1150 -0.3713
   74SLPC    HS 6543   3.491   5.600  10.232  0.4902 -0.4612  2.0700
   74SLPC   O21 6544   3.592   5.726  10.098 -0.0210 -0.9845 -0.1952
   74SLPC   C21 6545   3.642   5.631  10.032 -0.5273  1.2830  0.4367
   74SLPC   O22 6546   3.642   5.512  10.067 -0.4130 -0.5406  0.3965
   74SLPC   C22 6547   3.676   5.686   9.897 -0.5306  0.8039 -0.0321
   74SLPC   H2R 6548   3.580   5.722   9.853 -0.5674 -1.0087 -1.5398
   74SLPC   H2S 6549   3.746   5.773   9.902 -0.0978  0.6315 -1.9858
   74SLPC    C3 6550   3.447   5.816  10.271  0.3802 -0.7425  0.4303
   74SLPC    HX 6551   3.515   5.897  10.304 -0.6450  0.7199 -0.9197
   74SLPC    HY 6552   3.394   5.790  10.365 -0.1186 -0.9916  0.0832
   74SLPC   O31 6553   3.353   5.864  10.173  0.1982 -0.0531  0.1611
   74SLPC   C31 6554   3.249   5.784  10.148  0.0371 -0.1185 -0.5168
   74SLPC   O32 6555   3.229   5.673  10.198  0.3055  0.3100  0.4734
   74SLPC   C32 6556   3.163   5.849  10.038 -0.3782  0.2980 -0.4227
   74SLPC   H2X 6557   3.234   5.851   9.952 -0.5382  2.8894 -0.5754
   74SLPC   H2Y 6558   3.138   5.955  10.061  1.2882  1.3379 -2.8580
   74SLPC   C23 6559   3.734   5.586   9.793  0.3599 -0.3962  0.0537
   74SLPC   H3R 6560   3.662   5.506   9.764  1.9464 -1.3401 -1.4436
   74SLPC   H3S 6561   3.824   5.534   9.832  1.5738  0.6073 -1.3157
   74SLPC   C24 6562   3.781   5.645   9.659 -0.0202  0.3356 -0.8520
   74SLPC   H4R 6563   3.870   5.706   9.686 -0.0555 -1.1502  3.3057
   74SLPC   H4S 6564   3.698   5.709   9.621 -1.1936 -0.7838 -0.2721
   74SLPC   C25 6565   3.835   5.546   9.550  0.3474 -0.1794  0.5958
   74SLPC   H5R 6566   3.764   5.461   9.540 -0.6071  0.5872  0.7071
   74SLPC   H5S 6567   3.928   5.495   9.582 -0.6009 -2.3094  0.2007
   74SLPC   C26 6568   3.853   5.610   9.416  0.6970 -0.1420  0.2713
   74SLPC   H6R 6569   3.908   5.537   9.354  0.9250  1.4847 -1.5266
   74SLPC   H6S 6570   3.922   5.697   9.413 -1.0218  1.3893  2.1710
   74SLPC   C27 6571   3.719   5.635   9.344  0.8905  0.0992 -0.4126
   74SLPC   H7R 6572   3.676   5.726   9.389  2.8121  0.1298  1.5025
   74SLPC   H7S 6573   3.638   5.563   9.372  0.4714  0.4274 -0.7647
   74SLPC   C28 6574   3.741   5.644   9.199 -0.5575 -0.1708 -0.2755
   74SLPC   H8R 6575   3.762   5.541   9.162  0.3397  0.4428 -1.5672
   74SLPC   H8S 6576   3.833   5.705   9.185  0.1798 -0.6659  2.0875
   74SLPC   C29 6577   3.620   5.699   9.130  0.4382  0.0370  0.1402
   74SLPC   H9R 6578   3.522   5.687   9.179  0.0826  0.8286 -0.3492
   74SLPC  C210 6579   3.616   5.729   9.001 -0.2839  0.4562  0.0596
   74SLPC  H10R 6580   3.520   5.763   8.958 -0.5263 -0.1773  0.0807
   74SLPC  C211 6581   3.734   5.712   8.908  0.1903 -0.0629 -1.0625
   74SLPC  H11R 6582   3.834   5.714   8.957  0.4446  0.3808 -1.5816
   74SLPC  H11S 6583   3.735   5.793   8.831  1.1863 -0.4250 -1.4464
   74SLPC  C212 6584   3.728   5.589   8.833  0.1341  0.1962  0.3553
   74SLPC  H12R 6585   3.629   5.541   8.828  0.8874 -1.7479  2.4035
   74SLPC  C213 6586   3.834   5.528   8.765 -0.2021 -0.4344  0.1979
   74SLPC  H13R 6587   3.818   5.437   8.707 -0.2300 -0.4205  0.1835
   74SLPC  C214 6588   3.973   5.574   8.761  0.0040  0.4542 -0.1860
   74SLPC  H14R 6589   4.038   5.494   8.803 -1.7387 -1.5794 -1.1209
   74SLPC  H14S 6590   3.979   5.662   8.828  1.7556  0.0196  0.2823
   74SLPC  C215 6591   4.027   5.617   8.625 -0.4909  0.4175  0.9174
   74SLPC  H15R 6592   3.965   5.691   8.569 -0.5693 -0.2486  0.0922
   74SLPC  H15S 6593   4.037   5.524   8.564  0.9900 -0.1392  1.9393
   74SLPC  C216 6594   4.174   5.673   8.623  0.0846 -0.0531  0.2736
   74SLPC  H16R 6595   4.210   5.678   8.518 -1.1248 -1.3348 -0.2261
   74SLPC  H16S 6596   4.224   5.596   8.685 -1.4161 -0.9265  0.4323
   74SLPC  C217 6597   4.189   5.804   8.699  0.1425 -0.0558  0.2762
   74SLPC  H17R 6598   4.296   5.833   8.692  0.2434 -0.7030 -1.1635
   74SLPC  H17S 6599   4.174   5.790   8.808 -0.0001  2.6460  0.6890
   74SLPC  C218 6600   4.105   5.922   8.644  0.8341  0.1946 -0.4221
   74SLPC  H18R 6601   4.160   5.970   8.561  1.7966 -2.3386 -1.3416
   74SLPC  H18S 6602   4.079   5.993   8.726 -1.1902 -0.6762 -0.2447
   74SLPC  H18T 6603   4.009   5.893   8.597  1.3949 -1.9328 -0.3538
   74SLPC   C33 6604   3.028   5.774  10.015 -0.4418  0.0880  0.1769
   74SLPC   H3X 6605   2.992   5.770  10.120 -0.9211 -0.1300  0.0074
   74SLPC   H3Y 6606   3.037   5.666   9.990 -0.8924 -0.0979  0.8017
   74SLPC   C34 6607   2.936   5.857   9.921  0.1388  0.1824 -0.1137
   74SLPC   H4X 6608   2.914   5.956   9.967  1.8772  0.0843  1.0218
   74SLPC   H4Y 6609   2.837   5.806   9.929  0.8562 -1.0290  1.8563
   74SLPC   C35 6610   2.990   5.858   9.778  0.1996 -0.3218 -0.1555
   74SLPC   H5X 6611   3.000   5.750   9.753 -3.0226 -1.0452  1.1665
   74SLPC   H5Y 6612   3.093   5.897   9.768 -0.0066 -0.0876 -1.5798
   74SLPC   C36 6613   2.905   5.918   9.666  0.3698 -0.6096  0.1449
   74SLPC   H6X 6614   2.855   6.011   9.701  0.7656 -0.8297  1.3353
   74SLPC   H6Y 6615   2.816   5.858   9.637  0.7958 -1.3129  0.2896
   74SLPC   C37 6616   2.988   5.942   9.538  0.1919  0.2982 -1.0206
   74SLPC   H7X 6617   3.013   5.839   9.503  0.5380 -0.4672  1.2875
   74SLPC   H7Y 6618   3.088   5.978   9.569  0.1338 -1.1314  1.0038
   74SLPC   C38 6619   2.926   6.032   9.432 -0.1547  0.7250 -0.1457
   74SLPC   H8X 6620   2.983   6.127   9.440  1.5981 -0.3202  0.2659
   74SLPC   H8Y 6621   2.819   6.035   9.462 -0.3864 -1.3923 -0.6149
   74SLPC   C39 6622   2.927   5.975   9.294 -0.4488 -0.2416  0.3549
   74SLPC   H9X 6623   2.877   5.877   9.282  0.6078 -0.7466  0.0162
   74SLPC   H9Y 6624   3.033   5.960   9.264 -0.9684 -0.9324 -1.2458
   74SLPC  C310 6625   2.874   6.082   9.188 -0.5147  0.2608 -0.6577
   74SLPC  H10X 6626   2.943   6.169   9.194 -2.1504  1.5327  0.9231
   74SLPC  H10Y 6627   2.769   6.115   9.200 -0.4204  1.2743 -2.3734
   74SLPC  C311 6628   2.884   6.036   9.042  0.2902  0.6515  0.2795
   74SLPC  H11X 6629   2.841   5.936   9.022 -0.9052  1.5127 -1.6125
   74SLPC  H11Y 6630   2.994   6.021   9.033  0.3076  0.5127  0.6883
   74SLPC  C312 6631   2.837   6.132   8.938 -0.2127  0.0192 -0.1427
   74SLPC  H12X 6632   2.868   6.233   8.972  0.8734 -0.8137  1.4780
   74SLPC  H12Y 6633   2.726   6.131   8.939 -0.2801  2.4248 -0.3958
   74SLPC  C313 6634   2.863   6.089   8.795 -0.7413 -0.2580  0.0492
   74SLPC  H13X 6635   2.812   5.992   8.777 -0.6876 -0.1273 -0.8940
   74SLPC  H13Y 6636   2.972   6.071   8.779 -0.3939  0.7590  1.1457
   74SLPC  C314 6637   2.813   6.191   8.691 -0.4214  0.4415 -0.0430
   74SLPC  H14X 6638   2.859   6.292   8.694  2.1406 -0.5939 -1.3055
   74SLPC  H14Y 6639   2.703   6.199   8.695 -0.4771  0.1970 -0.9065
   74SLPC  C315 6640   2.843   6.147   8.545 -0.6171  0.1239 -0.3886
   74SLPC  H15X 6641   2.806   6.043   8.532  3.4390 -1.5555 -0.0215
   74SLPC  H15Y 6642   2.951   6.155   8.519 -0.5855  0.5105 -0.1476
   74SLPC  C316 6643   2.766   6.245   8.446  0.1373  0.1033 -0.7761
   74SLPC  H16X 6644   2.788   6.350   8.472  0.6269  0.0066 -0.7825
   74SLPC  H16Y 6645   2.655   6.247   8.457  0.1637 -2.9708  1.2290
   74SLPC  C317 6646   2.807   6.223   8.303 -0.0463  0.4426 -0.1930
   74SLPC  H17X 6647   2.777   6.123   8.267  0.9769  0.3609 -0.8694
   74SLPC  H17Y 6648   2.918   6.232   8.306 -0.0179  0.0899  2.6720
   74SLPC  C318 6649   2.751   6.321   8.202 -0.1350  0.6265  0.1064
   74SLPC  H18X 6650   2.753   6.422   8.247  0.0865  0.7057 -0.0794
   74SLPC  H18Y 6651   2.647   6.296   8.171 -0.1395  0.7765 -0.0015
   74SLPC  H18Z 6652   2.803   6.318   8.103 -1.1362  0.6508 -0.4379
   75SLPC     N 6653   1.621   1.177   6.180 -0.1834 -0.0799  0.9693
   75SLPC   C13 6654   1.733   1.160   6.085 -0.4366  0.0917  0.5496
   75SLPC  H13A 6655   1.815   1.221   6.119  0.4379 -0.6608 -0.1228
   75SLPC  H13B 6656   1.768   1.060   6.063  0.9987  0.6572  0.1448
   75SLPC  H13C 6657   1.706   1.204   5.990 -0.4870 -0.5963  0.2375
   75SLPC   C14 6658   1.604   1.320   6.218 -0.2383  0.0310  0.6948
   75SLPC  H14A 6659   1.524   1.335   6.289  0.5276  2.5859  1.1500
   75SLPC  H14B 6660   1.690   1.364   6.267  0.0535 -0.6891  0.8347
   75SLPC  H14C 6661   1.574   1.381   6.135  0.1462 -1.5818 -0.6788
   75SLPC   C15 6662   1.659   1.105   6.304 -0.4827 -0.0345  0.7825
   75SLPC  H15A 6663   1.682   1.001   6.289 -3.1812 -0.5292 -0.4959
   75SLPC  H15B 6664   1.755   1.143   6.338  0.0174  0.7734 -1.3581
   75SLPC  H15C 6665   1.582   1.116   6.378  0.4526 -0.0387  1.7853
   75SLPC   C12 6666   1.494   1.116   6.119  0.4587 -0.3702 -0.0016
   75SLPC  H12A 6667   1.507   1.009   6.116  0.0488 -0.4249  0.0704
   75SLPC  H12B 6668   1.495   1.147   6.016 -4.9322 -1.1523 -0.5727
   75SLPC   C11 6669   1.359   1.148   6.204  0.2464  0.1950  0.4444
   75SLPC  H11A 6670   1.277   1.100   6.146  0.0088  1.4228 -0.2546
   75SLPC  H11B 6671   1.339   1.256   6.192 -1.2187 -0.3671 -3.5510
   75SLPC     P 6672   1.310   0.960   6.383 -0.0846  0.0725 -0.0270
   75SLPC   O13 6673   1.182   0.926   6.314 -0.2289  0.6082 -0.1220
   75SLPC   O14 6674   1.417   0.868   6.365 -0.3818  0.2383  0.5272
   75SLPC   O12 6675   1.362   1.101   6.340  0.0266 -0.3387  0.2050
   75SLPC   O11 6676   1.267   0.981   6.532  0.1733  0.2552 -0.2081
   75SLPC    C1 6677   1.295   1.098   6.616  0.2998 -0.2438  0.3754
   75SLPC    HA 6678   1.326   1.182   6.550  1.4112 -1.4082 -0.6374
   75SLPC    HB 6679   1.205   1.127   6.674 -0.2332  1.1284 -1.0615
   75SLPC    C2 6680   1.420   1.073   6.709  0.3776 -0.2008  0.1076
   75SLPC    HS 6681   1.509   1.054   6.645 -0.5826  0.3241 -1.4673
   75SLPC   O21 6682   1.386   0.958   6.789  0.2805 -0.4380 -0.6617
   75SLPC   C21 6683   1.488   0.881   6.833  0.5582  0.1459  0.5090
   75SLPC   O22 6684   1.604   0.904   6.813  0.7396  0.0704  0.5844
   75SLPC   C22 6685   1.430   0.770   6.921  0.9067  0.6233  0.2621
   75SLPC   H2R 6686   1.399   0.686   6.856 -0.2316  0.6823  0.6955
   75SLPC   H2S 6687   1.513   0.739   6.988 -0.2938 -1.3210  0.9035
   75SLPC    C3 6688   1.436   1.192   6.803 -0.1875 -0.4255 -0.1001
   75SLPC    HX 6689   1.337   1.232   6.832  0.1786  0.6279 -0.2543
   75SLPC    HY 6690   1.477   1.273   6.739 -2.4107  0.7224 -0.1855
   75SLPC   O31 6691   1.522   1.175   6.915 -0.7071  0.0586  0.2683
   75SLPC   C31 6692   1.481   1.150   7.039  0.0794 -0.6583  0.7269
   75SLPC   O32 6693   1.367   1.162   7.075  0.5051  0.2884  0.3809
   75SLPC   C32 6694   1.598   1.111   7.130 -0.1694  0.9426  0.0527
   75SLPC   H2X 6695   1.643   1.200   7.179  3.9494  0.4832 -2.4098
   75SLPC   H2Y 6696   1.673   1.061   7.064 -0.3118  1.0304 -0.1776
   75SLPC   C23 6697   1.308   0.819   6.998  0.3229  0.6828  0.4046
   75SLPC   H3R 6698   1.234   0.832   6.917  1.8891 -0.0489 -1.2031
   75SLPC   H3S 6699   1.321   0.914   7.055  2.4146 -0.4402  1.9382
   75SLPC   C24 6700   1.239   0.722   7.092  0.4240  0.1037  0.1876
   75SLPC   H4R 6701   1.223   0.629   7.033 -1.1495 -0.1300  0.9479
   75SLPC   H4S 6702   1.136   0.750   7.121  0.6051  0.1735  0.7573
   75SLPC   C25 6703   1.327   0.690   7.215  0.2882 -0.3022 -0.6632
   75SLPC   H5R 6704   1.353   0.780   7.274  0.0109 -1.9314  2.1365
   75SLPC   H5S 6705   1.419   0.634   7.187  0.3166  0.1862 -1.5813
   75SLPC   C26 6706   1.253   0.603   7.327  0.7085  0.3107  0.6587
   75SLPC   H6R 6707   1.223   0.500   7.297  0.5914  0.2073  1.1302
   75SLPC   H6S 6708   1.163   0.658   7.364  0.2789  1.2313 -1.5656
   75SLPC   C27 6709   1.344   0.584   7.442  0.1892 -0.1153 -1.1432
   75SLPC   H7R 6710   1.362   0.676   7.502  2.2445 -0.8472 -0.5284
   75SLPC   H7S 6711   1.446   0.552   7.409 -0.3877 -1.1539 -1.9607
   75SLPC   C28 6712   1.297   0.487   7.550 -0.8408  0.6741 -0.4059
   75SLPC   H8R 6713   1.328   0.387   7.513  1.8851  1.9563 -1.9275
   75SLPC   H8S 6714   1.187   0.501   7.547 -0.9244  1.5175  2.8431
   75SLPC   C29 6715   1.349   0.517   7.687  0.5157 -0.1650  0.3946
   75SLPC   H9R 6716   1.457   0.496   7.681  0.5189  0.1647 -1.5142
   75SLPC  C210 6717   1.292   0.548   7.802 -0.2008  0.3473  0.4933
   75SLPC  H10R 6718   1.350   0.564   7.894 -0.9270 -2.4233  1.5142
   75SLPC  C211 6719   1.146   0.566   7.838 -1.0183 -0.2091  0.0797
   75SLPC  H11R 6720   1.090   0.590   7.746  1.1296 -0.0669 -1.2760
   75SLPC  H11S 6721   1.133   0.656   7.903 -1.8286  1.4729 -2.3059
   75SLPC  C212 6722   1.085   0.450   7.912  0.2095  0.6396 -0.0887
   75SLPC  H12R 6723   1.128   0.352   7.886 -1.3263 -0.3796  1.0825
   75SLPC  C213 6724   0.991   0.453   8.010 -0.1561  0.1028  0.3502
   75SLPC  H13R 6725   0.961   0.357   8.054  0.1340 -1.3114 -2.3357
   75SLPC  C214 6726   0.909   0.573   8.057  0.1676 -0.1980  0.4542
   75SLPC  H14R 6727   0.928   0.672   8.010 -1.3012  0.5016  1.2737
   75SLPC  H14S 6728   0.934   0.598   8.162 -1.0149  1.5960  0.3487
   75SLPC  C215 6729   0.752   0.549   8.045 -0.2707  0.4472 -0.7547
   75SLPC  H15R 6730   0.729   0.453   8.096 -1.8387 -0.0243 -2.2525
   75SLPC  H15S 6731   0.724   0.540   7.938  1.3258  0.6813 -1.2209
   75SLPC  C216 6732   0.672   0.661   8.116 -0.8092  0.4467  0.6615
   75SLPC  H16R 6733   0.720   0.752   8.075 -0.2796 -0.4486 -0.7694
   75SLPC  H16S 6734   0.703   0.663   8.223 -2.2870  0.6045  1.1131
   75SLPC  C217 6735   0.522   0.650   8.089  0.0661  0.0082 -0.6170
   75SLPC  H17R 6736   0.486   0.560   8.144 -0.2176  2.0463  2.8038
   75SLPC  H17S 6737   0.501   0.636   7.981 -1.3412 -0.6397 -0.2907
   75SLPC  C218 6738   0.438   0.767   8.135 -0.0690 -0.2187 -0.1075
   75SLPC  H18R 6739   0.332   0.744   8.161  0.5596 -3.5845 -0.1260
   75SLPC  H18S 6740   0.439   0.855   8.067  0.6577 -0.3855 -0.3160
   75SLPC  H18T 6741   0.471   0.800   8.237 -1.9165  0.4678  0.3120
   75SLPC   C33 6742   1.563   1.016   7.243 -0.3104 -0.3250 -0.0442
   75SLPC   H3X 6743   1.506   0.925   7.216  0.8833 -0.7299 -1.3455
   75SLPC   H3Y 6744   1.657   0.973   7.283 -1.1659  0.2224  2.7876
   75SLPC   C34 6745   1.505   1.091   7.370  0.0189 -0.2375  0.3239
   75SLPC   H4X 6746   1.419   1.147   7.326 -0.4571 -1.5543 -0.4847
   75SLPC   H4Y 6747   1.577   1.167   7.406 -1.4353  1.0574  0.6535
   75SLPC   C35 6748   1.462   0.990   7.484  0.3346 -0.1308  0.1005
   75SLPC   H5X 6749   1.539   0.912   7.503  0.7847  0.1790 -0.4517
   75SLPC   H5Y 6750   1.369   0.937   7.454  0.4464  0.3299 -1.1184
   75SLPC   C36 6751   1.425   1.064   7.619  0.2341  0.4198  0.6058
   75SLPC   H6X 6752   1.349   1.144   7.603  1.1216  0.9422 -1.2227
   75SLPC   H6Y 6753   1.524   1.100   7.653  0.5811 -0.6966  0.8181
   75SLPC   C37 6754   1.381   0.967   7.736 -0.5763 -0.1985  0.6981
   75SLPC   H7X 6755   1.459   0.889   7.753  0.9249  1.6154  2.6735
   75SLPC   H7Y 6756   1.289   0.911   7.706 -0.5178  0.9163 -1.8564
   75SLPC   C38 6757   1.367   1.031   7.873  0.4201 -0.8105  0.2931
   75SLPC   H8X 6758   1.282   1.101   7.862  2.3095  1.6652  0.7286
   75SLPC   H8Y 6759   1.462   1.087   7.883  0.5457 -0.5003 -1.9916
   75SLPC   C39 6760   1.332   0.930   7.991  0.4805  0.2941  0.5585
   75SLPC   H9X 6761   1.238   0.878   7.965 -0.2554  0.4242  2.7790
   75SLPC   H9Y 6762   1.320   0.982   8.088 -2.1562  1.0817 -0.1336
   75SLPC  C310 6763   1.428   0.812   8.011 -0.1116  0.1222 -0.2406
   75SLPC  H10X 6764   1.523   0.861   8.039  0.4105 -2.3323  2.9158
   75SLPC  H10Y 6765   1.445   0.755   7.918 -1.0601  1.4834 -1.2850
   75SLPC  C311 6766   1.383   0.718   8.123  0.0146 -0.4976  0.8123
   75SLPC  H11X 6767   1.283   0.676   8.101 -0.7325  0.8140  1.5522
   75SLPC  H11Y 6768   1.363   0.785   8.210  0.0907 -1.1779  1.3645
   75SLPC  C312 6769   1.479   0.610   8.156  0.8344 -0.5307 -0.2051
   75SLPC  H12X 6770   1.567   0.648   8.213  0.6839  0.5484 -0.6546
   75SLPC  H12Y 6771   1.518   0.565   8.062  0.9529 -0.0538 -0.3864
   75SLPC  C313 6772   1.409   0.489   8.224 -0.2135 -0.6851 -0.3594
   75SLPC  H13X 6773   1.483   0.407   8.225 -0.0155 -0.5129  1.5241
   75SLPC  H13Y 6774   1.326   0.468   8.152  0.2554  1.0013 -1.4436
   75SLPC  C314 6775   1.363   0.505   8.368 -1.0562  0.1008  0.8443
   75SLPC  H14X 6776   1.318   0.606   8.378  0.8607  1.2574 -1.3312
   75SLPC  H14Y 6777   1.442   0.495   8.446 -0.6776  0.1292  0.4698
   75SLPC  C315 6778   1.261   0.397   8.405  0.0559 -0.0265  0.1941
   75SLPC  H15X 6779   1.294   0.293   8.384 -0.1218  0.0307 -0.3908
   75SLPC  H15Y 6780   1.168   0.401   8.344  0.6095 -0.2951 -0.6880
   75SLPC  C316 6781   1.232   0.403   8.558 -0.0376  0.8985 -0.3688
   75SLPC  H16X 6782   1.180   0.499   8.578 -1.0133  0.2882  0.1099
   75SLPC  H16Y 6783   1.322   0.395   8.622 -1.3960 -1.9654  1.3751
   75SLPC  C317 6784   1.137   0.299   8.600 -0.6897  0.1959  0.6424
   75SLPC  H17X 6785   1.055   0.313   8.526  2.1852  1.6041 -2.5201
   75SLPC  H17Y 6786   1.086   0.309   8.698 -1.8548 -0.8040  0.1610
   75SLPC  C318 6787   1.181   0.146   8.592 -0.3649 -0.5703 -0.1779
   75SLPC  H18X 6788   1.100   0.077   8.625  0.3626 -1.5275 -0.3417
   75SLPC  H18Y 6789   1.271   0.132   8.655  0.7461 -1.3024 -1.8589
   75SLPC  H18Z 6790   1.210   0.110   8.491 -0.9111  0.1743 -0.6113
   76SLPC     N 6791   3.131   0.716   6.471 -0.0457 -0.1987  0.5636
   76SLPC   C13 6792   3.224   0.794   6.391 -0.4057  0.3509 -0.3395
   76SLPC  H13A 6793   3.200   0.899   6.393  1.8944  0.9382 -0.8983
   76SLPC  H13B 6794   3.328   0.792   6.419 -0.5870  1.8669  0.5803
   76SLPC  H13C 6795   3.219   0.764   6.287 -0.4784 -1.7842  0.2353
   76SLPC   C14 6796   3.000   0.737   6.408 -0.7374  0.3616 -0.0106
   76SLPC  H14A 6797   2.979   0.841   6.390  0.7226  0.4934 -1.1113
   76SLPC  H14B 6798   3.006   0.689   6.311  0.3153 -1.0643  0.7210
   76SLPC  H14C 6799   2.914   0.701   6.463 -0.8624  1.0606  0.2627
   76SLPC   C15 6800   3.130   0.772   6.606 -0.3225  0.1553 -0.2097
   76SLPC  H15A 6801   3.231   0.757   6.640 -0.8536  1.5382  2.2121
   76SLPC  H15B 6802   3.099   0.875   6.609 -2.0447 -0.3115 -0.6232
   76SLPC  H15C 6803   3.058   0.715   6.663 -0.5593  1.6784  1.0502
   76SLPC   C12 6804   3.173   0.569   6.479  0.7694 -0.0637 -0.5649
   76SLPC  H12A 6805   3.151   0.525   6.383  3.6261 -2.3993 -0.2934
   76SLPC  H12B 6806   3.098   0.524   6.543  2.1164 -2.2194 -0.4063
   76SLPC   C11 6807   3.332   0.542   6.498  0.7429  0.2784  0.3102
   76SLPC  H11A 6808   3.344   0.437   6.534 -0.0559  0.3901  0.9316
   76SLPC  H11B 6809   3.372   0.617   6.569  5.1203 -0.8501 -0.6747
   76SLPC     P 6810   3.543   0.615   6.357 -0.0667 -0.4101 -0.5057
   76SLPC   O13 6811   3.596   0.588   6.220  0.0370 -0.0238  0.2900
   76SLPC   O14 6812   3.542   0.761   6.389  0.2755  0.5850  0.3195
   76SLPC   O12 6813   3.397   0.556   6.374 -0.1081 -0.1594 -0.7613
   76SLPC   O11 6814   3.631   0.530   6.460  0.6586 -1.0900 -0.6280
   76SLPC    C1 6815   3.668   0.402   6.433  0.1029  0.8490 -0.0190
   76SLPC    HA 6816   3.582   0.342   6.398 -0.3894  0.7496  1.3146
   76SLPC    HB 6817   3.747   0.411   6.355  0.9418  1.3384  0.8618
   76SLPC    C2 6818   3.745   0.322   6.546  1.2532 -0.2764 -1.0748
   76SLPC    HS 6819   3.751   0.215   6.519  0.7329 -0.7917  0.7703
   76SLPC   O21 6820   3.683   0.345   6.680  0.0295  0.8168  0.5283
   76SLPC   C21 6821   3.566   0.291   6.687  0.6859 -0.1852  0.0315
   76SLPC   O22 6822   3.506   0.232   6.600 -0.0672  1.1193 -0.1456
   76SLPC   C22 6823   3.499   0.323   6.821 -0.4098 -0.2846  0.0801
   76SLPC   H2R 6824   3.443   0.417   6.802  0.1899  0.0336 -0.1422
   76SLPC   H2S 6825   3.429   0.238   6.837 -2.0864  0.9457 -0.3721
   76SLPC    C3 6826   3.888   0.378   6.559  0.1887 -1.6202  0.4089
   76SLPC    HX 6827   3.880   0.489   6.550 -2.4798 -1.8110 -0.5245
   76SLPC    HY 6828   3.942   0.339   6.470  1.1249  1.6286 -0.6011
   76SLPC   O31 6829   3.961   0.338   6.682 -0.0196  0.4010 -0.1806
   76SLPC   C31 6830   3.956   0.438   6.774 -0.0398 -0.3763  0.7044
   76SLPC   O32 6831   3.893   0.542   6.768 -0.2085  0.5507  0.3594
   76SLPC   C32 6832   4.044   0.399   6.885  0.4485  0.5650 -0.2146
   76SLPC   H2X 6833   4.146   0.426   6.852  0.8048  0.5428  0.8432
   76SLPC   H2Y 6834   4.043   0.288   6.893 -0.4083  0.6149  0.5335
   76SLPC   C23 6835   3.592   0.354   6.941 -0.2270  0.3963  0.6403
   76SLPC   H3R 6836   3.654   0.441   6.911  0.0365  0.0028  0.0343
   76SLPC   H3S 6837   3.671   0.277   6.956 -0.3792  0.5285  2.2887
   76SLPC   C24 6838   3.510   0.391   7.068  0.2327 -0.2995 -0.0591
   76SLPC   H4R 6839   3.444   0.309   7.103  1.5826 -0.8929  1.2354
   76SLPC   H4S 6840   3.448   0.479   7.042  1.3136  1.4400  2.7715
   76SLPC   C25 6841   3.604   0.416   7.185  0.2681  0.1432 -0.2066
   76SLPC   H5R 6842   3.695   0.475   7.162  0.1964  0.5839  0.6113
   76SLPC   H5S 6843   3.635   0.313   7.213  1.9791  1.0517  1.4815
   76SLPC   C26 6844   3.529   0.468   7.320 -0.4787 -0.0158 -0.5532
   76SLPC   H6R 6845   3.452   0.391   7.342  0.4887 -0.6022  0.9436
   76SLPC   H6S 6846   3.493   0.572   7.310  0.2130  0.5678  2.1671
   76SLPC   C27 6847   3.621   0.473   7.437 -0.4799  0.6572  0.8113
   76SLPC   H7R 6848   3.713   0.526   7.403  0.0893 -0.0004  1.2984
   76SLPC   H7S 6849   3.644   0.370   7.469 -1.4094  0.1216 -0.1882
   76SLPC   C28 6850   3.558   0.539   7.560 -0.0877 -0.9221 -0.3133
   76SLPC   H8R 6851   3.640   0.592   7.614  0.6216 -3.0908  0.8726
   76SLPC   H8S 6852   3.487   0.620   7.530 -0.8026 -0.2890  2.7201
   76SLPC   C29 6853   3.478   0.449   7.653  0.2854  0.1526 -0.0201
   76SLPC   H9R 6854   3.433   0.356   7.616 -3.2462  1.4628  0.5611
   76SLPC  C210 6855   3.465   0.464   7.786 -0.8768 -1.0454  0.1940
   76SLPC  H10R 6856   3.398   0.397   7.842 -0.3911 -1.0189  0.8242
   76SLPC  C211 6857   3.520   0.582   7.853  0.4238  0.0588 -0.1606
   76SLPC  H11R 6858   3.421   0.631   7.866 -0.4349 -1.7094  0.4344
   76SLPC  H11S 6859   3.587   0.641   7.788 -0.5115 -0.7948 -1.9658
   76SLPC  C212 6860   3.602   0.539   7.976 -0.1390 -0.1333  0.0835
   76SLPC  H12R 6861   3.676   0.460   7.954  3.1026  2.1384  1.8398
   76SLPC  C213 6862   3.601   0.594   8.095 -0.2816  0.2873  0.6966
   76SLPC  H13R 6863   3.671   0.557   8.171  2.2259  0.4222 -1.3917
   76SLPC  C214 6864   3.508   0.702   8.135 -0.2560 -0.2655  0.1355
   76SLPC  H14R 6865   3.468   0.762   8.050  3.2447  1.8825 -0.2197
   76SLPC  H14S 6866   3.562   0.772   8.202 -2.1624  0.2450  1.2140
   76SLPC  C215 6867   3.383   0.671   8.217  0.0692  0.0009  0.1968
   76SLPC  H15R 6868   3.317   0.606   8.155 -0.0317  1.8265 -1.7216
   76SLPC  H15S 6869   3.328   0.765   8.240 -2.0227 -1.5403  1.9836
   76SLPC  C216 6870   3.422   0.602   8.351  0.4736  0.2125  0.2034
   76SLPC  H16R 6871   3.461   0.670   8.430  0.4253 -0.4002  0.7681
   76SLPC  H16S 6872   3.494   0.523   8.323 -0.8527 -0.7062 -0.7251
   76SLPC  C217 6873   3.295   0.543   8.407  0.0637 -0.4921 -0.5043
   76SLPC  H17R 6874   3.337   0.481   8.490  1.5907  0.2819 -0.6674
   76SLPC  H17S 6875   3.257   0.470   8.332 -1.9131  0.3426 -0.3672
   76SLPC  C218 6876   3.190   0.642   8.453 -0.0114  0.2403  0.2795
   76SLPC  H18R 6877   3.234   0.726   8.510  1.7231  0.8428 -1.7979
   76SLPC  H18S 6878   3.109   0.595   8.513  0.6608  1.8864  2.5898
   76SLPC  H18T 6879   3.145   0.689   8.363  2.6402  1.0086 -0.7489
   76SLPC   C33 6880   4.004   0.465   7.020  0.5289 -0.3987  0.3803
   76SLPC   H3X 6881   3.947   0.383   7.068  2.4761 -1.0516  1.6964
   76SLPC   H3Y 6882   3.943   0.558   7.024  1.3102  0.0946  1.7771
   76SLPC   C34 6883   4.123   0.483   7.119  0.2624 -0.2101 -0.3249
   76SLPC   H4X 6884   4.177   0.576   7.090 -1.2216  0.8803  0.2570
   76SLPC   H4Y 6885   4.197   0.401   7.121 -1.3363 -1.7276 -0.6308
   76SLPC   C35 6886   4.059   0.513   7.253 -0.2806  0.3251 -0.6543
   76SLPC   H5X 6887   4.009   0.416   7.275  2.2687 -0.8599  0.3560
   76SLPC   H5Y 6888   3.979   0.586   7.231  0.3639  1.4044  0.4455
   76SLPC   C36 6889   4.151   0.559   7.373 -0.7770  0.0289  0.3093
   76SLPC   H6X 6890   4.210   0.649   7.344  1.2351 -1.3000  0.0338
   76SLPC   H6Y 6891   4.222   0.479   7.403 -1.3608 -0.8130 -0.4844
   76SLPC   C37 6892   4.060   0.589   7.489  0.0105  0.4793  0.6939
   76SLPC   H7X 6893   4.031   0.488   7.525  2.3680  0.0009  1.4380
   76SLPC   H7Y 6894   3.972   0.646   7.450  0.8136  0.7549 -0.8003
   76SLPC   C38 6895   4.123   0.675   7.599 -0.2908  0.6275  0.4391
   76SLPC   H8X 6896   4.171   0.766   7.556  0.3276  0.0982 -0.0118
   76SLPC   H8Y 6897   4.206   0.623   7.651  0.5757  1.7022  0.1667
   76SLPC   C39 6898   4.028   0.745   7.694 -0.2212  0.1662 -0.0135
   76SLPC   H9X 6899   3.963   0.815   7.638 -0.8574  0.6443  1.2775
   76SLPC   H9Y 6900   4.080   0.809   7.768 -0.5864 -0.0585  0.4437
   76SLPC  C310 6901   3.929   0.644   7.766 -0.1988 -0.0783  0.7196
   76SLPC  H10X 6902   3.872   0.583   7.692  0.2348  1.8208 -1.2695
   76SLPC  H10Y 6903   3.849   0.695   7.824 -0.4421 -2.0403  2.2222
   76SLPC  C311 6904   3.998   0.552   7.870  0.7751  0.6323 -0.3081
   76SLPC  H11X 6905   4.075   0.481   7.831  0.6407 -0.6963  1.6573
   76SLPC  H11Y 6906   3.920   0.492   7.922 -1.1703  1.7327 -1.8258
   76SLPC  C312 6907   4.081   0.624   7.982 -0.1278 -0.5345  0.1221
   76SLPC  H12X 6908   4.159   0.684   7.930 -1.3856  0.2200 -0.9835
   76SLPC  H12Y 6909   4.126   0.561   8.061 -0.0787  1.4281  1.7375
   76SLPC  C313 6910   3.992   0.720   8.061 -0.2868  0.2403 -0.1255
   76SLPC  H13X 6911   3.897   0.673   8.092 -0.3664 -1.6314 -2.8631
   76SLPC  H13Y 6912   3.964   0.813   8.006 -0.5416 -0.5056 -1.2748
   76SLPC  C314 6913   4.057   0.767   8.199 -0.5512 -0.4626  0.7854
   76SLPC  H14X 6914   3.997   0.854   8.232 -1.8368 -1.4630  1.1320
   76SLPC  H14Y 6915   4.154   0.813   8.169 -1.4562  0.6765 -0.5284
   76SLPC  C315 6916   4.064   0.669   8.309  0.3700 -0.2786 -0.1223
   76SLPC  H15X 6917   4.129   0.586   8.272  2.4218 -0.4333  3.4065
   76SLPC  H15Y 6918   3.969   0.615   8.328  0.5693 -0.5046  0.2335
   76SLPC  C316 6919   4.120   0.728   8.437  0.0707 -0.0937 -0.2392
   76SLPC  H16X 6920   4.217   0.780   8.418  0.6075 -0.3775  1.4950
   76SLPC  H16Y 6921   4.145   0.652   8.514 -3.3207  0.5776  1.7414
   76SLPC  C317 6922   4.024   0.832   8.517 -0.4562  0.5362 -0.1721
   76SLPC  H17X 6923   3.980   0.909   8.450  0.6601  0.1038 -1.4554
   76SLPC  H17Y 6924   4.085   0.893   8.587  1.2205 -0.8868 -0.3094
   76SLPC  C318 6925   3.919   0.769   8.601  0.2426  0.8596  0.1679
   76SLPC  H18X 6926   3.969   0.706   8.678 -0.0185 -0.6221 -0.8353
   76SLPC  H18Y 6927   3.862   0.707   8.529  0.5275  1.1588 -0.3208
   76SLPC  H18Z 6928   3.859   0.849   8.649 -0.3539  0.0054  0.8697
   77SLPC     N 6929   0.412   6.381   5.976  0.1940  0.3617 -0.8039
   77SLPC   C13 6930   0.315   6.469   6.049 -0.1874 -0.7357 -0.0066
   77SLPC  H13A 6931   0.282   6.541   5.975  0.9204 -1.1708 -0.9610
   77SLPC  H13B 6932   0.225   6.413   6.070 -0.3042 -0.6086 -0.1603
   77SLPC  H13C 6933   0.363   6.506   6.138 -1.8666 -0.8155  0.9583
   77SLPC   C14 6934   0.535   6.465   5.955  0.4871  0.0496 -0.3512
   77SLPC  H14A 6935   0.518   6.545   5.884  0.5161  1.5330  1.2386
   77SLPC  H14B 6936   0.560   6.515   6.047  0.4678 -0.8084  0.1311
   77SLPC  H14C 6937   0.622   6.409   5.926  0.9874  0.2706  0.6565
   77SLPC   C15 6938   0.368   6.340   5.836 -0.3363  0.4424 -0.5698
   77SLPC  H15A 6939   0.312   6.420   5.789 -4.4682 -1.0626  1.2957
   77SLPC  H15B 6940   0.456   6.323   5.776 -0.4867  1.7045 -1.1833
   77SLPC  H15C 6941   0.306   6.253   5.850 -2.3900  1.8378 -0.5080
   77SLPC   C12 6942   0.437   6.261   6.061 -0.4183 -0.1651 -0.6255
   77SLPC  H12A 6943   0.522   6.216   6.012 -0.4149  0.6008 -1.3461
   77SLPC  H12B 6944   0.353   6.195   6.051 -0.1151 -0.9652  1.4780
   77SLPC   C11 6945   0.463   6.277   6.217  0.0077 -0.2576  0.1327
   77SLPC  H11A 6946   0.517   6.371   6.239 -1.7759  0.6569  0.8253
   77SLPC  H11B 6947   0.523   6.193   6.259 -0.6796 -1.0082 -0.3460
   77SLPC     P 6948   0.248   6.152   6.302 -0.2491  0.3695  0.1076
   77SLPC   O13 6949   0.153   6.155   6.187 -0.4268 -0.3368 -0.0855
   77SLPC   O14 6950   0.334   6.031   6.322 -0.1516  0.5046 -0.7516
   77SLPC   O12 6951   0.336   6.279   6.290 -0.0043  0.2816  0.3263
   77SLPC   O11 6952   0.165   6.174   6.437  0.1048 -0.1098 -0.0342
   77SLPC    C1 6953   0.150   6.305   6.491  0.5038  0.6097 -0.6358
   77SLPC    HA 6954   0.227   6.381   6.466  1.0229  0.7250  1.1254
   77SLPC    HB 6955   0.054   6.345   6.452 -0.3237 -1.8287 -1.2470
   77SLPC    C2 6956   0.130   6.291   6.647 -0.3597  0.5002 -0.0956
   77SLPC    HS 6957   0.072   6.202   6.682  0.6188  0.4229  1.4219
   77SLPC   O21 6958   0.048   6.396   6.683 -0.1900 -0.1051 -0.0795
   77SLPC   C21 6959   0.092   6.516   6.696 -0.1178  0.1990  0.7719
   77SLPC   O22 6960   0.198   6.557   6.664  0.4152 -0.5450  0.1322
   77SLPC   C22 6961  -0.017   6.611   6.755 -0.4288 -0.3977  0.3779
   77SLPC   H2R 6962  -0.106   6.611   6.688  0.0262 -0.2455 -0.2331
   77SLPC   H2S 6963  -0.040   6.577   6.858 -2.2026  0.7479  0.3996
   77SLPC    C3 6964   0.267   6.276   6.722 -0.1434 -0.1783 -0.1789
   77SLPC    HX 6965   0.340   6.347   6.677  0.6264 -1.4755 -1.0414
   77SLPC    HY 6966   0.298   6.171   6.703 -0.8082 -0.4135  0.0152
   77SLPC   O31 6967   0.258   6.285   6.869  0.1509  0.4258 -0.1854
   77SLPC   C31 6968   0.348   6.355   6.930 -0.3131  0.0630  0.2215
   77SLPC   O32 6969   0.467   6.364   6.893  0.1847  0.0132  0.4029
   77SLPC   C32 6970   0.296   6.412   7.059  0.1420 -0.1881  0.1257
   77SLPC   H2X 6971   0.232   6.332   7.104  1.8066 -0.5220  2.0610
   77SLPC   H2Y 6972   0.241   6.507   7.045 -0.7644 -0.6931  0.1997
   77SLPC   C23 6973   0.026   6.763   6.753  0.2052 -0.8924 -0.4415
   77SLPC   H3R 6974   0.016   6.814   6.655  1.6674  0.9231  0.2815
   77SLPC   H3S 6975   0.130   6.780   6.788 -0.4479  0.1061  1.1523
   77SLPC   C24 6976  -0.077   6.852   6.835 -0.5401  0.2620  0.9943
   77SLPC   H4R 6977  -0.171   6.820   6.785  0.8203  0.5825 -1.9660
   77SLPC   H4S 6978  -0.054   6.957   6.808 -0.4792 -0.5846 -2.9374
   77SLPC   C25 6979  -0.074   6.827   6.986 -0.5566 -0.1632  0.6073
   77SLPC   H5R 6980  -0.123   6.728   6.998 -3.3687  0.8597 -1.3420
   77SLPC   H5S 6981  -0.145   6.897   7.035  0.8327  0.2890  2.0712
   77SLPC   C26 6982   0.071   6.829   7.036  0.1953  0.3523 -0.2658
   77SLPC   H6R 6983   0.129   6.917   7.002  0.9941  0.3911  1.1570
   77SLPC   H6S 6984   0.122   6.741   6.992 -1.2435  0.2914 -1.9489
   77SLPC   C27 6985   0.090   6.829   7.192  0.1440 -0.5685 -0.1384
   77SLPC   H7R 6986   0.035   6.917   7.234 -1.1689 -2.5511  2.6959
   77SLPC   H7S 6987   0.197   6.843   7.217 -0.1309  1.9374 -0.0072
   77SLPC   C28 6988   0.037   6.703   7.263  0.2130  0.8247  0.0904
   77SLPC   H8R 6989   0.079   6.609   7.223 -2.2380  0.1010 -0.9585
   77SLPC   H8S 6990  -0.068   6.702   7.226  0.3306  2.5555 -0.3920
   77SLPC   C29 6991   0.035   6.704   7.412 -1.0929  0.1204  0.4530
   77SLPC   H9R 6992   0.137   6.685   7.449 -0.2762 -1.4824 -2.3396
   77SLPC  C210 6993  -0.062   6.744   7.495  0.4418 -0.2907  0.1987
   77SLPC  H10R 6994  -0.043   6.731   7.603  1.3780 -0.3693  0.0320
   77SLPC  C211 6995  -0.201   6.799   7.448 -0.0468 -0.2210  0.6503
   77SLPC  H11R 6996  -0.266   6.710   7.435 -0.0550 -0.2178  0.6711
   77SLPC  H11S 6997  -0.185   6.848   7.349 -0.0907  1.5817  1.4904
   77SLPC  C212 6998  -0.264   6.904   7.538  0.3601  0.1321 -0.7283
   77SLPC  H12R 6999  -0.200   6.986   7.572  0.9054 -1.0300  1.2223
   77SLPC  C213 7000  -0.395   6.903   7.580  0.2108  0.3236 -0.2899
   77SLPC  H13R 7001  -0.431   6.980   7.650 -0.6114 -0.4563  0.1699
   77SLPC  C214 7002  -0.496   6.800   7.543  0.5190 -0.0355 -0.1156
   77SLPC  H14R 7003  -0.580   6.795   7.616 -1.1058 -1.3081 -1.9855
   77SLPC  H14S 7004  -0.453   6.698   7.535  0.3938 -0.0797 -0.2141
   77SLPC  C215 7005  -0.569   6.818   7.402 -0.1172  0.3547  0.5982
   77SLPC  H15R 7006  -0.619   6.917   7.413  0.9650  1.0496 -0.4573
   77SLPC  H15S 7007  -0.643   6.736   7.403 -0.1065  0.3428  0.4765
   77SLPC  C216 7008  -0.489   6.814   7.269  0.5524 -0.0068  0.1493
   77SLPC  H16R 7009  -0.444   6.714   7.253 -2.0349 -1.0450 -1.2198
   77SLPC  H16S 7010  -0.412   6.894   7.276  0.9036 -0.4167  1.3302
   77SLPC  C217 7011  -0.574   6.845   7.144  0.4985  0.1804 -0.5889
   77SLPC  H17R 7012  -0.621   6.945   7.153 -2.2933 -0.9838 -1.2960
   77SLPC  H17S 7013  -0.663   6.778   7.138 -0.0016  0.6797  0.7509
   77SLPC  C218 7014  -0.501   6.841   7.011 -0.1726  0.2108  0.1074
   77SLPC  H18R 7015  -0.442   6.748   7.008 -1.2461 -0.4605 -0.9493
   77SLPC  H18S 7016  -0.426   6.923   7.016 -0.3680  0.4497 -0.8103
   77SLPC  H18T 7017  -0.562   6.853   6.919  0.0706  1.8942  0.1217
   77SLPC   C33 7018   0.413   6.434   7.159 -0.1646  0.0091  0.2528
   77SLPC   H3X 7019   0.487   6.497   7.106 -0.7854  1.1305  0.6753
   77SLPC   H3Y 7020   0.458   6.334   7.175 -0.0010 -0.2933 -1.7776
   77SLPC   C34 7021   0.355   6.495   7.282  0.2145  0.0191 -0.8809
   77SLPC   H4X 7022   0.262   6.437   7.301 -0.2550 -0.0945 -3.2940
   77SLPC   H4Y 7023   0.332   6.600   7.256  0.0429  0.3118  0.4015
   77SLPC   C35 7024   0.432   6.488   7.406 -0.5963  0.5026 -0.0364
   77SLPC   H5X 7025   0.539   6.512   7.388 -0.5144  1.0803  1.1030
   77SLPC   H5Y 7026   0.429   6.383   7.442 -0.9656 -0.0644 -1.6565
   77SLPC   C36 7027   0.378   6.580   7.521  0.6734  0.3964 -0.2435
   77SLPC   H6X 7028   0.270   6.551   7.517  0.4561  1.1783 -0.1188
   77SLPC   H6Y 7029   0.385   6.690   7.511  2.1592  0.0942 -4.9177
   77SLPC   C37 7030   0.425   6.527   7.656 -0.1904  0.3877  0.7288
   77SLPC   H7X 7031   0.531   6.556   7.669  0.3244 -1.6532  1.3717
   77SLPC   H7Y 7032   0.426   6.416   7.661  0.2749  0.2424 -1.5975
   77SLPC   C38 7033   0.355   6.588   7.775  0.1619 -0.0766 -0.8942
   77SLPC   H8X 7034   0.246   6.565   7.770 -0.3199  1.7795  0.0760
   77SLPC   H8Y 7035   0.365   6.698   7.770 -2.2825  0.2336 -0.3884
   77SLPC   C39 7036   0.424   6.539   7.903 -0.1090 -0.1488 -0.3185
   77SLPC   H9X 7037   0.530   6.568   7.887  0.3351 -1.4802  0.0633
   77SLPC   H9Y 7038   0.410   6.429   7.907 -0.9654  0.0066  2.0869
   77SLPC  C310 7039   0.369   6.606   8.029 -0.3124 -0.8933  0.4284
   77SLPC  H10X 7040   0.378   6.717   8.032 -2.3494 -0.6767  0.0411
   77SLPC  H10Y 7041   0.440   6.571   8.107  0.9596  0.0412 -0.2717
   77SLPC  C311 7042   0.229   6.570   8.082 -0.8241 -0.1073  0.4434
   77SLPC  H11X 7043   0.223   6.465   8.046 -0.0290  0.0686 -0.2365
   77SLPC  H11Y 7044   0.139   6.622   8.043 -0.1623  1.5143  0.9861
   77SLPC  C312 7045   0.210   6.574   8.233 -0.4088 -0.4286 -0.2039
   77SLPC  H12X 7046   0.297   6.517   8.272  0.1612 -1.1637 -2.3641
   77SLPC  H12Y 7047   0.122   6.509   8.254  0.5770 -1.8206 -0.1984
   77SLPC  C313 7048   0.196   6.717   8.288  0.1947  0.6458  0.3709
   77SLPC  H13X 7049   0.236   6.790   8.215  0.8588 -0.5050 -0.4435
   77SLPC  H13Y 7050   0.261   6.728   8.378 -0.0643  0.3210  0.5995
   77SLPC  C314 7051   0.054   6.754   8.329  0.2925  0.3870 -0.2821
   77SLPC  H14X 7052   0.058   6.853   8.378  0.2500 -0.1565  0.8592
   77SLPC  H14Y 7053   0.018   6.682   8.405 -0.5437  2.1523  1.0492
   77SLPC  C315 7054  -0.041   6.746   8.204  0.5247  0.4154  0.0348
   77SLPC  H15X 7055  -0.057   6.644   8.163  1.6028  0.3047 -0.1385
   77SLPC  H15Y 7056   0.004   6.815   8.129 -0.4378  0.0415 -0.9189
   77SLPC  C316 7057  -0.178   6.808   8.241 -0.6665 -0.1499  0.1659
   77SLPC  H16X 7058  -0.164   6.904   8.296 -2.1421  1.6447 -2.3871
   77SLPC  H16Y 7059  -0.247   6.754   8.309 -0.1633 -1.0941 -0.0684
   77SLPC  C317 7060  -0.262   6.831   8.113  0.4229  0.7229  0.1604
   77SLPC  H17X 7061  -0.219   6.911   8.049 -2.1081 -0.2834 -3.0587
   77SLPC  H17Y 7062  -0.361   6.871   8.144  0.7816  2.1531 -0.4694
   77SLPC  C318 7063  -0.275   6.702   8.027 -0.1462  0.1697 -0.5239
   77SLPC  H18X 7064  -0.352   6.719   7.949  0.6059  2.6530 -0.8095
   77SLPC  H18Y 7065  -0.305   6.614   8.087  1.1136  0.2160  0.2139
   77SLPC  H18Z 7066  -0.179   6.677   7.978 -0.9492 -2.5853 -0.8303
   78SLPC     N 7067   2.772   0.832   5.934  0.7898  0.8624  0.2722
   78SLPC   C13 7068   2.899   0.870   6.004 -0.3916 -0.5514 -0.4174
   78SLPC  H13A 7069   2.874   0.866   6.109  0.9787  0.8104 -0.0036
   78SLPC  H13B 7070   2.992   0.817   5.990  0.1742  0.5114 -0.7891
   78SLPC  H13C 7071   2.924   0.974   5.989 -1.5177 -0.3205 -0.7534
   78SLPC   C14 7072   2.718   0.691   5.964 -0.0368 -0.7425 -0.0548
   78SLPC  H14A 7073   2.637   0.664   5.898 -0.4319  1.1213 -0.3838
   78SLPC  H14B 7074   2.800   0.622   5.951 -0.1113 -1.2083  1.6686
   78SLPC  H14C 7075   2.680   0.676   6.064 -1.4908 -2.9669 -0.8571
   78SLPC   C15 7076   2.793   0.840   5.791  0.3819  0.1270 -0.0587
   78SLPC  H15A 7077   2.699   0.823   5.740  1.0511  1.1576 -1.7404
   78SLPC  H15B 7078   2.818   0.941   5.760 -0.1623  0.2475 -0.1142
   78SLPC  H15C 7079   2.869   0.767   5.771 -0.4512 -0.7952  0.0863
   78SLPC   C12 7080   2.669   0.937   5.986 -0.3357  0.1469 -0.4130
   78SLPC  H12A 7081   2.585   0.937   5.919 -1.2758 -1.2257  0.6998
   78SLPC  H12B 7082   2.716   1.035   5.986 -0.1819  0.0846  0.4984
   78SLPC   C11 7083   2.617   0.928   6.133  0.6703  0.0246  0.5817
   78SLPC  H11A 7084   2.561   0.832   6.129  0.5866  0.1124 -1.1018
   78SLPC  H11B 7085   2.542   1.010   6.137  0.6938  0.1590 -1.0821
   78SLPC     P 7086   2.776   1.054   6.296  0.2855 -0.5071  0.0296
   78SLPC   O13 7087   2.849   0.999   6.407 -0.4164  0.3160 -0.0232
   78SLPC   O14 7088   2.854   1.126   6.188  0.0786  0.1206 -0.5559
   78SLPC   O12 7089   2.715   0.926   6.236 -0.0443 -0.2480 -0.0313
   78SLPC   O11 7090   2.657   1.147   6.340  0.2088  0.0945 -0.1531
   78SLPC    C1 7091   2.691   1.261   6.421 -0.2269 -0.1271 -0.2669
   78SLPC    HA 7092   2.793   1.301   6.402  0.3084 -1.6730 -0.8382
   78SLPC    HB 7093   2.623   1.341   6.384 -0.0664  0.4820  0.7447
   78SLPC    C2 7094   2.670   1.234   6.576  0.8066 -0.1466  0.7121
   78SLPC    HS 7095   2.733   1.145   6.597  0.4134 -0.6949 -0.3776
   78SLPC   O21 7096   2.534   1.204   6.606  0.7805  0.5581 -0.5957
   78SLPC   C21 7097   2.499   1.109   6.691 -0.1093 -0.8324  0.4828
   78SLPC   O22 7098   2.584   1.039   6.741  0.4903  0.2309 -0.4314
   78SLPC   C22 7099   2.343   1.110   6.718 -0.1383  0.0973  0.6480
   78SLPC   H2R 7100   2.306   1.214   6.732 -1.2554  0.1564 -2.1507
   78SLPC   H2S 7101   2.293   1.056   6.635  3.2847 -2.3603 -0.0638
   78SLPC    C3 7102   2.717   1.352   6.657  0.1783 -0.5059 -0.2957
   78SLPC    HX 7103   2.661   1.444   6.627 -1.0381 -0.5403  1.6676
   78SLPC    HY 7104   2.820   1.385   6.635 -0.3924  1.3754 -0.3291
   78SLPC   O31 7105   2.697   1.328   6.799  0.0427 -0.0714  0.1185
   78SLPC   C31 7106   2.796   1.264   6.861 -0.3587 -0.9385 -0.3654
   78SLPC   O32 7107   2.899   1.219   6.814 -0.5346 -0.3232 -0.0269
   78SLPC   C32 7108   2.758   1.246   7.010  0.3353  0.3026 -0.2309
   78SLPC   H2X 7109   2.647   1.241   7.014  0.2130  0.3074 -2.3838
   78SLPC   H2Y 7110   2.802   1.317   7.083 -0.9512 -0.3463  1.2120
   78SLPC   C23 7111   2.312   1.023   6.840  0.0754 -0.0778 -0.0349
   78SLPC   H3R 7112   2.346   0.917   6.829 -1.7287 -0.6434 -0.4486
   78SLPC   H3S 7113   2.202   1.009   6.831  0.1863 -0.3318 -1.1341
   78SLPC   C24 7114   2.344   1.101   6.973 -0.0917  0.2288  0.2761
   78SLPC   H4R 7115   2.341   1.212   6.967 -0.9131  0.1629 -0.9455
   78SLPC   H4S 7116   2.449   1.084   7.004 -0.5772 -2.9787  0.4399
   78SLPC   C25 7117   2.258   1.054   7.096 -0.2341  0.0986 -0.0821
   78SLPC   H5R 7118   2.264   0.944   7.091  3.2285  0.2031 -0.9936
   78SLPC   H5S 7119   2.157   1.099   7.081  0.2741  1.2194 -0.3131
   78SLPC   C26 7120   2.296   1.097   7.238 -0.0930 -0.4589 -0.0855
   78SLPC   H6R 7121   2.290   1.208   7.240  0.1347 -0.4430  2.1304
   78SLPC   H6S 7122   2.398   1.056   7.257 -0.9990 -2.5837  0.4160
   78SLPC   C27 7123   2.213   1.027   7.346 -0.9457 -0.3827  0.0159
   78SLPC   H7R 7124   2.206   0.924   7.305 -1.1799  0.3685 -1.9604
   78SLPC   H7S 7125   2.115   1.079   7.353 -0.3530  1.3111 -2.6738
   78SLPC   C28 7126   2.297   1.031   7.483 -0.1759 -0.0672  0.2579
   78SLPC   H8R 7127   2.396   0.983   7.466 -0.2461 -0.1277  0.0232
   78SLPC   H8S 7128   2.243   0.967   7.556  0.9003 -0.5278  0.6705
   78SLPC   C29 7129   2.325   1.166   7.546 -0.4726  0.1531 -0.2662
   78SLPC   H9R 7130   2.331   1.255   7.482 -0.5815  0.5599  0.2850
   78SLPC  C210 7131   2.346   1.188   7.677  0.0269 -0.6140 -0.0349
   78SLPC  H10R 7132   2.367   1.291   7.709 -0.1130 -0.0786 -1.5865
   78SLPC  C211 7133   2.344   1.091   7.799 -0.9632  0.9990  0.0912
   78SLPC  H11R 7134   2.399   1.133   7.886 -0.8795 -1.0209  1.0721
   78SLPC  H11S 7135   2.392   0.993   7.783 -3.1968 -0.2878  0.8742
   78SLPC  C212 7136   2.200   1.072   7.848  0.2982 -0.2047  0.4723
   78SLPC  H12R 7137   2.167   0.969   7.828  2.2444 -0.7988  0.0793
   78SLPC  C213 7138   2.116   1.159   7.900  0.6597  0.0705  0.4218
   78SLPC  H13R 7139   2.016   1.123   7.930  0.3358  0.5158 -0.1119
   78SLPC  C214 7140   2.146   1.305   7.927 -0.5729 -0.5705 -0.5639
   78SLPC  H14R 7141   2.083   1.366   7.860 -1.2525 -0.9407 -0.2707
   78SLPC  H14S 7142   2.254   1.326   7.912 -1.0572 -0.1646 -4.5641
   78SLPC  C215 7143   2.109   1.335   8.075  0.3164 -0.5149  0.3522
   78SLPC  H15R 7144   2.000   1.355   8.074  0.0491 -1.8831 -0.4521
   78SLPC  H15S 7145   2.149   1.436   8.099 -0.2923 -0.2553  0.2920
   78SLPC  C216 7146   2.155   1.240   8.194  0.0624  0.0532 -0.5474
   78SLPC  H16R 7147   2.265   1.229   8.186 -0.1583 -0.9940 -3.2105
   78SLPC  H16S 7148   2.091   1.150   8.181 -1.3441  0.6073  1.9850
   78SLPC  C217 7149   2.121   1.305   8.330 -0.2917 -0.0253 -0.0975
   78SLPC  H17R 7150   2.023   1.355   8.316 -0.0322  0.5573  0.1430
   78SLPC  H17S 7151   2.195   1.383   8.357 -1.8904  0.6476  2.8376
   78SLPC  C218 7152   2.120   1.207   8.445  0.2288 -0.0281 -0.3010
   78SLPC  H18R 7153   2.222   1.195   8.488  0.4728 -1.3602 -1.2001
   78SLPC  H18S 7154   2.082   1.107   8.413 -1.4327  0.2553  0.6375
   78SLPC  H18T 7155   2.052   1.245   8.524 -0.0298  1.2529 -1.1092
   78SLPC   C33 7156   2.783   1.102   7.059 -0.5172 -0.1016  0.4552
   78SLPC   H3X 7157   2.891   1.083   7.041 -0.5004 -1.0799  1.4710
   78SLPC   H3Y 7158   2.718   1.030   7.005  0.6921  0.4752 -1.8970
   78SLPC   C34 7159   2.770   1.078   7.214 -0.2135 -0.2373 -0.2265
   78SLPC   H4X 7160   2.663   1.099   7.233  0.3250  0.9296  1.9123
   78SLPC   H4Y 7161   2.826   1.157   7.269  0.4293 -1.1621  0.4966
   78SLPC   C35 7162   2.815   0.946   7.264  0.1395  1.3114  1.1621
   78SLPC   H5X 7163   2.921   0.923   7.241  0.3640 -2.5811  4.6911
   78SLPC   H5Y 7164   2.765   0.858   7.220  0.9166 -0.3865  3.4422
   78SLPC   C36 7165   2.783   0.918   7.410 -0.3098 -0.8207  0.3645
   78SLPC   H6X 7166   2.829   0.820   7.436 -1.0976 -1.5652 -0.8711
   78SLPC   H6Y 7167   2.676   0.903   7.435 -0.1044  0.7948  2.3892
   78SLPC   C37 7168   2.819   1.030   7.505 -0.3310 -0.2793 -0.2279
   78SLPC   H7X 7169   2.745   1.112   7.492 -0.5378 -0.2038  1.2842
   78SLPC   H7Y 7170   2.916   1.074   7.474 -0.7461  0.2187 -0.8430
   78SLPC   C38 7171   2.827   0.987   7.654 -0.0977  0.3512 -0.5655
   78SLPC   H8X 7172   2.889   0.896   7.665  0.1065  0.5674  0.1569
   78SLPC   H8Y 7173   2.731   0.967   7.706  1.2789 -3.3718  0.8701
   78SLPC   C39 7174   2.894   1.103   7.737  0.2167 -0.2096 -0.6978
   78SLPC   H9X 7175   2.828   1.191   7.720 -0.6951 -0.8619 -0.5982
   78SLPC   H9Y 7176   2.994   1.132   7.696  0.0243  0.4638 -0.6985
   78SLPC  C310 7177   2.895   1.071   7.888  0.2141 -1.0844  0.3148
   78SLPC  H10X 7178   2.787   1.078   7.913  0.3730 -0.2804  0.8103
   78SLPC  H10Y 7179   2.949   1.154   7.938  1.3001 -2.0076  0.7219
   78SLPC  C311 7180   2.951   0.933   7.929  0.8487 -0.9000  0.1058
   78SLPC  H11X 7181   3.052   0.923   7.885 -0.2057 -0.0100 -2.7024
   78SLPC  H11Y 7182   2.873   0.867   7.886  0.2673  1.7027 -3.2133
   78SLPC  C312 7183   2.953   0.909   8.084 -0.2766 -0.0788  0.5049
   78SLPC  H12X 7184   3.029   0.974   8.131  0.5236 -1.2471  0.8663
   78SLPC  H12Y 7185   3.002   0.810   8.094  1.0457  0.7436  2.8462
   78SLPC  C313 7186   2.821   0.953   8.151 -0.4262  0.3086 -0.1455
   78SLPC  H13X 7187   2.742   0.907   8.088  0.9784 -0.3485 -1.5227
   78SLPC  H13Y 7188   2.810   1.064   8.156 -1.8479  0.4350 -3.4356
   78SLPC  C314 7189   2.815   0.907   8.298  0.3668 -0.9605 -0.1881
   78SLPC  H14X 7190   2.897   0.959   8.351 -1.5251  1.7426  0.3202
   78SLPC  H14Y 7191   2.820   0.796   8.294  0.1782 -0.9493 -0.9167
   78SLPC  C315 7192   2.678   0.938   8.360  0.2979 -0.0617 -0.1797
   78SLPC  H15X 7193   2.661   1.047   8.347 -0.0694  0.5447  3.9396
   78SLPC  H15Y 7194   2.672   0.912   8.468 -1.9677 -0.5345 -0.3692
   78SLPC  C316 7195   2.549   0.871   8.298  0.6346 -0.3363  0.7215
   78SLPC  H16X 7196   2.567   0.763   8.315  2.9198 -0.2005 -0.3417
   78SLPC  H16Y 7197   2.544   0.902   8.191 -3.3139 -0.6078  0.6949
   78SLPC  C317 7198   2.422   0.909   8.379 -0.1462 -0.2788  0.4865
   78SLPC  H17X 7199   2.400   1.015   8.357  0.8603 -0.4889 -1.8126
   78SLPC  H17Y 7200   2.438   0.896   8.488  0.6088  0.9038  0.5286
   78SLPC  C318 7201   2.292   0.833   8.340  0.0560 -0.1916 -0.2775
   78SLPC  H18X 7202   2.316   0.725   8.354  0.7009 -0.0648 -0.3810
   78SLPC  H18Y 7203   2.250   0.851   8.239  0.6429 -2.2776 -0.9602
   78SLPC  H18Z 7204   2.204   0.852   8.406  0.5075 -0.4773  0.4122
   79SLPC     N 7205   6.324   2.804   6.421 -0.0706  0.2940 -0.1841
   79SLPC   C13 7206   6.454   2.830   6.347 -0.2433  0.6567 -0.6729
   79SLPC  H13A 7207   6.538   2.818   6.415  0.3072 -3.3102 -1.8218
   79SLPC  H13B 7208   6.466   2.758   6.268 -0.5655  0.3756 -0.4698
   79SLPC  H13C 7209   6.452   2.928   6.304 -4.8488  0.6266 -1.0028
   79SLPC   C14 7210   6.292   2.935   6.494 -0.2103  0.2240  0.0573
   79SLPC  H14A 7211   6.374   2.973   6.554  1.3212 -0.9101 -1.2069
   79SLPC  H14B 7212   6.252   3.006   6.423 -0.0973  0.1944 -0.0375
   79SLPC  H14C 7213   6.209   2.916   6.560 -1.5709  0.4928 -1.5076
   79SLPC   C15 7214   6.354   2.705   6.525  0.0375 -0.0009 -0.3412
   79SLPC  H15A 7215   6.416   2.754   6.599  0.8236  1.5988 -1.9936
   79SLPC  H15B 7216   6.266   2.665   6.573 -0.3406  0.1123 -0.9448
   79SLPC  H15C 7217   6.423   2.627   6.496 -0.2985 -1.5004  2.5467
   79SLPC   C12 7218   6.214   2.752   6.324  0.1876 -0.2100 -0.5122
   79SLPC  H12A 7219   6.253   2.672   6.263  0.0887  0.4641 -1.4750
   79SLPC  H12B 7220   6.187   2.827   6.251  0.8362  1.3181  0.7386
   79SLPC   C11 7221   6.079   2.717   6.402  0.2369 -0.0606  0.0366
   79SLPC  H11A 7222   6.096   2.634   6.474 -0.2298  0.5809  0.9036
   79SLPC  H11B 7223   6.033   2.668   6.314  1.0836  0.5159 -0.7393
   79SLPC     P 7224   5.865   2.812   6.500 -0.0313 -0.1059  0.3041
   79SLPC   O13 7225   5.785   2.923   6.443 -0.5664  0.6245 -0.0169
   79SLPC   O14 7226   5.815   2.677   6.467  0.0237  0.3893 -0.0777
   79SLPC   O12 7227   6.009   2.829   6.450  0.3576  0.0382 -0.6316
   79SLPC   O11 7228   5.870   2.826   6.653  0.0281  0.3762 -0.0587
   79SLPC    C1 7229   5.934   2.746   6.747  0.1619  0.4579 -0.3209
   79SLPC    HA 7230   5.866   2.666   6.782  2.1080 -0.2593  2.1748
   79SLPC    HB 7231   6.017   2.685   6.706  0.8009 -0.1913  1.8119
   79SLPC    C2 7232   5.985   2.821   6.867  0.3156  0.1644  0.2189
   79SLPC    HS 7233   6.056   2.753   6.918  0.2670  0.6534  0.9426
   79SLPC   O21 7234   5.883   2.867   6.951  0.2155  0.1888 -0.4914
   79SLPC   C21 7235   5.823   2.777   7.028 -0.2732  0.3876  0.1320
   79SLPC   O22 7236   5.844   2.658   7.029  0.6342  0.1250  0.6175
   79SLPC   C22 7237   5.728   2.855   7.116  0.3627  0.0999  0.0770
   79SLPC   H2R 7238   5.760   2.960   7.135  2.7687 -0.5046 -0.2211
   79SLPC   H2S 7239   5.633   2.859   7.058  1.3075  0.4108 -1.5297
   79SLPC    C3 7240   6.065   2.945   6.829 -0.4614 -0.1083 -0.0380
   79SLPC    HX 7241   5.996   3.013   6.775 -0.4696 -0.9445 -1.1138
   79SLPC    HY 7242   6.141   2.930   6.749 -0.0793  0.9898  0.1013
   79SLPC   O31 7243   6.132   3.004   6.936 -0.1715  0.2793 -0.0356
   79SLPC   C31 7244   6.080   3.122   6.981  0.2468 -0.1610  0.6815
   79SLPC   O32 7245   5.976   3.174   6.938  0.3627 -0.2128 -0.2128
   79SLPC   C32 7246   6.170   3.187   7.079 -0.6787  0.5219 -1.2938
   79SLPC   H2X 7247   6.137   3.293   7.070  1.4560  1.4940  0.8536
   79SLPC   H2Y 7248   6.275   3.174   7.048 -0.1756  0.2423  0.3860
   79SLPC   C23 7249   5.699   2.791   7.255 -0.9553 -0.2489  0.1405
   79SLPC   H3R 7250   5.738   2.688   7.269 -0.8769 -0.3557 -0.8078
   79SLPC   H3S 7251   5.589   2.780   7.269 -1.2362  0.5737 -1.2259
   79SLPC   C24 7252   5.762   2.864   7.375  0.5234 -0.6075  0.0565
   79SLPC   H4R 7253   5.763   2.973   7.356 -1.8940 -0.4542  0.6013
   79SLPC   H4S 7254   5.868   2.832   7.382  0.6633  0.0553  1.0554
   79SLPC   C25 7255   5.675   2.837   7.500  0.3630  0.2529 -0.0478
   79SLPC   H5R 7256   5.682   2.727   7.510  2.4405 -0.1272 -3.8947
   79SLPC   H5S 7257   5.570   2.858   7.472  0.8077  2.3819 -0.3094
   79SLPC   C26 7258   5.726   2.907   7.624  0.4851 -0.3245 -0.7249
   79SLPC   H6R 7259   5.721   3.017   7.611  1.2420 -0.3519 -1.3033
   79SLPC   H6S 7260   5.834   2.886   7.638  1.4977  3.0361 -2.3699
   79SLPC   C27 7261   5.643   2.861   7.748  0.7909 -0.3930 -0.8422
   79SLPC   H7R 7262   5.630   2.751   7.741 -1.5467 -0.1077 -2.1050
   79SLPC   H7S 7263   5.544   2.911   7.737 -0.0369 -1.4098  1.4546
   79SLPC   C28 7264   5.706   2.897   7.882 -0.7215 -0.6925  0.6455
   79SLPC   H8R 7265   5.619   2.892   7.951 -1.2288 -0.8454  0.0035
   79SLPC   H8S 7266   5.735   3.004   7.876 -1.7099 -0.4859 -2.6340
   79SLPC   C29 7267   5.822   2.816   7.918 -0.2091 -0.2595  1.0568
   79SLPC   H9R 7268   5.901   2.805   7.842 -0.4218 -0.2896  0.8370
   79SLPC  C210 7269   5.834   2.746   8.031 -0.2291  0.4567  0.2135
   79SLPC  H10R 7270   5.919   2.678   8.041 -2.2724 -2.1130  1.1816
   79SLPC  C211 7271   5.739   2.737   8.146  0.1335 -0.6143  0.4217
   79SLPC  H11R 7272   5.742   2.643   8.206 -0.5771 -0.3982  0.8181
   79SLPC  H11S 7273   5.636   2.759   8.108  1.4884 -1.0787 -4.1174
   79SLPC  C212 7274   5.775   2.848   8.242 -1.1955 -0.6007  0.2984
   79SLPC  H12R 7275   5.853   2.917   8.206  0.9817 -2.2134  1.6399
   79SLPC  C213 7276   5.712   2.883   8.357 -0.5231  0.3488 -0.3297
   79SLPC  H13R 7277   5.748   2.966   8.419 -0.1293 -0.6738  0.8562
   79SLPC  C214 7278   5.589   2.822   8.410 -0.6569  0.3639  0.0795
   79SLPC  H14R 7279   5.549   2.752   8.333 -2.1639  1.5631 -0.2972
   79SLPC  H14S 7280   5.507   2.895   8.427  0.9052  2.0334  0.7005
   79SLPC  C215 7281   5.617   2.746   8.545 -0.1416  0.0605 -0.0659
   79SLPC  H15R 7282   5.716   2.696   8.545  0.4252  1.1142  1.7034
   79SLPC  H15S 7283   5.532   2.674   8.551  0.1343 -0.6603 -3.0841
   79SLPC  C216 7284   5.620   2.829   8.672  0.1311 -0.2600  0.3679
   79SLPC  H16R 7285   5.524   2.880   8.693  0.8210  0.4305  2.0195
   79SLPC  H16S 7286   5.687   2.915   8.651 -0.3067  0.1176  0.5095
   79SLPC  C217 7287   5.670   2.748   8.789 -0.6447 -0.4621 -0.1908
   79SLPC  H17R 7288   5.613   2.801   8.868 -1.2548  1.3712 -1.7906
   79SLPC  H17S 7289   5.779   2.756   8.805 -0.5390  2.2005 -1.6933
   79SLPC  C218 7290   5.639   2.600   8.804  0.5219  0.3831  0.1125
   79SLPC  H18R 7291   5.661   2.568   8.908  0.2240  1.8714  0.6482
   79SLPC  H18S 7292   5.688   2.529   8.734 -0.5336  0.2110 -0.4827
   79SLPC  H18T 7293   5.530   2.593   8.784  0.7821  1.3899 -1.9632
   79SLPC   C33 7294   6.151   3.133   7.228  0.2194  0.1045  0.0070
   79SLPC   H3X 7295   6.238   3.171   7.285 -1.2942  1.6973  1.3777
   79SLPC   H3Y 7296   6.152   3.022   7.228  0.5497  0.1067  0.1749
   79SLPC   C34 7297   6.041   3.197   7.306  0.7204 -0.0677 -0.4997
   79SLPC   H4X 7298   5.947   3.158   7.262  0.2187 -0.4934  0.9114
   79SLPC   H4Y 7299   6.038   3.308   7.302  3.5670  0.1048 -0.1802
   79SLPC   C35 7300   6.037   3.167   7.453 -0.1457  0.1794 -0.1190
   79SLPC   H5X 7301   6.058   3.060   7.476  0.4287  0.7890  2.4487
   79SLPC   H5Y 7302   5.933   3.195   7.481  0.6310  1.0233  2.1940
   79SLPC   C36 7303   6.127   3.255   7.540 -0.1537 -0.0365 -0.0285
   79SLPC   H6X 7304   6.108   3.364   7.525  2.5866  0.8427  1.9731
   79SLPC   H6Y 7305   6.230   3.249   7.498  0.0242  1.8055  0.0459
   79SLPC   C37 7306   6.129   3.214   7.691 -0.1564 -0.0216  0.0769
   79SLPC   H7X 7307   6.215   3.272   7.730 -0.8754  1.0289  0.1218
   79SLPC   H7Y 7308   6.150   3.105   7.699  2.2918  0.3352 -0.5790
   79SLPC   C38 7309   6.001   3.233   7.764  0.0407 -0.9005  0.2066
   79SLPC   H8X 7310   5.913   3.194   7.708  0.5197 -2.0052  0.1943
   79SLPC   H8Y 7311   5.987   3.341   7.786  2.3510 -0.5330  0.1448
   79SLPC   C39 7312   5.992   3.152   7.898  0.4933 -0.9489 -0.2080
   79SLPC   H9X 7313   6.084   3.172   7.958 -1.2438  2.3557  1.6212
   79SLPC   H9Y 7314   5.970   3.045   7.878 -1.9031 -0.4130 -0.7766
   79SLPC  C310 7315   5.885   3.218   7.984 -0.0804  0.4251  0.1154
   79SLPC  H10X 7316   5.791   3.162   7.965  0.0802 -0.4547  1.7225
   79SLPC  H10Y 7317   5.881   3.329   7.982  0.8308  0.5964  3.0513
   79SLPC  C311 7318   5.917   3.183   8.134  0.1040 -0.2908 -0.1995
   79SLPC  H11X 7319   6.014   3.231   8.161 -1.6879  2.7055  1.5740
   79SLPC  H11Y 7320   5.914   3.073   8.146 -1.8215 -0.2103  0.3471
   79SLPC  C312 7321   5.823   3.255   8.242 -0.1756  1.1208  0.2391
   79SLPC  H12X 7322   5.718   3.221   8.237  0.3388 -0.4181 -1.1775
   79SLPC  H12Y 7323   5.816   3.363   8.214  0.7055  0.7844 -1.4738
   79SLPC  C313 7324   5.876   3.252   8.385 -0.6936  0.0252 -0.2141
   79SLPC  H13X 7325   5.981   3.287   8.393 -0.5008 -0.8565  1.4121
   79SLPC  H13Y 7326   5.875   3.151   8.432 -1.5441  0.9009  1.7844
   79SLPC  C314 7327   5.779   3.325   8.479  0.4539 -0.0737 -0.6957
   79SLPC  H14X 7328   5.722   3.403   8.424 -2.2368 -1.7284 -0.4221
   79SLPC  H14Y 7329   5.836   3.361   8.568 -1.6921 -4.0938  2.7171
   79SLPC  C315 7330   5.664   3.238   8.545  0.2476  0.4100  0.1062
   79SLPC  H15X 7331   5.693   3.146   8.601 -0.3283 -1.1261 -2.0309
   79SLPC  H15Y 7332   5.609   3.192   8.461  0.3695 -0.6074  0.5675
   79SLPC  C316 7333   5.589   3.332   8.636  0.3779  0.0254 -0.4131
   79SLPC  H16X 7334   5.569   3.431   8.589  1.7349  0.2845 -0.4812
   79SLPC  H16Y 7335   5.649   3.350   8.728 -0.1340 -1.4928  0.2543
   79SLPC  C317 7336   5.458   3.259   8.671 -0.4495  0.0056  0.2433
   79SLPC  H17X 7337   5.436   3.192   8.585 -1.1097  1.2253 -0.5682
   79SLPC  H17Y 7338   5.375   3.332   8.678  0.5308  1.2058 -0.1766
   79SLPC  C318 7339   5.455   3.179   8.799 -0.4541 -0.6545  0.2630
   79SLPC  H18X 7340   5.478   3.228   8.896  4.7249  0.0123 -0.9872
   79SLPC  H18Y 7341   5.543   3.112   8.789  1.3485  1.5759  0.3762
   79SLPC  H18Z 7342   5.362   3.117   8.799  0.2667 -1.7642  0.4053
   80SLPC     N 7343   2.279   6.670   5.877 -0.1438 -0.3395  0.4753
   80SLPC   C13 7344   2.278   6.656   5.732  0.5957 -0.3223 -0.2327
   80SLPC  H13A 7345   2.345   6.728   5.687  1.6295 -0.7022  0.6631
   80SLPC  H13B 7346   2.306   6.556   5.702 -0.7296 -1.0325  0.8062
   80SLPC  H13C 7347   2.179   6.679   5.694  0.7205  0.2856 -0.2054
   80SLPC   C14 7348   2.258   6.820   5.908  0.7383  0.0327 -0.5996
   80SLPC  H14A 7349   2.245   6.840   6.014  1.0910 -0.4391 -0.4615
   80SLPC  H14B 7350   2.352   6.868   5.886  0.8619 -0.7866 -2.0037
   80SLPC  H14C 7351   2.180   6.870   5.853  0.3354 -1.2806 -1.2568
   80SLPC   C15 7352   2.418   6.629   5.921  0.2251  0.4385 -0.2289
   80SLPC  H15A 7353   2.501   6.675   5.870  1.7851 -1.3321  0.5792
   80SLPC  H15B 7354   2.432   6.645   6.027  2.3127 -1.0804 -0.2091
   80SLPC  H15C 7355   2.432   6.523   5.908  0.1282  0.5335 -1.2023
   80SLPC   C12 7356   2.173   6.592   5.950 -0.6016 -0.0143  1.1059
   80SLPC  H12A 7357   2.181   6.493   5.908  0.4814  1.2819 -2.0551
   80SLPC  H12B 7358   2.074   6.615   5.914 -0.7446  1.5405  2.3795
   80SLPC   C11 7359   2.168   6.584   6.105  0.2462  0.3944 -1.0727
   80SLPC  H11A 7360   2.154   6.691   6.132 -1.7987  0.1945 -1.2106
   80SLPC  H11B 7361   2.265   6.548   6.147  0.9509  1.6185 -1.5791
   80SLPC     P 7362   2.053   6.366   6.177 -0.3734 -0.4197  0.0271
   80SLPC   O13 7363   1.917   6.316   6.177  0.1302  0.1438 -1.1707
   80SLPC   O14 7364   2.136   6.290   6.086  0.0293  0.0742  0.7880
   80SLPC   O12 7365   2.052   6.517   6.137 -0.4851  0.5592  0.3042
   80SLPC   O11 7366   2.128   6.360   6.312 -0.0230  0.0453 -0.0741
   80SLPC    C1 7367   2.113   6.261   6.413  0.8214 -0.0314 -0.1778
   80SLPC    HA 7368   2.090   6.164   6.365 -1.5113  0.6080 -0.4706
   80SLPC    HB 7369   2.204   6.243   6.475  0.9621 -0.2673 -0.4541
   80SLPC    C2 7370   1.994   6.297   6.509  0.5810  0.5614 -0.1307
   80SLPC    HS 7371   1.903   6.289   6.446  1.3259 -0.2360 -1.1468
   80SLPC   O21 7372   2.021   6.420   6.580 -0.2789  0.0436 -0.0791
   80SLPC   C21 7373   1.934   6.463   6.667  0.2616 -0.4570  0.1711
   80SLPC   O22 7374   1.816   6.427   6.675  0.1494 -0.1457 -0.0762
   80SLPC   C22 7375   2.000   6.564   6.745  0.5587  0.7575 -0.4591
   80SLPC   H2R 7376   2.100   6.535   6.785 -0.6264  1.2762  3.2688
   80SLPC   H2S 7377   2.015   6.650   6.676  0.2453  1.5497  0.4436
   80SLPC    C3 7378   1.969   6.178   6.609  0.0984 -0.0163  0.3580
   80SLPC    HX 7379   1.973   6.081   6.555 -0.8621  1.3967 -2.3811
   80SLPC    HY 7380   1.865   6.189   6.647  1.2915 -1.1107  4.5742
   80SLPC   O31 7381   2.060   6.176   6.723 -0.0432  0.2088 -0.3229
   80SLPC   C31 7382   2.027   6.099   6.825 -0.0992 -0.5723 -1.4090
   80SLPC   O32 7383   1.950   6.005   6.824  0.6186 -0.3032  0.4050
   80SLPC   C32 7384   2.121   6.130   6.937 -0.0481 -0.6817 -0.4427
   80SLPC   H2X 7385   2.165   6.231   6.928  1.7020 -1.3921 -0.2725
   80SLPC   H2Y 7386   2.200   6.052   6.938 -0.1941 -0.8433  0.6865
   80SLPC   C23 7387   1.916   6.611   6.871 -0.2937  0.7697 -0.0095
   80SLPC   H3R 7388   1.818   6.652   6.839  0.1923  0.4128 -2.0771
   80SLPC   H3S 7389   1.974   6.692   6.920  0.1208  1.6628 -1.8745
   80SLPC   C24 7390   1.906   6.490   6.967  0.0743  0.1474 -0.2887
   80SLPC   H4R 7391   2.006   6.449   6.996 -0.5693 -1.2758  0.0350
   80SLPC   H4S 7392   1.858   6.412   6.904  0.8138 -0.2099 -0.4162
   80SLPC   C25 7393   1.826   6.522   7.090 -0.8106 -0.5337  0.1891
   80SLPC   H5R 7394   1.859   6.620   7.130 -1.1903 -0.7434  1.0466
   80SLPC   H5S 7395   1.841   6.439   7.163 -0.6009 -1.0148 -0.3921
   80SLPC   C26 7396   1.681   6.533   7.051  0.2428 -0.4698  0.2707
   80SLPC   H6R 7397   1.637   6.438   7.013 -0.8260 -1.6718  4.0273
   80SLPC   H6S 7398   1.671   6.625   6.990 -2.9471  1.0117  2.7111
   80SLPC   C27 7399   1.598   6.571   7.173  0.1230 -0.0636 -0.0985
   80SLPC   H7R 7400   1.615   6.679   7.193 -2.1982  0.3145  0.1317
   80SLPC   H7S 7401   1.623   6.510   7.263  1.6743  1.9918  0.9638
   80SLPC   C28 7402   1.446   6.566   7.149  0.1830 -0.6676 -0.0611
   80SLPC   H8R 7403   1.432   6.609   7.047 -0.5394 -2.6962 -0.8735
   80SLPC   H8S 7404   1.387   6.629   7.218  1.8141  1.3239 -0.4043
   80SLPC   C29 7405   1.386   6.428   7.153  0.0086 -0.7398  0.1807
   80SLPC   H9R 7406   1.381   6.378   7.055  2.0127  2.3053 -1.6273
   80SLPC  C210 7407   1.356   6.355   7.271 -0.6594 -0.5777 -0.3881
   80SLPC  H10R 7408   1.331   6.249   7.259  0.7141 -0.7213 -2.4574
   80SLPC  C211 7409   1.372   6.397   7.410 -0.4832  0.9263 -0.2893
   80SLPC  H11R 7410   1.404   6.503   7.411 -2.1403  1.5070 -2.1655
   80SLPC  H11S 7411   1.460   6.346   7.454  1.0132  0.1293 -3.8572
   80SLPC  C212 7412   1.249   6.402   7.497 -0.0478 -0.0064  0.2770
   80SLPC  H12R 7413   1.158   6.355   7.458  1.3284 -0.6516 -2.3785
   80SLPC  C213 7414   1.242   6.430   7.625 -0.3251 -0.8716  0.5577
   80SLPC  H13R 7415   1.147   6.440   7.678 -0.4871 -3.7328  0.9444
   80SLPC  C214 7416   1.356   6.481   7.707  0.0710  0.5522  0.2059
   80SLPC  H14R 7417   1.366   6.591   7.706  0.6089  0.5064 -0.6569
   80SLPC  H14S 7418   1.447   6.445   7.654 -0.8508  0.2273 -1.1842
   80SLPC  C215 7419   1.355   6.436   7.856  0.6020 -0.1464 -0.4345
   80SLPC  H15R 7420   1.350   6.325   7.853 -0.2110 -0.2701  2.3263
   80SLPC  H15S 7421   1.270   6.483   7.910  0.1097 -2.4399  0.8959
   80SLPC  C216 7422   1.485   6.465   7.938 -0.3146 -0.6657  0.5644
   80SLPC  H16R 7423   1.510   6.573   7.926 -2.5389 -0.1221  0.4650
   80SLPC  H16S 7424   1.565   6.414   7.881 -1.2183 -0.5240 -0.8755
   80SLPC  C217 7425   1.486   6.422   8.083  0.5973 -0.5190  0.2723
   80SLPC  H17R 7426   1.563   6.472   8.146 -0.2127  0.2781  0.6448
   80SLPC  H17S 7427   1.509   6.313   8.082  1.1387 -0.4068  0.2488
   80SLPC  C218 7428   1.351   6.456   8.154  0.4242 -0.5114  0.3261
   80SLPC  H18R 7429   1.330   6.563   8.136  1.9040  0.1701  2.2571
   80SLPC  H18S 7430   1.357   6.454   8.265  2.1454  0.5900  0.2830
   80SLPC  H18T 7431   1.273   6.385   8.118  1.4824 -0.7546 -1.6444
   80SLPC   C33 7432   2.049   6.122   7.072  0.1255 -0.0039  0.3716
   80SLPC   H3X 7433   2.010   6.020   7.089 -0.8099 -0.9092 -5.2967
   80SLPC   H3Y 7434   1.958   6.186   7.067 -0.0707 -0.3533 -1.8155
   80SLPC   C34 7435   2.146   6.163   7.186  0.4502  0.6025  0.4086
   80SLPC   H4X 7436   2.179   6.269   7.183  2.5903 -0.0550 -0.8010
   80SLPC   H4Y 7437   2.228   6.088   7.188  0.6684  0.8405  0.4601
   80SLPC   C35 7438   2.088   6.146   7.326  0.2668  0.2588 -0.3926
   80SLPC   H5X 7439   2.042   6.046   7.341 -0.8313  0.8639  0.4780
   80SLPC   H5Y 7440   2.018   6.228   7.353  0.6103  1.3446 -2.6363
   80SLPC   C36 7441   2.198   6.160   7.435 -0.1120  0.9456 -0.4187
   80SLPC   H6X 7442   2.208   6.265   7.469 -1.2981  0.7489  0.6236
   80SLPC   H6Y 7443   2.293   6.115   7.399 -0.4880 -0.5893  0.4049
   80SLPC   C37 7444   2.158   6.076   7.561  0.2567  0.7817  0.3576
   80SLPC   H7X 7445   2.138   5.973   7.527  1.0892  0.0021  2.0998
   80SLPC   H7Y 7446   2.075   6.128   7.613  0.6100  2.3195 -0.5480
   80SLPC   C38 7447   2.280   6.075   7.660  0.0358  0.8344 -0.1799
   80SLPC   H8X 7448   2.321   6.177   7.678 -0.4261  0.7879  1.2614
   80SLPC   H8Y 7449   2.361   6.021   7.608  0.2343  0.9154  0.0418
   80SLPC   C39 7450   2.262   6.018   7.798 -0.1374  0.4049  0.0987
   80SLPC   H9X 7451   2.237   5.910   7.796  1.3362 -0.0504  2.5004
   80SLPC   H9Y 7452   2.176   6.066   7.850  0.5459  1.4583  0.2891
   80SLPC  C310 7453   2.384   6.058   7.889  0.2799 -0.6955  0.1822
   80SLPC  H10X 7454   2.382   6.169   7.881 -2.7303 -0.6998 -0.3788
   80SLPC  H10Y 7455   2.471   6.018   7.833 -0.0535 -1.3757  0.1333
   80SLPC  C311 7456   2.381   6.014   8.036 -0.6732  0.3734 -0.0962
   80SLPC  H11X 7457   2.302   6.066   8.094 -1.0578 -0.5044  0.1853
   80SLPC  H11Y 7458   2.476   6.049   8.082 -0.5504  3.2620 -2.3231
   80SLPC  C312 7459   2.368   5.864   8.054  0.6712 -0.0974 -0.4136
   80SLPC  H12X 7460   2.438   5.812   7.985  1.7466  1.9981 -0.9901
   80SLPC  H12Y 7461   2.267   5.825   8.027  0.2591  0.2453  0.5987
   80SLPC  C313 7462   2.405   5.823   8.194 -0.2737 -0.0573  0.1934
   80SLPC  H13X 7463   2.357   5.893   8.267  0.2737  0.7002 -0.1659
   80SLPC  H13Y 7464   2.512   5.849   8.207  0.3993 -1.0288 -2.7594
   80SLPC  C314 7465   2.365   5.679   8.228 -0.5552  0.8460 -0.1470
   80SLPC  H14X 7466   2.401   5.617   8.143  1.1452 -0.4698  1.4339
   80SLPC  H14Y 7467   2.254   5.677   8.221 -0.5461 -2.8287 -1.5177
   80SLPC  C315 7468   2.438   5.635   8.351 -0.0948 -0.3318 -0.1385
   80SLPC  H15X 7469   2.423   5.704   8.437  0.6804  1.1747 -1.1634
   80SLPC  H15Y 7470   2.547   5.641   8.329  0.1815  0.1258  1.2705
   80SLPC  C316 7471   2.413   5.491   8.387  0.2521 -0.4179 -0.3492
   80SLPC  H16X 7472   2.465   5.427   8.312  0.4747 -1.2510  0.4999
   80SLPC  H16Y 7473   2.304   5.471   8.387  0.4905 -1.8527  0.6533
   80SLPC  C317 7474   2.473   5.441   8.521  0.0005  0.0417 -0.1040
   80SLPC  H17X 7475   2.411   5.480   8.604  0.6552 -0.7374  0.7658
   80SLPC  H17Y 7476   2.577   5.477   8.534  0.1540 -0.9945  1.9404
   80SLPC  C318 7477   2.471   5.289   8.530 -0.0587 -0.3768 -0.1646
   80SLPC  H18X 7478   2.372   5.246   8.505  0.4117 -2.0990  0.7803
   80SLPC  H18Y 7479   2.498   5.267   8.636  1.0894  0.6465 -0.2259
   80SLPC  H18Z 7480   2.553   5.249   8.467 -1.1743 -0.4533 -1.6155
   81SAPS     N 7481   2.356   3.561  11.067  0.1358 -0.0292  1.3506
   81SAPS   HN1 7482   2.433   3.518  11.013 -0.2502  1.4931 -0.5422
   81SAPS   HN2 7483   2.338   3.497  11.147  1.2485  0.0186  1.6499
   81SAPS   HN3 7484   2.271   3.569  11.007  1.9698  1.7809 -1.2518
   81SAPS   C12 7485   2.401   3.701  11.110 -0.4133  0.8617 -0.5065
   81SAPS  H12A 7486   2.317   3.748  11.160 -0.3936  0.8064 -0.4222
   81SAPS   C13 7487   2.519   3.697  11.212  0.1772  0.2281 -0.3210
   81SAPS  O13A 7488   2.591   3.591  11.215  0.0063 -0.1870 -0.3593
   81SAPS  O13B 7489   2.553   3.805  11.258  0.4894  0.2738  0.2822
   81SAPS   C11 7490   2.442   3.789  10.992 -0.4093  0.0127 -0.2268
   81SAPS  H11A 7491   2.510   3.735  10.923  0.2841  0.1446  0.3387
   81SAPS  H11B 7492   2.498   3.878  11.027  1.2505 -0.9180 -0.4075
   81SAPS     P 7493   2.307   3.852  10.769 -0.2309 -0.1308  0.1746
   81SAPS   O13 7494   2.161   3.836  10.741 -0.8917 -0.3754  1.2308
   81SAPS   O14 7495   2.357   3.983  10.723  0.1142 -0.8088 -0.1677
   81SAPS   O12 7496   2.324   3.832  10.924  0.7785  0.6675 -0.6124
   81SAPS   O11 7497   2.385   3.735  10.693  0.4621 -0.2855  0.4338
   81SAPS    C1 7498   2.519   3.760  10.646 -0.1208 -0.0635 -0.0474
   81SAPS    HA 7499   2.587   3.814  10.715  2.8888 -2.6010 -0.7798
   81SAPS    HB 7500   2.565   3.660  10.630 -1.4071 -0.7687  0.4690
   81SAPS    C2 7501   2.521   3.832  10.505  0.2581  0.0726 -0.2581
   81SAPS    HS 7502   2.544   3.939  10.521  0.3453 -0.0832  0.7619
   81SAPS   O21 7503   2.394   3.811  10.433  0.5228 -0.5243  0.0713
   81SAPS   C21 7504   2.351   3.906  10.355  0.6981 -0.4406 -0.1770
   81SAPS   O22 7505   2.405   4.020  10.342 -0.0310  0.5232 -0.0800
   81SAPS   C22 7506   2.224   3.867  10.280 -0.1072 -0.3140 -0.7473
   81SAPS   H2R 7507   2.231   3.760  10.249  1.3390 -0.1664 -0.9773
   81SAPS   H2S 7508   2.139   3.890  10.348  0.5090  0.5345 -0.2493
   81SAPS    C3 7509   2.643   3.771  10.428  0.2723  0.1437  0.2025
   81SAPS    HX 7510   2.650   3.661  10.443  0.3474 -0.1256 -1.6147
   81SAPS    HY 7511   2.732   3.805  10.484 -0.0405  0.6480  0.3998
   81SAPS   O31 7512   2.640   3.805  10.289  0.2436 -0.1727  0.6932
   81SAPS   C31 7513   2.700   3.909  10.251  0.6879  0.5632  0.6977
   81SAPS   O32 7514   2.761   3.988  10.323  0.0833 -0.1757 -0.2122
   81SAPS   C32 7515   2.694   3.906  10.093 -0.5719  0.3311 -0.4795
   81SAPS   H2X 7516   2.653   3.810  10.056 -0.9282 -0.5909  2.0994
   81SAPS   H2Y 7517   2.800   3.906  10.060 -0.6489  3.4560 -1.0325
   81SAPS   C23 7518   2.206   3.942  10.149  0.0643  0.0541  0.3675
   81SAPS   H3R 7519   2.279   3.906  10.073 -0.4704 -2.0941  0.7990
   81SAPS   H3S 7520   2.240   4.047  10.157 -2.4956  1.0182 -0.5585
   81SAPS   C24 7521   2.066   3.951  10.090 -1.2213  0.1145 -0.3126
   81SAPS   H4R 7522   2.059   4.042  10.027  0.9218  1.6997  1.5817
   81SAPS   H4S 7523   2.005   3.983  10.176  1.4565  0.1205  1.7184
   81SAPS   C25 7524   2.024   3.821  10.017 -0.3225  0.2895 -0.0062
   81SAPS   H5R 7525   2.041   3.735  10.083  1.0089  1.4971  1.2731
   81SAPS   C26 7526   1.980   3.806   9.890  0.4801  0.2730  0.4030
   81SAPS   H6R 7527   1.947   3.703   9.873  2.6110 -0.3327 -0.2599
   81SAPS   C27 7528   1.955   3.913   9.784  0.1800 -0.2033  0.4111
   81SAPS   H7R 7529   2.002   4.008   9.816 -0.7131  0.2361  0.4477
   81SAPS   H7S 7530   1.847   3.937   9.782  0.2422  0.0345 -1.0260
   81SAPS   C28 7531   2.002   3.886   9.641  0.4833  0.2529  0.0914
   81SAPS   H8R 7532   1.921   3.884   9.566 -0.7947 -1.4374  1.4474
   81SAPS   C29 7533   2.130   3.870   9.600  0.2764 -0.2428 -0.2916
   81SAPS   H9R 7534   2.146   3.857   9.492 -2.6624 -1.2294 -0.7131
   81SAPS  C210 7535   2.249   3.862   9.692 -0.3315  0.1922 -0.0350
   81SAPS  H10R 7536   2.226   3.827   9.795 -1.6744  0.0246 -0.3707
   81SAPS  H10S 7537   2.284   3.966   9.710  0.5568 -0.0775 -0.1490
   81SAPS  C211 7538   2.363   3.781   9.641  0.1497  0.1470  0.8658
   81SAPS  H11R 7539   2.398   3.696   9.701 -0.7227 -1.4419 -0.8008
   81SAPS  C212 7540   2.431   3.802   9.533  0.1441 -0.5735  0.2008
   81SAPS  H12R 7541   2.513   3.730   9.518  0.7214 -0.9465  4.2123
   81SAPS  C213 7542   2.420   3.915   9.433 -0.2482  0.0940  0.2557
   81SAPS  H13R 7543   2.511   3.978   9.439  0.6300 -1.2677  2.6638
   81SAPS  H13S 7544   2.345   3.988   9.469 -2.0380 -3.1364  3.7920
   81SAPS  C214 7545   2.391   3.858   9.295  0.9234 -0.3476  0.2414
   81SAPS  H14R 7546   2.415   3.752   9.278 -0.3040 -0.8567  1.5573
   81SAPS  C215 7547   2.322   3.919   9.194  0.6156  0.4674 -0.3623
   81SAPS  H15R 7548   2.317   3.874   9.093  1.0422 -1.0793  0.2763
   81SAPS  C216 7549   2.264   4.058   9.190 -0.2611 -0.3001  0.1504
   81SAPS  H16R 7550   2.303   4.114   9.278 -2.4426  0.9930  0.3769
   81SAPS  H16S 7551   2.154   4.043   9.192 -0.3495 -0.0527 -1.4612
   81SAPS  C217 7552   2.294   4.149   9.066 -0.4302  0.2054  0.2285
   81SAPS  H17R 7553   2.400   4.125   9.042 -0.7850 -1.2940  0.0570
   81SAPS  H17S 7554   2.279   4.258   9.078  0.6580  0.4877 -0.7093
   81SAPS  C218 7555   2.219   4.105   8.936 -0.8606 -0.6691  0.3097
   81SAPS  H18R 7556   2.114   4.137   8.949 -0.1620  1.4018  1.3009
   81SAPS  H18S 7557   2.232   3.995   8.924 -0.1360 -0.6903  1.2121
   81SAPS  C219 7558   2.280   4.171   8.812 -0.4996 -0.5264 -0.1427
   81SAPS  H19R 7559   2.389   4.157   8.829 -0.4926  1.4908  1.9073
   81SAPS  H19S 7560   2.251   4.278   8.804 -0.1174 -0.5175 -1.6869
   81SAPS  C220 7561   2.232   4.099   8.684 -0.5270  0.0948  0.0960
   81SAPS  H20R 7562   2.250   3.991   8.697 -0.6806  0.0608  0.0245
   81SAPS  H20S 7563   2.278   4.143   8.593 -2.9022 -0.5406 -1.5095
   81SAPS  H20T 7564   2.122   4.109   8.672 -0.2656  2.5485 -0.9542
   81SAPS   C33 7565   2.606   4.010  10.033  0.4619  0.8529 -0.3807
   81SAPS   H3X 7566   2.625   4.111  10.077 -0.4498  0.6582  0.5080
   81SAPS   H3Y 7567   2.497   3.994  10.045  0.7906 -0.8049  0.6343
   81SAPS   C34 7568   2.622   4.022   9.877  0.3703  0.1725 -0.0403
   81SAPS   H4X 7569   2.524   4.049   9.831  0.0751  1.0886  1.0773
   81SAPS   H4Y 7570   2.657   3.923   9.840  3.3239  1.4618 -0.9463
   81SAPS   C35 7571   2.714   4.126   9.821 -0.4404 -0.1113 -0.5562
   81SAPS   H5X 7572   2.817   4.098   9.849 -1.1617  0.0887  2.6750
   81SAPS   H5Y 7573   2.691   4.222   9.873  0.9094  0.7439 -1.5003
   81SAPS   C36 7574   2.710   4.163   9.675 -0.9185  0.1436 -0.4670
   81SAPS   H6X 7575   2.723   4.271   9.651 -1.4203  0.6860  1.5732
   81SAPS   H6Y 7576   2.610   4.137   9.635  0.1226 -3.2553 -1.2208
   81SAPS   C37 7577   2.810   4.082   9.588  1.0190 -0.4993 -0.1509
   81SAPS   H7X 7578   2.783   3.979   9.619  0.0227  0.0875  1.0161
   81SAPS   H7Y 7579   2.911   4.103   9.628  1.6006 -0.9153 -1.3572
   81SAPS   C38 7580   2.787   4.110   9.436 -0.4924  0.2933 -0.5319
   81SAPS   H8X 7581   2.817   4.216   9.422  1.0234 -0.0976 -0.4825
   81SAPS   H8Y 7582   2.683   4.086   9.409 -0.7590 -2.8992  2.5939
   81SAPS   C39 7583   2.879   4.020   9.355  0.0557 -0.1110  0.0403
   81SAPS   H9X 7584   2.902   3.929   9.414  2.2501 -0.1996 -0.8734
   81SAPS   H9Y 7585   2.972   4.078   9.340  0.0487 -0.3723 -1.1469
   81SAPS  C310 7586   2.825   3.971   9.217 -0.0049 -0.5653  0.1746
   81SAPS  H10X 7587   2.732   3.915   9.240 -0.9628  0.6571 -0.6407
   81SAPS  H10Y 7588   2.896   3.897   9.174  0.6504 -0.4659  1.0538
   81SAPS  C311 7589   2.794   4.093   9.118  0.6178  0.1883  0.0754
   81SAPS  H11X 7590   2.892   4.136   9.090  0.1098 -0.0315 -2.2599
   81SAPS  H11Y 7591   2.733   4.168   9.174  2.2428  0.3502  1.7184
   81SAPS  C312 7592   2.724   4.062   8.986 -0.4597 -0.5509  0.1560
   81SAPS  H12X 7593   2.624   4.016   9.004 -0.4979 -1.0731 -1.2911
   81SAPS  H12Y 7594   2.782   3.985   8.931  2.9386  1.3054  0.8627
   81SAPS  C313 7595   2.710   4.186   8.900 -0.2775  0.2195  0.5110
   81SAPS  H13X 7596   2.811   4.231   8.904  0.1620 -0.6893 -0.1076
   81SAPS  H13Y 7597   2.627   4.249   8.939 -1.5131 -0.6177 -0.6722
   81SAPS  C314 7598   2.669   4.147   8.754 -0.5072 -0.3292 -0.4861
   81SAPS  H14X 7599   2.579   4.082   8.767 -1.4495  1.2217  1.1364
   81SAPS  H14Y 7600   2.753   4.085   8.717  1.1210  0.1144  2.2433
   81SAPS  C315 7601   2.636   4.271   8.668 -0.0995  0.2791 -0.5404
   81SAPS  H15X 7602   2.680   4.367   8.702  1.7689 -0.1747 -1.5580
   81SAPS  H15Y 7603   2.529   4.288   8.696  0.2144 -0.2490  1.0982
   81SAPS  C316 7604   2.651   4.265   8.514 -0.7189  0.3752  0.2385
   81SAPS  H16X 7605   2.584   4.190   8.466  0.2148 -1.1086  1.1666
   81SAPS  H16Y 7606   2.755   4.245   8.481 -1.2599 -1.4610 -0.4984
   81SAPS  C317 7607   2.621   4.404   8.445  0.2604 -0.3389 -0.6512
   81SAPS  H17X 7608   2.634   4.395   8.335 -0.4751  0.7742 -0.8459
   81SAPS  H17Y 7609   2.685   4.486   8.485 -0.2939 -0.8311  1.3822
   81SAPS  C318 7610   2.476   4.441   8.483  0.1670 -0.6277 -0.4569
   81SAPS  H18X 7611   2.456   4.472   8.588  0.8655 -1.3624 -0.0964
   81SAPS  H18Y 7612   2.409   4.356   8.456  1.7041 -1.8071 -0.7120
   81SAPS  H18Z 7613   2.460   4.537   8.431  1.8012 -0.8411 -1.4047
   82SAPS     N 7614   0.974   3.587  10.836 -0.4602 -0.2227  0.4552
   82SAPS   HN1 7615   0.876   3.560  10.817 -0.2187 -0.9547  0.2328
   82SAPS   HN2 7616   0.981   3.661  10.909  0.3929  0.3419 -0.1684
   82SAPS   HN3 7617   1.009   3.614  10.742  0.4595  0.4458  0.9673
   82SAPS   C12 7618   1.063   3.474  10.884 -0.2285  0.1652  0.1675
   82SAPS  H12A 7619   1.164   3.509  10.865  0.0627 -0.3035  0.8225
   82SAPS   C13 7620   1.033   3.442  11.039 -0.9437  0.3299 -0.9531
   82SAPS  O13A 7621   0.971   3.519  11.113  0.3998  0.1853  0.1298
   82SAPS  O13B 7622   1.108   3.349  11.087  0.2779 -0.3279 -0.5149
   82SAPS   C11 7623   1.044   3.343  10.805  0.7240 -0.6293 -0.1040
   82SAPS  H11A 7624   1.113   3.270  10.852 -1.2619 -2.7713 -0.3552
   82SAPS  H11B 7625   1.070   3.365  10.699 -1.6717  0.4688 -0.5378
   82SAPS     P 7626   0.871   3.147  10.844 -0.4385 -0.0181 -0.3361
   82SAPS   O13 7627   0.982   3.050  10.811  0.2078 -0.1820 -0.5556
   82SAPS   O14 7628   0.816   3.145  10.981  0.1408  0.2093  0.2135
   82SAPS   O12 7629   0.906   3.295  10.816 -0.1721  0.4356  0.3389
   82SAPS   O11 7630   0.755   3.103  10.749 -0.0600  0.7854 -0.2309
   82SAPS    C1 7631   0.704   3.180  10.641 -0.1181 -0.1550 -0.3388
   82SAPS    HA 7632   0.595   3.163  10.627 -0.2500  1.4536 -1.4847
   82SAPS    HB 7633   0.711   3.288  10.666 -1.3507  0.4272 -2.3267
   82SAPS    C2 7634   0.788   3.155  10.518 -0.3374  0.0618 -0.5201
   82SAPS    HS 7635   0.891   3.188  10.543 -0.9200  1.9566 -0.4684
   82SAPS   O21 7636   0.741   3.227  10.400 -0.0476  0.6144 -0.0135
   82SAPS   C21 7637   0.771   3.349  10.395  0.4133 -0.9207 -0.1426
   82SAPS   O22 7638   0.839   3.411  10.479  0.1069 -0.1849  0.4490
   82SAPS   C22 7639   0.702   3.408  10.273 -0.2028  0.3005 -0.2641
   82SAPS   H2R 7640   0.593   3.391  10.264 -0.0125 -0.7027 -0.8400
   82SAPS   H2S 7641   0.729   3.516  10.263 -1.0709  0.8387  2.4062
   82SAPS    C3 7642   0.805   3.011  10.483 -0.1138 -0.4728  0.0511
   82SAPS    HX 7643   0.703   2.966  10.475 -0.2804 -0.1072  0.0909
   82SAPS    HY 7644   0.857   2.958  10.566 -1.4434 -0.9990  0.5810
   82SAPS   O31 7645   0.883   2.991  10.361 -0.4611 -0.0150  0.2401
   82SAPS   C31 7646   0.897   2.864  10.314  0.0664 -0.3171  0.6412
   82SAPS   O32 7647   0.856   2.764  10.376  0.7808 -0.7659 -0.0849
   82SAPS   C32 7648   0.960   2.869  10.173 -0.0844 -0.0112  0.9592
   82SAPS   H2X 7649   1.057   2.920  10.190 -1.3673  2.6465  0.7810
   82SAPS   H2Y 7650   0.896   2.938  10.114  1.3088  2.7734  2.5116
   82SAPS   C23 7651   0.750   3.324  10.155 -0.2078  0.5785 -0.3178
   82SAPS   H3R 7652   0.703   3.223  10.152 -1.1885  1.0131 -0.0153
   82SAPS   H3S 7653   0.859   3.319  10.174 -0.4858  0.0368  1.2428
   82SAPS   C24 7654   0.723   3.392  10.018  0.1299  0.1305 -0.3692
   82SAPS   H4R 7655   0.789   3.339   9.946  0.3631  0.0936 -0.1313
   82SAPS   H4S 7656   0.751   3.498  10.033 -0.1142  0.3219 -1.1844
   82SAPS   C25 7657   0.577   3.372   9.976  0.0215 -0.1806 -0.0275
   82SAPS   H5R 7658   0.500   3.345  10.049 -0.5939 -2.2178 -1.3550
   82SAPS   C26 7659   0.535   3.387   9.851  0.7887  0.3861 -0.8788
   82SAPS   H6R 7660   0.430   3.358   9.835  0.0449  2.7821 -0.7731
   82SAPS   C27 7661   0.609   3.437   9.723  0.4112  0.7657 -0.6189
   82SAPS   H7R 7662   0.615   3.344   9.663 -0.3038  0.7652 -0.7045
   82SAPS   H7S 7663   0.717   3.452   9.740  0.8396 -2.3752  0.1136
   82SAPS   C28 7664   0.540   3.551   9.649  0.1447  0.9547  0.2504
   82SAPS   H8R 7665   0.463   3.610   9.702 -1.9576 -0.9721 -0.4747
   82SAPS   C29 7666   0.567   3.579   9.521  0.1202  0.1521  0.0609
   82SAPS   H9R 7667   0.513   3.664   9.476  0.7485  0.6472  0.2238
   82SAPS  C210 7668   0.673   3.513   9.434  0.0889 -0.0619  0.0454
   82SAPS  H10R 7669   0.751   3.462   9.496 -1.2305  0.8128  2.5802
   82SAPS  H10S 7670   0.718   3.599   9.380 -1.0166 -0.8636 -2.2820
   82SAPS  C211 7671   0.596   3.421   9.347 -0.0845  0.4493  0.4831
   82SAPS  H11R 7672   0.572   3.322   9.389  1.3232 -0.0002  0.2847
   82SAPS  C212 7673   0.560   3.437   9.223  0.5852  0.2168 -0.5463
   82SAPS  H12R 7674   0.508   3.358   9.166  1.0655 -0.1997 -0.4152
   82SAPS  C213 7675   0.583   3.556   9.132 -0.0642  0.3155 -0.0854
   82SAPS  H13R 7676   0.623   3.644   9.188 -1.2294 -0.3613  1.9001
   82SAPS  H13S 7677   0.480   3.585   9.100  0.5595  1.4718 -1.1400
   82SAPS  C214 7678   0.655   3.519   9.000  0.1122  0.0552 -0.3278
   82SAPS  H14R 7679   0.651   3.414   8.967  0.4850  0.5266 -1.9362
   82SAPS  C215 7680   0.741   3.597   8.928  0.5077  0.1075  0.5857
   82SAPS  H15R 7681   0.783   3.555   8.835  2.3737  0.5959  1.1665
   82SAPS  C216 7682   0.772   3.739   8.965 -0.3882 -0.8866  0.1487
   82SAPS  H16R 7683   0.875   3.772   8.941 -1.0217  2.2591  1.1935
   82SAPS  H16S 7684   0.761   3.754   9.075 -0.1740  0.8753 -0.0455
   82SAPS  C217 7685   0.673   3.829   8.884 -0.0805  0.4448 -0.1938
   82SAPS  H17R 7686   0.658   3.924   8.939  1.7291  1.4150 -1.2830
   82SAPS  H17S 7687   0.577   3.773   8.875  0.7121 -0.6478 -2.8191
   82SAPS  C218 7688   0.712   3.874   8.740 -0.2919 -0.1624  0.1446
   82SAPS  H18R 7689   0.624   3.926   8.696 -0.7172 -0.1385  1.0017
   82SAPS  H18S 7690   0.750   3.786   8.683  0.4731 -0.2037  0.7099
   82SAPS  C219 7691   0.831   3.982   8.754 -0.1371  0.2485  0.8515
   82SAPS  H19R 7692   0.908   3.916   8.798  0.1615  1.3758  2.0888
   82SAPS  H19S 7693   0.802   4.057   8.830  1.3980  0.0169  1.6915
   82SAPS  C220 7694   0.893   4.058   8.634  0.4331  0.1108 -0.4563
   82SAPS  H20R 7695   0.819   4.114   8.572 -1.8199  1.4533  3.0878
   82SAPS  H20S 7696   0.944   3.983   8.570  0.6285 -0.1523  0.0047
   82SAPS  H20T 7697   0.958   4.143   8.666 -0.8425  0.7318  0.5816
   82SAPS   C33 7698   0.966   2.734  10.093 -0.2941 -0.4228 -1.0237
   82SAPS   H3X 7699   0.865   2.689  10.100  1.2201 -3.9037  3.0387
   82SAPS   H3Y 7700   1.034   2.661  10.142  0.9131  2.1355  1.3240
   82SAPS   C34 7701   1.012   2.767   9.950  0.1097 -0.4672  0.3424
   82SAPS   H4X 7702   1.110   2.820   9.948  0.2398 -0.6669  1.0820
   82SAPS   H4Y 7703   0.930   2.835   9.920  0.5455  0.9330  2.1618
   82SAPS   C35 7704   1.022   2.640   9.874  0.2446 -0.2944  0.1181
   82SAPS   H5X 7705   0.923   2.591   9.876 -0.1052  0.4046  0.0741
   82SAPS   H5Y 7706   1.106   2.582   9.917  0.3454  1.2020  2.0846
   82SAPS   C36 7707   1.066   2.672   9.725  0.3878  0.9108  0.0952
   82SAPS   H6X 7708   1.170   2.709   9.712  0.6578  0.3585  0.6192
   82SAPS   H6Y 7709   1.000   2.757   9.699 -0.1327 -0.3331 -3.0467
   82SAPS   C37 7710   1.024   2.561   9.626 -0.4515  0.5979  0.7835
   82SAPS   H7X 7711   0.918   2.534   9.646 -1.0852  1.9073 -0.5639
   82SAPS   H7Y 7712   1.084   2.468   9.631 -1.8563 -0.9012 -4.1202
   82SAPS   C38 7713   1.038   2.598   9.478 -0.4490  0.2729 -0.6443
   82SAPS   H8X 7714   1.148   2.595   9.458 -0.2982  0.2332  0.1726
   82SAPS   H8Y 7715   0.989   2.695   9.455 -1.1277  0.2030  0.4692
   82SAPS   C39 7716   0.956   2.489   9.405 -0.4145 -0.5748  0.6172
   82SAPS   H9X 7717   0.850   2.496   9.435 -0.2882  0.9459  0.7856
   82SAPS   H9Y 7718   0.989   2.385   9.428  0.9999 -0.0361  1.1275
   82SAPS  C310 7719   0.959   2.498   9.250  0.1780  0.3922 -0.2175
   82SAPS  H10X 7720   0.923   2.400   9.211  2.3499 -0.6265  0.1816
   82SAPS  H10Y 7721   1.061   2.506   9.207  0.1111 -1.7553 -0.8868
   82SAPS  C311 7722   0.865   2.608   9.196  0.1235  0.9217 -0.0059
   82SAPS  H11X 7723   0.924   2.698   9.224  1.5113  0.1232 -0.2650
   82SAPS  H11Y 7724   0.758   2.599   9.225 -0.3118  0.4220 -1.6440
   82SAPS  C312 7725   0.875   2.592   9.043 -0.1641  0.5229 -0.0195
   82SAPS  H12X 7726   0.844   2.489   9.018  1.5976 -0.0114 -0.1398
   82SAPS  H12Y 7727   0.983   2.592   9.018 -0.5076 -0.8530 -1.7025
   82SAPS  C313 7728   0.798   2.688   8.949  0.4585 -0.6889  0.0623
   82SAPS  H13X 7729   0.837   2.788   8.978  0.7421 -1.0596  1.0215
   82SAPS  H13Y 7730   0.690   2.690   8.973  0.4806 -1.0913  0.2199
   82SAPS  C314 7731   0.809   2.665   8.796 -0.1859  0.3649  0.3187
   82SAPS  H14X 7732   0.761   2.566   8.777 -0.7478  0.4082  1.4488
   82SAPS  H14Y 7733   0.912   2.655   8.756 -0.5942 -0.2939 -0.6284
   82SAPS  C315 7734   0.719   2.760   8.715 -0.4359 -0.2407  0.1409
   82SAPS  H15X 7735   0.759   2.863   8.715  1.1303 -0.6986 -3.1929
   82SAPS  H15Y 7736   0.619   2.751   8.762 -0.6360 -2.8770 -0.6105
   82SAPS  C316 7737   0.727   2.726   8.568  0.2097  0.4094  0.2909
   82SAPS  H16X 7738   0.652   2.785   8.511  1.1308 -1.4984 -3.2269
   82SAPS  H16Y 7739   0.714   2.617   8.550  3.4451  0.1785 -1.5518
   82SAPS  C317 7740   0.865   2.766   8.496  0.0273 -0.0241  0.1549
   82SAPS  H17X 7741   0.941   2.714   8.558 -0.1920 -0.1981  0.2838
   82SAPS  H17Y 7742   0.881   2.874   8.513  0.9604  0.0475 -1.0587
   82SAPS  C318 7743   0.863   2.738   8.345  0.2446  0.6516 -0.3258
   82SAPS  H18X 7744   0.791   2.801   8.288 -0.2999  0.0165 -0.3435
   82SAPS  H18Y 7745   0.817   2.638   8.329 -1.5843  1.3548  0.3366
   82SAPS  H18Z 7746   0.966   2.751   8.305  1.1626 -0.1162  1.6799
   83SAPS     N 7747   1.931   3.752  10.816 -0.2246 -0.3789  1.0424
   83SAPS   HN1 7748   1.870   3.833  10.793  0.6020 -0.0000  0.1371
   83SAPS   HN2 7749   2.022   3.786  10.780 -1.6514  0.4123 -2.2044
   83SAPS   HN3 7750   1.911   3.665  10.762  1.6085 -0.0132 -0.2976
   83SAPS   C12 7751   1.936   3.726  10.963 -0.4320  0.0982 -0.3447
   83SAPS  H12A 7752   1.845   3.680  10.998  0.4352  0.1028  2.1023
   83SAPS   C13 7753   2.051   3.618  10.998  0.0580 -0.0252  0.8940
   83SAPS  O13A 7754   2.119   3.564  10.903 -0.5515  0.2951 -0.1652
   83SAPS  O13B 7755   2.066   3.570  11.116  0.4945 -0.1622  0.2373
   83SAPS   C11 7756   1.982   3.854  11.041  0.0009  0.8360  0.1602
   83SAPS  H11A 7757   2.081   3.887  11.004  0.2517  0.7490  0.7291
   83SAPS  H11B 7758   2.004   3.826  11.146 -0.2222  0.9165  0.2299
   83SAPS     P 7759   1.945   4.111  11.071  0.2877  0.2963  0.1878
   83SAPS   O13 7760   1.834   4.183  11.143 -0.2393  0.0193  0.2250
   83SAPS   O14 7761   2.070   4.092  11.150 -0.1409 -0.2329  0.1197
   83SAPS   O12 7762   1.888   3.962  11.032  0.1628  0.5226  0.2115
   83SAPS   O11 7763   1.971   4.183  10.934  0.2353 -0.0230 -0.4095
   83SAPS    C1 7764   1.853   4.215  10.853  0.8481 -0.4354 -0.4884
   83SAPS    HA 7765   1.832   4.120  10.798 -2.6635  0.0029 -0.1476
   83SAPS    HB 7766   1.757   4.245  10.899 -1.1362  3.7260 -6.1430
   83SAPS    C2 7767   1.890   4.313  10.742  0.2737  0.4037 -0.1125
   83SAPS    HS 7768   1.869   4.417  10.774 -1.0047  0.3244 -0.6343
   83SAPS   O21 7769   1.823   4.276  10.618 -0.0016 -0.2884 -0.0610
   83SAPS   C21 7770   1.713   4.340  10.597  0.3692  0.3744 -0.0859
   83SAPS   O22 7771   1.670   4.435  10.658 -0.2516  0.2867  0.4161
   83SAPS   C22 7772   1.649   4.277  10.473  0.6703  0.0904 -0.0064
   83SAPS   H2R 7773   1.719   4.197  10.442  3.1660  2.8423 -2.1726
   83SAPS   H2S 7774   1.551   4.240  10.508  0.4078 -0.3471 -1.1695
   83SAPS    C3 7775   2.047   4.307  10.720 -0.1231  0.6897 -0.8128
   83SAPS    HX 7776   2.075   4.200  10.710 -0.8836  0.4792 -0.7036
   83SAPS    HY 7777   2.103   4.359  10.801 -2.0685  2.6384 -0.6490
   83SAPS   O31 7778   2.068   4.385  10.605 -0.1448 -0.0771  0.2499
   83SAPS   C31 7779   2.089   4.318  10.494  0.0702 -0.2641 -0.2865
   83SAPS   O32 7780   2.069   4.197  10.477 -0.1238 -0.5694 -0.1474
   83SAPS   C32 7781   2.128   4.426  10.392  0.2784 -0.1531  0.5861
   83SAPS   H2X 7782   2.204   4.501  10.425 -0.6240  0.9411  0.2628
   83SAPS   H2Y 7783   2.036   4.480  10.362 -0.1548 -2.1042 -1.9214
   83SAPS   C23 7784   1.621   4.387  10.373  0.1242 -0.1101  0.3238
   83SAPS   H3R 7785   1.560   4.463  10.427 -0.4579 -0.9355  0.8478
   83SAPS   H3S 7786   1.558   4.358  10.286 -0.5732  1.0652  0.4172
   83SAPS   C24 7787   1.749   4.466  10.328  0.5752  0.2315 -0.5468
   83SAPS   H4R 7788   1.814   4.496  10.413 -1.4952  0.3150  1.0816
   83SAPS   H4S 7789   1.735   4.560  10.272  2.0044 -0.1017 -1.5321
   83SAPS   C25 7790   1.815   4.365  10.233  0.2907  0.2406 -0.0725
   83SAPS   H5R 7791   1.864   4.280  10.284 -0.5960 -0.8636 -0.9917
   83SAPS   C26 7792   1.822   4.365  10.100  0.3945  0.3189  0.0095
   83SAPS   H6R 7793   1.876   4.286  10.046 -1.6365  1.2307 -3.6446
   83SAPS   C27 7794   1.763   4.466  10.012  0.8532  0.4381 -0.0630
   83SAPS   H7R 7795   1.724   4.550  10.073 -0.3956  0.1799 -0.4708
   83SAPS   H7S 7796   1.667   4.431   9.968 -0.2933  3.2307  0.0137
   83SAPS   C28 7797   1.865   4.523   9.918  0.0015 -0.4045  0.1506
   83SAPS   H8R 7798   1.912   4.616   9.952 -0.7431  0.1944 -0.4218
   83SAPS   C29 7799   1.902   4.477   9.796  0.0829 -0.3522 -0.1663
   83SAPS   H9R 7800   1.992   4.514   9.744 -0.1454 -0.5166 -0.6887
   83SAPS  C210 7801   1.852   4.351   9.733 -0.4616  0.7187 -0.2665
   83SAPS  H10R 7802   1.787   4.361   9.644 -0.7634 -3.2796 -0.6378
   83SAPS  H10S 7803   1.780   4.299   9.800 -1.1042 -0.4129 -1.8046
   83SAPS  C211 7804   1.970   4.255   9.708 -0.1027 -0.1428 -0.3649
   83SAPS  H11R 7805   2.018   4.207   9.794 -0.5064  1.0077  0.5372
   83SAPS  C212 7806   2.023   4.248   9.584  0.4016 -0.1301  0.5683
   83SAPS  H12R 7807   2.100   4.171   9.567 -0.6698 -1.2445  0.6471
   83SAPS  C213 7808   1.969   4.322   9.461  0.0697  0.3352  0.1017
   83SAPS  H13R 7809   1.918   4.417   9.487 -2.6373 -1.7664  3.3506
   83SAPS  H13S 7810   1.881   4.262   9.429  0.9463 -0.9529  0.0237
   83SAPS  C214 7811   2.068   4.349   9.353  0.2502  0.3732 -0.1265
   83SAPS  H14R 7812   2.168   4.304   9.364 -0.3335 -0.8490  0.3474
   83SAPS  C215 7813   2.047   4.422   9.237  0.5949  0.0008 -0.6834
   83SAPS  H15R 7814   2.121   4.422   9.155  0.1162  0.1067 -1.1195
   83SAPS  C216 7815   1.908   4.479   9.210 -0.1249 -0.2492 -0.4502
   83SAPS  H16R 7816   1.919   4.573   9.153 -1.3295  0.0145 -0.2768
   83SAPS  H16S 7817   1.854   4.495   9.306  1.9098  0.0305  0.7150
   83SAPS  C217 7818   1.829   4.367   9.134 -0.1537 -0.6601  0.9479
   83SAPS  H17R 7819   1.725   4.397   9.109  0.1868 -1.3064 -1.5719
   83SAPS  H17S 7820   1.812   4.285   9.206 -1.1521 -0.6644  0.7173
   83SAPS  C218 7821   1.892   4.321   9.001 -0.5842 -0.3338  0.1110
   83SAPS  H18R 7822   1.852   4.221   8.970  1.6153 -1.8744  1.8881
   83SAPS  H18S 7823   1.997   4.289   9.022 -0.9967 -0.8886  1.4311
   83SAPS  C219 7824   1.884   4.419   8.885 -0.8335  0.2011 -0.0159
   83SAPS  H19R 7825   1.954   4.501   8.912  2.9015 -2.4718 -0.7482
   83SAPS  H19S 7826   1.777   4.447   8.876 -1.1548 -0.9756  0.0776
   83SAPS  C220 7827   1.934   4.351   8.754  0.2856 -0.4849  0.4236
   83SAPS  H20R 7828   2.043   4.330   8.751  0.5469  0.8471 -0.9583
   83SAPS  H20S 7829   1.893   4.396   8.660 -2.1232 -1.9007  0.7037
   83SAPS  H20T 7830   1.889   4.249   8.748 -1.0555  0.1389 -3.2367
   83SAPS   C33 7831   2.191   4.361  10.259  0.5312  0.1281 -0.0536
   83SAPS   H3X 7832   2.102   4.309  10.217  0.6188 -0.5074  0.5233
   83SAPS   H3Y 7833   2.273   4.293  10.288  0.7439  1.2165  2.1122
   83SAPS   C34 7834   2.236   4.469  10.159  1.2344 -0.0406  0.2183
   83SAPS   H4X 7835   2.318   4.534  10.196  0.1760  0.8366  1.1250
   83SAPS   H4Y 7836   2.164   4.554  10.156  1.8383  0.5513  1.6011
   83SAPS   C35 7837   2.278   4.419  10.016 -1.0251  0.1434 -0.7120
   83SAPS   H5X 7838   2.187   4.386   9.962 -2.8744  2.2328  0.9453
   83SAPS   H5Y 7839   2.346   4.331  10.013 -2.2457 -0.7934 -2.1003
   83SAPS   C36 7840   2.348   4.527   9.935  0.1644 -0.1719 -0.1598
   83SAPS   H6X 7841   2.456   4.535   9.959  0.2731 -1.3082 -0.2152
   83SAPS   H6Y 7842   2.308   4.628   9.958 -2.8332 -1.7562  2.2914
   83SAPS   C37 7843   2.324   4.512   9.785 -0.2895 -1.1775 -0.3424
   83SAPS   H7X 7844   2.346   4.607   9.731  0.1971  1.2729  3.8029
   83SAPS   H7Y 7845   2.215   4.493   9.776 -0.3774 -2.0631  2.0707
   83SAPS   C38 7846   2.403   4.399   9.716  0.2753  0.2851 -0.3403
   83SAPS   H8X 7847   2.354   4.308   9.756  0.4944 -0.0056 -0.7305
   83SAPS   H8Y 7848   2.508   4.385   9.750  0.1841  0.2935 -0.0496
   83SAPS   C39 7849   2.404   4.393   9.559 -0.2405 -0.2979  0.0606
   83SAPS   H9X 7850   2.309   4.415   9.506  0.2140  2.8550  0.3849
   83SAPS   H9Y 7851   2.429   4.289   9.527 -0.9738 -0.7689  0.9535
   83SAPS  C310 7852   2.516   4.477   9.486 -0.8919 -0.5914 -0.0305
   83SAPS  H10X 7853   2.604   4.416   9.516  0.3053  0.3354 -1.5238
   83SAPS  H10Y 7854   2.529   4.577   9.533 -0.3323 -0.1846 -1.0313
   83SAPS  C311 7855   2.508   4.473   9.328 -1.0653  0.9725  0.1668
   83SAPS  H11X 7856   2.464   4.375   9.302 -1.9222  1.9495 -2.2605
   83SAPS  H11Y 7857   2.616   4.464   9.302 -1.2566 -1.0539 -0.1184
   83SAPS  C312 7858   2.413   4.576   9.267 -0.0428 -0.2267 -0.2904
   83SAPS  H12X 7859   2.456   4.678   9.279 -1.1400  0.1921  0.3032
   83SAPS  H12Y 7860   2.308   4.561   9.299 -0.4914  1.7258 -0.6744
   83SAPS  C313 7861   2.407   4.557   9.111 -0.0901 -0.5448 -0.2387
   83SAPS  H13X 7862   2.388   4.453   9.077 -0.2860 -0.5948  0.0227
   83SAPS  H13Y 7863   2.508   4.583   9.073 -0.4086  0.5024 -0.3938
   83SAPS  C314 7864   2.302   4.649   9.052  0.1066  0.5592  0.6764
   83SAPS  H14X 7865   2.335   4.755   9.056  0.4570  0.5681 -1.1878
   83SAPS  H14Y 7866   2.210   4.635   9.112 -1.4925  0.1392 -1.7241
   83SAPS  C315 7867   2.290   4.609   8.905 -0.3826 -0.1293 -0.0814
   83SAPS  H15X 7868   2.263   4.501   8.903 -1.5468  0.1513 -0.7936
   83SAPS  H15Y 7869   2.389   4.628   8.859 -0.7727  0.6574 -0.6312
   83SAPS  C316 7870   2.181   4.685   8.819 -0.4434  0.0765  0.0279
   83SAPS  H16X 7871   2.213   4.791   8.819  1.1687 -0.3808  1.1099
   83SAPS  H16Y 7872   2.081   4.681   8.868  0.0272 -0.6809  0.9750
   83SAPS  C317 7873   2.156   4.634   8.674  0.1219  0.6314 -0.6574
   83SAPS  H17X 7874   2.104   4.537   8.673  1.7299 -0.2722 -0.4149
   83SAPS  H17Y 7875   2.257   4.628   8.627  0.0834  0.6823 -0.7466
   83SAPS  C318 7876   2.070   4.732   8.589  0.3321  0.0177 -0.3356
   83SAPS  H18X 7877   2.114   4.834   8.589  0.7036 -0.1366  0.1585
   83SAPS  H18Y 7878   1.967   4.740   8.630  0.3886 -1.1214  0.0716
   83SAPS  H18Z 7879   2.049   4.698   8.485  1.4205 -2.0592  0.0680
   84SAPS     N 7880   3.614   2.842  11.118 -0.4990  0.9874  0.1112
   84SAPS   HN1 7881   3.542   2.772  11.092  0.2937 -0.7908  2.3438
   84SAPS   HN2 7882   3.565   2.926  11.155  0.3819  0.8931  1.6180
   84SAPS   HN3 7883   3.674   2.864  11.036 -1.6027 -2.2403 -1.7436
   84SAPS   C12 7884   3.696   2.771  11.214 -0.2720  0.2781  0.4459
   84SAPS  H12A 7885   3.780   2.831  11.246 -0.1112 -0.0404  0.6269
   84SAPS   C13 7886   3.608   2.731  11.346  0.3686 -0.0647  1.1376
   84SAPS  O13A 7887   3.487   2.768  11.357  0.1610 -0.5788 -0.7842
   84SAPS  O13B 7888   3.675   2.676  11.439 -0.1603 -0.7301 -0.0798
   84SAPS   C11 7889   3.755   2.647  11.137 -0.7254  0.1039 -0.3398
   84SAPS  H11A 7890   3.685   2.578  11.086  3.3040 -3.6233 -1.5041
   84SAPS  H11B 7891   3.806   2.575  11.204  0.0501 -1.2542 -2.2971
   84SAPS     P 7892   3.842   2.702  10.894  0.2021  0.5048  0.3165
   84SAPS   O13 7893   3.704   2.751  10.870  0.3110  0.1366  0.3778
   84SAPS   O14 7894   3.955   2.775  10.832 -0.3314 -0.2680 -0.3781
   84SAPS   O12 7895   3.864   2.690  11.053 -0.0256  0.2084  0.1977
   84SAPS   O11 7896   3.845   2.549  10.845 -0.6420  0.2380  0.0323
   84SAPS    C1 7897   3.968   2.477  10.851 -0.5348  0.3671  0.2705
   84SAPS    HA 7898   4.030   2.497  10.941 -0.7167  0.1612  0.4414
   84SAPS    HB 7899   3.950   2.368  10.853  1.3581  0.0310  0.3490
   84SAPS    C2 7900   4.052   2.504  10.721 -0.0685 -0.4808 -0.4162
   84SAPS    HS 7901   4.111   2.588  10.763 -1.8782 -0.4827  2.3913
   84SAPS   O21 7902   3.964   2.540  10.612 -0.8830 -0.9185 -0.4933
   84SAPS   C21 7903   4.010   2.642  10.530  0.3312  0.2867 -0.3185
   84SAPS   O22 7904   4.117   2.695  10.537  0.4210 -0.2705  0.0333
   84SAPS   C22 7905   3.896   2.676  10.430 -0.1632  0.3345  0.2438
   84SAPS   H2R 7906   3.849   2.578  10.408 -1.0586  1.3142 -2.5499
   84SAPS   H2S 7907   3.833   2.747  10.489 -0.3436  1.1394 -0.8989
   84SAPS    C3 7908   4.145   2.388  10.668 -0.6054  0.0368 -0.9653
   84SAPS    HX 7909   4.215   2.352  10.747 -0.6271  1.2353 -0.3888
   84SAPS    HY 7910   4.206   2.445  10.595  0.6334  1.9032  1.3857
   84SAPS   O31 7911   4.068   2.281  10.620  0.0790  0.0223  0.6052
   84SAPS   C31 7912   4.066   2.260  10.491  0.8893 -0.5136 -0.2907
   84SAPS   O32 7913   4.139   2.319  10.412  0.1760  0.0068  0.1368
   84SAPS   C32 7914   3.955   2.152  10.453  0.3316  0.5913 -0.4041
   84SAPS   H2X 7915   3.868   2.167  10.520 -1.8624 -0.9248 -2.7594
   84SAPS   H2Y 7916   4.001   2.058  10.492 -1.5323 -0.4672 -0.6531
   84SAPS   C23 7917   3.941   2.754  10.313  0.2652  0.2434  0.6026
   84SAPS   H3R 7918   4.038   2.723  10.269 -0.4832  0.0930 -1.0006
   84SAPS   H3S 7919   3.954   2.861  10.341 -0.8155  0.0859  1.7898
   84SAPS   C24 7920   3.845   2.758  10.193  0.3615 -0.9389  0.4513
   84SAPS   H4R 7921   3.823   2.649  10.185  0.9258 -1.0323  0.1651
   84SAPS   H4S 7922   3.898   2.784  10.099 -0.6421 -1.7048 -0.3502
   84SAPS   C25 7923   3.718   2.835  10.218  0.6035  0.6644 -0.1831
   84SAPS   H5R 7924   3.696   2.853  10.324  1.3219  0.0772  0.0727
   84SAPS   C26 7925   3.634   2.871  10.122 -0.1719  0.2395 -0.0540
   84SAPS   H6R 7926   3.534   2.896  10.159 -0.1899  0.1178 -0.0206
   84SAPS   C27 7927   3.636   2.848   9.975 -1.0400  0.2538 -0.1410
   84SAPS   H7R 7928   3.545   2.792   9.945 -1.9670  1.0049  1.1792
   84SAPS   H7S 7929   3.719   2.776   9.954 -0.6449  1.4014 -3.0682
   84SAPS   C28 7930   3.668   2.967   9.892 -0.4294  0.0957  0.0097
   84SAPS   H8R 7931   3.760   3.019   9.925  0.0011 -2.2780  3.0682
   84SAPS   C29 7932   3.602   3.015   9.786  0.3059 -0.0288  0.2625
   84SAPS   H9R 7933   3.646   3.098   9.729 -0.3156  0.1842  0.0858
   84SAPS  C210 7934   3.483   2.957   9.727  0.2758  0.1057  1.3307
   84SAPS  H10R 7935   3.391   2.960   9.789 -0.6136  0.6049  0.0467
   84SAPS  H10S 7936   3.497   2.850   9.700  0.5145  0.1684  1.2103
   84SAPS  C211 7937   3.450   3.043   9.604  0.1021 -0.0416 -0.4152
   84SAPS  H11R 7938   3.406   3.142   9.622  0.1601 -0.2871  1.3129
   84SAPS  C212 7939   3.458   3.003   9.477  0.0083 -0.1510  0.2963
   84SAPS  H12R 7940   3.419   3.074   9.402 -0.8483  0.3481  1.2058
   84SAPS  C213 7941   3.511   2.871   9.427  0.0711 -0.2720 -0.0931
   84SAPS  H13R 7942   3.448   2.821   9.351  1.8847 -2.3362 -0.3335
   84SAPS  H13S 7943   3.509   2.793   9.507 -2.2811 -0.7084 -0.4795
   84SAPS  C214 7944   3.650   2.876   9.381 -0.7985 -0.6002  0.1572
   84SAPS  H14R 7945   3.716   2.918   9.459 -0.6997  1.3289 -0.9018
   84SAPS  C215 7946   3.696   2.879   9.256  0.1790 -0.3141 -0.5171
   84SAPS  H15R 7947   3.801   2.892   9.226  0.4215 -0.2153  0.3424
   84SAPS  C216 7948   3.606   2.860   9.133 -0.2054  0.3736  0.1872
   84SAPS  H16R 7949   3.641   2.938   9.062 -1.2796  2.3975  1.7650
   84SAPS  H16S 7950   3.496   2.873   9.141  0.0494  1.8963  1.6339
   84SAPS  C217 7951   3.622   2.722   9.062 -0.0279 -0.2456  0.0156
   84SAPS  H17R 7952   3.596   2.626   9.112 -0.3082 -0.9417 -1.3998
   84SAPS  H17S 7953   3.732   2.712   9.050 -0.1218 -2.2231  0.3685
   84SAPS  C218 7954   3.551   2.719   8.930 -0.7010 -0.5439 -0.1124
   84SAPS  H18R 7955   3.565   2.815   8.877 -1.5567 -0.5045 -0.2948
   84SAPS  H18S 7956   3.444   2.694   8.948 -1.3050  1.8324 -0.1057
   84SAPS  C219 7957   3.605   2.600   8.847  0.1602 -1.2922 -0.1395
   84SAPS  H19R 7958   3.611   2.501   8.897  2.7199 -1.4185 -0.5594
   84SAPS  H19S 7959   3.712   2.619   8.828  0.1572 -0.3330  0.6976
   84SAPS  C220 7960   3.519   2.575   8.712 -0.4081 -0.1876  0.1478
   84SAPS  H20R 7961   3.550   2.492   8.645  0.2478  1.2202 -1.3608
   84SAPS  H20S 7962   3.515   2.671   8.657 -2.6577  0.6388  1.5876
   84SAPS  H20T 7963   3.417   2.550   8.749 -0.2564 -2.7127 -0.9562
   84SAPS   C33 7964   3.911   2.154  10.305 -0.2588 -0.7067  0.0277
   84SAPS   H3X 7965   3.875   2.053  10.276  1.8771 -0.8505 -2.5302
   84SAPS   H3Y 7966   3.998   2.176  10.239  0.8959  0.9610  1.9726
   84SAPS   C34 7967   3.802   2.265  10.274  0.4041  0.0628  0.4541
   84SAPS   H4X 7968   3.819   2.366  10.317  1.8015  0.8823 -1.8365
   84SAPS   H4Y 7969   3.705   2.223  10.308  0.6330  0.6928  1.9295
   84SAPS   C35 7970   3.810   2.291  10.124 -0.3282  0.0143 -0.1382
   84SAPS   H5X 7971   3.812   2.199  10.061 -0.0072 -0.7112  0.9155
   84SAPS   H5Y 7972   3.905   2.336  10.088 -1.2814  0.2808 -2.4990
   84SAPS   C36 7973   3.694   2.383  10.082 -0.5201  0.3600  0.4553
   84SAPS   H6X 7974   3.687   2.480  10.134  2.4039 -0.2375  2.2207
   84SAPS   H6Y 7975   3.600   2.327  10.099 -2.3848  1.3726 -4.8068
   84SAPS   C37 7976   3.699   2.429   9.933 -0.4676  0.8319  0.3267
   84SAPS   H7X 7977   3.792   2.489   9.925  0.1453 -0.3097 -2.0926
   84SAPS   H7Y 7978   3.613   2.496   9.910  1.1165  1.6823 -4.2733
   84SAPS   C38 7979   3.689   2.317   9.823  0.7207 -0.1294 -0.2279
   84SAPS   H8X 7980   3.600   2.254   9.842  0.5432 -0.2237 -1.2997
   84SAPS   H8Y 7981   3.778   2.250   9.822  0.9519  0.1721 -0.2343
   84SAPS   C39 7982   3.665   2.377   9.679 -0.5062  0.1230 -1.0266
   84SAPS   H9X 7983   3.728   2.467   9.663  1.2024 -0.9491 -0.5326
   84SAPS   H9Y 7984   3.557   2.404   9.688 -0.8736 -1.7117  0.9164
   84SAPS  C310 7985   3.668   2.289   9.554  0.1452  0.5986 -0.5761
   84SAPS  H10X 7986   3.607   2.203   9.590  0.8274  2.0344  4.9870
   84SAPS  H10Y 7987   3.771   2.251   9.540 -0.0290 -0.1917  0.1631
   84SAPS  C311 7988   3.598   2.360   9.430 -0.2089 -0.8449  0.6075
   84SAPS  H11X 7989   3.675   2.431   9.394 -0.7281 -0.4785  0.2017
   84SAPS  H11Y 7990   3.509   2.417   9.464  0.1308  0.6299 -0.8522
   84SAPS  C312 7991   3.553   2.251   9.328  0.5686 -0.2965 -0.0176
   84SAPS  H12X 7992   3.472   2.200   9.384  1.0359 -1.4371 -0.3421
   84SAPS  H12Y 7993   3.630   2.172   9.313  1.9894  1.0454 -0.0077
   84SAPS  C313 7994   3.492   2.313   9.203 -0.0170 -0.0744  0.5120
   84SAPS  H13X 7995   3.571   2.360   9.141 -0.7430 -2.4650 -2.4999
   84SAPS  H13Y 7996   3.429   2.395   9.244 -0.1719  0.1969 -0.2451
   84SAPS  C314 7997   3.408   2.220   9.124  0.4298 -0.2506  0.1238
   84SAPS  H14X 7998   3.301   2.214   9.157  0.0928 -0.9382 -1.0624
   84SAPS  H14Y 7999   3.458   2.122   9.133  2.1465  0.7384  2.1884
   84SAPS  C315 8000   3.428   2.253   8.969  0.2414 -0.1760 -0.3837
   84SAPS  H15X 8001   3.529   2.215   8.944  1.8531  2.0425  2.2055
   84SAPS  H15Y 8002   3.419   2.362   8.949  1.1551 -0.3209 -1.6493
   84SAPS  C316 8003   3.327   2.163   8.893  0.5216 -0.0154 -0.4903
   84SAPS  H16X 8004   3.223   2.179   8.928 -0.1665  0.0153 -2.3781
   84SAPS  H16Y 8005   3.353   2.061   8.927 -1.1344 -0.3014  0.0518
   84SAPS  C317 8006   3.325   2.159   8.740 -0.3710  0.7032 -0.7121
   84SAPS  H17X 8007   3.425   2.127   8.705  1.1257  1.6366  2.3702
   84SAPS  H17Y 8008   3.301   2.258   8.697  1.4247  0.6982 -1.8353
   84SAPS  C318 8009   3.212   2.061   8.696 -0.2163  0.3788 -0.3044
   84SAPS  H18X 8010   3.210   2.036   8.588  0.1190  1.6332 -0.6168
   84SAPS  H18Y 8011   3.112   2.100   8.724 -0.1392 -0.5565  1.4626
   84SAPS  H18Z 8012   3.230   1.970   8.757  0.2644  0.1390 -0.7952
   85SAPS     N 8013   0.031   4.462  10.644 -0.6486 -0.3239 -0.2362
   85SAPS   HN1 8014  -0.012   4.545  10.599  0.3610 -0.7607 -2.1146
   85SAPS   HN2 8015   0.134   4.468  10.632 -0.6667  0.3424 -0.0782
   85SAPS   HN3 8016   0.007   4.373  10.596 -1.1938  0.0444 -0.6656
   85SAPS   C12 8017   0.000   4.467  10.788 -0.7189 -0.5549 -0.4843
   85SAPS  H12A 8018  -0.107   4.455  10.791 -0.6275 -2.0284 -1.6946
   85SAPS   C13 8019   0.065   4.356  10.868 -0.7330  0.2068  0.1678
   85SAPS  O13A 8020   0.134   4.267  10.808 -0.5679 -0.1231 -0.3310
   85SAPS  O13B 8021   0.072   4.359  10.991 -0.0772 -0.1062  0.3092
   85SAPS   C11 8022   0.041   4.608  10.835 -0.1116 -0.3806  0.2234
   85SAPS  H11A 8023   0.151   4.611  10.851  0.3668 -0.5873 -2.4966
   85SAPS  H11B 8024  -0.006   4.627  10.934  0.0637 -0.2252  0.2767
   85SAPS     P 8025   0.016   4.856  10.787  0.1926  0.4150 -0.0219
   85SAPS   O13 8026  -0.075   4.881  10.904 -0.2517  0.4195 -0.4752
   85SAPS   O14 8027   0.153   4.908  10.789 -0.6576  0.9085  0.2171
   85SAPS   O12 8028   0.006   4.709  10.745  0.4527  0.4541 -0.5581
   85SAPS   O11 8029  -0.060   4.907  10.652 -0.3385 -0.1046  0.0063
   85SAPS    C1 8030  -0.028   5.043  10.603  0.3357  0.1343 -1.2317
   85SAPS    HA 8031  -0.127   5.092  10.596 -0.2961 -0.8958  0.0340
   85SAPS    HB 8032   0.043   5.091  10.673  0.6527 -2.0191  0.0070
   85SAPS    C2 8033   0.040   5.040  10.468 -0.0282 -0.5238 -0.0888
   85SAPS    HS 8034   0.042   5.150  10.450 -3.1049 -0.1028  1.4339
   85SAPS   O21 8035  -0.039   4.972  10.371 -0.7091  0.0851 -0.0725
   85SAPS   C21 8036  -0.148   5.014  10.331 -0.7813  0.4600  0.7157
   85SAPS   O22 8037  -0.207   5.120  10.343  0.5238 -0.1787 -0.5811
   85SAPS   C22 8038  -0.212   4.898  10.264 -0.5052  0.0365 -0.1280
   85SAPS   H2R 8039  -0.242   4.822  10.340  0.1288 -0.2222 -0.1345
   85SAPS   H2S 8040  -0.303   4.935  10.212  0.3827  0.3623 -1.4788
   85SAPS    C3 8041   0.180   4.983  10.471  0.0517  0.1868 -0.1203
   85SAPS    HX 8042   0.187   4.886  10.524 -0.7927 -1.6095 -3.0408
   85SAPS    HY 8043   0.236   5.063  10.525  2.0882 -0.6472 -0.8791
   85SAPS   O31 8044   0.240   4.976  10.341  0.1155  0.2505 -0.5927
   85SAPS   C31 8045   0.234   4.854  10.281  0.3527 -0.1133  0.2480
   85SAPS   O32 8046   0.210   4.745  10.331 -0.4003 -0.9995  0.5008
   85SAPS   C32 8047   0.253   4.874  10.134 -0.3470 -0.2418 -0.1106
   85SAPS   H2X 8048   0.353   4.916  10.111 -0.0134 -0.0407  1.5930
   85SAPS   H2Y 8049   0.179   4.951  10.102 -0.1567 -0.7843 -1.9871
   85SAPS   C23 8050  -0.118   4.824  10.155 -0.1099  0.1135 -0.3550
   85SAPS   H3R 8051  -0.024   4.794  10.205  0.8642  0.4360 -1.9106
   85SAPS   H3S 8052  -0.086   4.895  10.075  2.6699 -0.3566  0.2511
   85SAPS   C24 8053  -0.194   4.690  10.111  0.4511 -0.3276  0.3895
   85SAPS   H4R 8054  -0.206   4.624  10.200  0.5894 -0.6385  0.1794
   85SAPS   H4S 8055  -0.128   4.633  10.043 -0.2770 -0.4480 -0.2228
   85SAPS   C25 8056  -0.330   4.702  10.047  0.4778  0.0113  0.4838
   85SAPS   H5R 8057  -0.417   4.714  10.113  0.2786  0.8475  0.0891
   85SAPS   C26 8058  -0.358   4.715   9.913 -0.1645 -0.6710  0.3671
   85SAPS   H6R 8059  -0.464   4.718   9.882 -0.0035 -0.9403 -0.2220
   85SAPS   C27 8060  -0.259   4.718   9.801  0.0423  0.1819  0.3899
   85SAPS   H7R 8061  -0.166   4.764   9.841 -0.0038  2.1244 -1.5576
   85SAPS   H7S 8062  -0.276   4.794   9.722 -1.0055 -0.2667  0.1683
   85SAPS   C28 8063  -0.232   4.578   9.745 -0.7688 -0.2397 -0.1754
   85SAPS   H8R 8064  -0.201   4.518   9.831  1.4672  3.4620  1.8592
   85SAPS   C29 8065  -0.244   4.534   9.618 -1.2137  0.2563 -0.1619
   85SAPS   H9R 8066  -0.214   4.433   9.588  2.3217  1.2484 -0.3985
   85SAPS  C210 8067  -0.277   4.618   9.501  0.6189  0.1255  0.4977
   85SAPS  H10R 8068  -0.383   4.648   9.517 -0.1472 -1.1254 -1.8343
   85SAPS  H10S 8069  -0.302   4.563   9.408  0.0341  0.2577  0.5685
   85SAPS  C211 8070  -0.173   4.718   9.453 -0.0583 -0.0404  0.0827
   85SAPS  H11R 8071  -0.103   4.744   9.533  0.6331 -1.0429 -0.1775
   85SAPS  C212 8072  -0.157   4.744   9.322  0.2441 -0.1804  0.2178
   85SAPS  H12R 8073  -0.068   4.802   9.296 -0.4180  1.0407  0.5794
   85SAPS  C213 8074  -0.245   4.718   9.206  0.2804 -0.6646  0.0560
   85SAPS  H13R 8075  -0.248   4.811   9.146 -2.8120 -0.5342  0.2519
   85SAPS  H13S 8076  -0.348   4.705   9.245  0.6940 -2.9303  0.5121
   85SAPS  C214 8077  -0.215   4.593   9.126  0.1874 -0.1820 -0.0916
   85SAPS  H14R 8078  -0.152   4.526   9.187 -2.8809  0.1950  3.9597
   85SAPS  C215 8079  -0.246   4.560   8.994 -0.8033 -0.9541 -0.1727
   85SAPS  H15R 8080  -0.225   4.456   8.962  0.0744 -1.4085  1.7601
   85SAPS  C216 8081  -0.316   4.656   8.896 -0.3926 -0.0927  0.4697
   85SAPS  H16R 8082  -0.285   4.760   8.920  2.7671 -0.1289 -2.7339
   85SAPS  H16S 8083  -0.425   4.644   8.918 -0.1697 -1.3933  0.9642
   85SAPS  C217 8084  -0.274   4.631   8.755  0.1574 -0.1965  0.4812
   85SAPS  H17R 8085  -0.315   4.708   8.685 -1.0338 -0.4285  0.8920
   85SAPS  H17S 8086  -0.312   4.530   8.728 -2.7947  0.6578  1.0521
   85SAPS  C218 8087  -0.121   4.631   8.733 -1.2413 -0.3209 -0.0791
   85SAPS  H18R 8088  -0.072   4.547   8.788 -0.0385  0.2623 -0.2251
   85SAPS  H18S 8089  -0.078   4.719   8.787 -0.2105 -0.3852 -0.7709
   85SAPS  C219 8090  -0.087   4.625   8.584  0.0121  0.3083  0.0061
   85SAPS  H19R 8091   0.022   4.608   8.595 -0.1497 -0.1697  0.9869
   85SAPS  H19S 8092  -0.105   4.720   8.530  1.1747  1.2743  1.2354
   85SAPS  C220 8093  -0.143   4.508   8.501 -0.4138  0.2705  0.9184
   85SAPS  H20R 8094  -0.125   4.413   8.554 -0.7739 -1.1959 -1.4272
   85SAPS  H20S 8095  -0.085   4.497   8.407  0.6556  1.5505  1.3911
   85SAPS  H20T 8096  -0.250   4.514   8.472 -0.1637 -0.9440 -0.3825
   85SAPS   C33 8097   0.241   4.755  10.034  0.0034 -0.7584  0.4035
   85SAPS   H3X 8098   0.160   4.686  10.065 -1.5231  0.3891 -0.8492
   85SAPS   H3Y 8099   0.330   4.689  10.022  1.0304  0.7703 -0.9433
   85SAPS   C34 8100   0.214   4.815   9.894 -0.6591  0.6413  0.2835
   85SAPS   H4X 8101   0.303   4.878   9.869  1.0711 -1.7212  0.1543
   85SAPS   H4Y 8102   0.123   4.879   9.897 -0.4518  0.9062  1.3572
   85SAPS   C35 8103   0.220   4.712   9.776 -0.0783  0.3703  0.0550
   85SAPS   H5X 8104   0.151   4.627   9.792 -0.0651  0.4030  0.2787
   85SAPS   H5Y 8105   0.327   4.681   9.775  1.0178  3.4781  2.4656
   85SAPS   C36 8106   0.183   4.778   9.641  0.5562  0.2995 -0.7009
   85SAPS   H6X 8107   0.152   4.883   9.654  0.5688  0.3838 -1.3344
   85SAPS   H6Y 8108   0.093   4.722   9.606  0.7540 -0.1577 -0.4930
   85SAPS   C37 8109   0.294   4.750   9.538 -0.3637  0.2882 -0.3870
   85SAPS   H7X 8110   0.283   4.647   9.499 -1.3186 -0.4499  1.6470
   85SAPS   H7Y 8111   0.395   4.758   9.582 -0.4263  0.7332 -0.3141
   85SAPS   C38 8112   0.293   4.850   9.422  0.1227 -0.6939 -0.3501
   85SAPS   H8X 8113   0.318   4.948   9.467  1.7609 -1.1115 -0.2656
   85SAPS   H8Y 8114   0.185   4.859   9.398  0.3873  0.6683 -1.1401
   85SAPS   C39 8115   0.383   4.808   9.308  0.9124 -0.5033  0.9000
   85SAPS   H9X 8116   0.337   4.717   9.265  0.1772 -0.1356  0.8938
   85SAPS   H9Y 8117   0.484   4.779   9.344  0.7494 -0.2163  1.6159
   85SAPS  C310 8118   0.405   4.918   9.201 -0.0089 -0.1563 -0.3081
   85SAPS  H10X 8119   0.485   4.987   9.236 -0.0519 -0.9478  1.4433
   85SAPS  H10Y 8120   0.313   4.975   9.176  0.3788  0.1810 -0.9923
   85SAPS  C311 8121   0.460   4.865   9.064 -0.2132  0.7183  0.5226
   85SAPS  H11X 8122   0.551   4.805   9.087  1.2314  2.7710  0.4641
   85SAPS  H11Y 8123   0.489   4.953   9.004  0.9122  0.7826  1.1259
   85SAPS  C312 8124   0.363   4.786   8.978 -0.5162  0.1764  0.5660
   85SAPS  H12X 8125   0.279   4.858   8.964  1.2261  2.2888  0.4904
   85SAPS  H12Y 8126   0.321   4.693   9.021 -0.1046 -0.9335 -1.3100
   85SAPS  C313 8127   0.419   4.732   8.843 -0.4421 -0.2967 -0.3657
   85SAPS  H13X 8128   0.471   4.818   8.795 -0.2279  0.5066  1.2403
   85SAPS  H13Y 8129   0.330   4.696   8.787 -0.5757 -0.2213 -0.2040
   85SAPS  C314 8130   0.508   4.607   8.858  0.1242 -0.5393  0.9986
   85SAPS  H14X 8131   0.442   4.539   8.915  0.3852 -1.0376  0.7115
   85SAPS  H14Y 8132   0.602   4.632   8.912  1.1993 -1.8646 -0.1910
   85SAPS  C315 8133   0.541   4.534   8.722 -0.5164 -0.8784 -0.8086
   85SAPS  H15X 8134   0.440   4.546   8.677 -0.9997  4.2167  0.9837
   85SAPS  H15Y 8135   0.561   4.431   8.759 -1.1333  0.2025  2.9476
   85SAPS  C316 8136   0.665   4.599   8.655 -0.2202 -0.6412  0.2121
   85SAPS  H16X 8137   0.743   4.619   8.732  0.2433  1.1395 -0.6714
   85SAPS  H16Y 8138   0.647   4.706   8.629 -0.1297 -0.9651 -1.2558
   85SAPS  C317 8139   0.693   4.511   8.531 -0.1234 -0.0180 -0.9159
   85SAPS  H17X 8140   0.595   4.489   8.483 -0.0049  2.0844 -2.2749
   85SAPS  H17Y 8141   0.745   4.418   8.562  0.4082 -0.0433 -1.8393
   85SAPS  C318 8142   0.790   4.568   8.430 -0.2995 -0.4557  1.1077
   85SAPS  H18X 8143   0.752   4.659   8.379 -1.7470 -1.5159  0.2136
   85SAPS  H18Y 8144   0.811   4.498   8.346  0.1458  0.6467  0.2806
   85SAPS  H18Z 8145   0.881   4.609   8.479 -0.0531  2.3733 -1.4736
   86SAPS     N 8146   2.223   5.074  10.961  0.0444 -0.3771 -0.2416
   86SAPS   HN1 8147   2.178   5.004  11.023  1.3670 -1.5652 -0.5382
   86SAPS   HN2 8148   2.151   5.142  10.932 -1.0030 -0.5351  1.8115
   86SAPS   HN3 8149   2.258   5.027  10.874  0.1022 -0.4256 -0.1927
   86SAPS   C12 8150   2.338   5.153  11.025  0.1463  0.0244  0.8026
   86SAPS  H12A 8151   2.364   5.234  10.958  0.8834  0.3986  1.5152
   86SAPS   C13 8152   2.312   5.217  11.162  0.1501  0.4394 -0.0233
   86SAPS  O13A 8153   2.201   5.203  11.215  1.1052 -0.0195  0.1858
   86SAPS  O13B 8154   2.404   5.274  11.224  0.7993  0.1526 -0.0182
   86SAPS   C11 8155   2.462   5.062  11.025  0.6198  0.3951 -0.2862
   86SAPS  H11A 8156   2.452   4.971  11.088  1.8708  0.7757  0.5176
   86SAPS  H11B 8157   2.554   5.106  11.070  2.7055 -1.1167 -2.7230
   86SAPS     P 8158   2.624   5.038  10.817  0.2912  0.1061 -0.2659
   86SAPS   O13 8159   2.600   5.137  10.707 -0.4810  0.4354 -0.2251
   86SAPS   O14 8160   2.733   5.048  10.918  0.1095  0.1556  0.0486
   86SAPS   O12 8161   2.492   5.016  10.892  0.2397 -0.1269 -0.0135
   86SAPS   O11 8162   2.651   4.894  10.750  0.2491  0.2319  0.1568
   86SAPS    C1 8163   2.546   4.827  10.675  0.1510  0.0804 -0.3768
   86SAPS    HA 8164   2.537   4.721  10.706 -1.3290  0.4670  0.5877
   86SAPS    HB 8165   2.442   4.861  10.692  0.2703 -0.6808  2.3128
   86SAPS    C2 8166   2.580   4.823  10.527 -0.4426 -0.9546  0.6509
   86SAPS    HS 8167   2.669   4.759  10.509  1.3597  1.4999  0.3659
   86SAPS   O21 8168   2.616   4.958  10.474  0.3247  0.1883 -0.3782
   86SAPS   C21 8169   2.743   4.993  10.452  0.1629  0.2894 -0.4255
   86SAPS   O22 8170   2.833   4.912  10.450 -0.5646 -0.4195 -0.2751
   86SAPS   C22 8171   2.759   5.146  10.418 -0.4613 -0.4797 -0.2742
   86SAPS   H2R 8172   2.733   5.201  10.511  1.1816  2.6006 -1.4852
   86SAPS   H2S 8173   2.865   5.168  10.391 -0.8813 -0.0271 -1.6012
   86SAPS    C3 8174   2.463   4.767  10.440  0.4845 -0.2283  0.0995
   86SAPS    HX 8175   2.370   4.817  10.474  0.7877 -0.1712  0.8620
   86SAPS    HY 8176   2.453   4.659  10.466  1.8706 -0.4160 -0.0394
   86SAPS   O31 8177   2.496   4.770  10.294  0.4605  0.2008 -0.1582
   86SAPS   C31 8178   2.441   4.872  10.227 -0.1713  0.0712 -0.6556
   86SAPS   O32 8179   2.371   4.958  10.279  0.4134 -0.4184  0.2424
   86SAPS   C32 8180   2.482   4.864  10.079 -0.3120  0.8075 -0.2028
   86SAPS   H2X 8181   2.400   4.826  10.014 -0.3074 -2.3422  1.4493
   86SAPS   H2Y 8182   2.561   4.787  10.074  0.0345  1.1919 -0.6558
   86SAPS   C23 8183   2.661   5.201  10.310 -0.1589  0.1644 -0.4512
   86SAPS   H3R 8184   2.558   5.201  10.352 -0.1202  0.2171 -0.3565
   86SAPS   H3S 8185   2.637   5.129  10.227 -1.2030  0.0369 -0.0570
   86SAPS   C24 8186   2.723   5.327  10.239  0.1897 -0.2201 -0.4144
   86SAPS   H4R 8187   2.816   5.289  10.192 -0.0668 -0.7275 -0.5239
   86SAPS   H4S 8188   2.756   5.404  10.311 -0.3232 -1.1685  0.8828
   86SAPS   C25 8189   2.624   5.379  10.137 -0.5902 -0.3319  0.7509
   86SAPS   H5R 8190   2.519   5.379  10.168 -0.0974 -1.1270  2.5325
   86SAPS   C26 8191   2.659   5.418  10.010  0.1313 -0.0817  0.1839
   86SAPS   H6R 8192   2.572   5.459   9.956  0.5792  0.0092 -0.4755
   86SAPS   C27 8193   2.794   5.423   9.947  0.6853 -0.2306 -0.3655
   86SAPS   H7R 8194   2.883   5.439  10.012  1.3392 -1.0709 -1.0400
   86SAPS   H7S 8195   2.796   5.519   9.891  1.4029 -0.5736 -0.9505
   86SAPS   C28 8196   2.819   5.302   9.854  0.4738  0.2441  0.5972
   86SAPS   H8R 8197   2.807   5.202   9.899  1.8494  1.1669  3.1677
   86SAPS   C29 8198   2.838   5.304   9.717 -0.3454 -1.0072  0.0070
   86SAPS   H9R 8199   2.858   5.212   9.661 -0.4189 -0.4472 -0.9661
   86SAPS  C210 8200   2.851   5.434   9.633  0.0362  0.1684 -0.5879
   86SAPS  H10R 8201   2.902   5.398   9.541  1.5243 -0.1281  0.3292
   86SAPS  H10S 8202   2.907   5.517   9.681  0.5171  0.3965 -1.5197
   86SAPS  C211 8203   2.713   5.489   9.599 -0.5031 -0.3455 -0.3457
   86SAPS  H11R 8204   2.670   5.545   9.684 -0.1498 -1.7167  0.7785
   86SAPS  C212 8205   2.641   5.453   9.496 -0.0396 -0.5424  0.2973
   86SAPS  H12R 8206   2.539   5.494   9.494  0.5677  1.1013 -1.9437
   86SAPS  C213 8207   2.663   5.345   9.386  0.5922 -0.7254 -0.0768
   86SAPS  H13R 8208   2.627   5.249   9.427  0.4829 -1.0516 -0.9308
   86SAPS  H13S 8209   2.767   5.346   9.348  0.9734 -0.2836  0.9398
   86SAPS  C214 8210   2.579   5.385   9.259  0.0977  0.1286 -0.5451
   86SAPS  H14R 8211   2.496   5.316   9.238  0.9761 -0.7680 -1.1518
   86SAPS  C215 8212   2.594   5.485   9.172  0.4239 -0.6963 -0.2729
   86SAPS  H15R 8213   2.526   5.480   9.087 -0.0733 -0.0891  0.0847
   86SAPS  C216 8214   2.693   5.595   9.170 -0.2697  0.1096  0.2636
   86SAPS  H16R 8215   2.784   5.578   9.231  0.1231  0.8948 -0.0821
   86SAPS  H16S 8216   2.642   5.684   9.213 -2.5579 -2.1230  2.4906
   86SAPS  C217 8217   2.739   5.614   9.021 -0.0194 -0.2188  0.6742
   86SAPS  H17R 8218   2.784   5.519   8.985 -1.3841 -0.5938 -0.1176
   86SAPS  H17S 8219   2.811   5.699   9.023  0.7704 -0.8278 -0.6778
   86SAPS  C218 8220   2.631   5.666   8.921 -0.2997  0.2547 -0.1901
   86SAPS  H18R 8221   2.578   5.760   8.948 -0.1543  0.7096 -1.4325
   86SAPS  H18S 8222   2.559   5.583   8.909 -0.0952  0.0110  0.2274
   86SAPS  C219 8223   2.695   5.682   8.783 -0.5809  0.4607 -0.4769
   86SAPS  H19R 8224   2.703   5.583   8.734  1.1685  1.1252 -1.5800
   86SAPS  H19S 8225   2.798   5.722   8.774  0.5765 -2.2494 -0.4002
   86SAPS  C220 8226   2.608   5.764   8.683 -0.4321 -0.0060 -0.6791
   86SAPS  H20R 8227   2.661   5.772   8.585 -0.4917  0.2702 -0.6904
   86SAPS  H20S 8228   2.581   5.866   8.717 -4.5679 -0.6478 -1.5030
   86SAPS  H20T 8229   2.515   5.707   8.662  0.3537 -1.6627  0.1241
   86SAPS   C33 8230   2.543   4.994  10.028 -0.1842  0.0345  0.0755
   86SAPS   H3X 8231   2.646   4.999  10.070 -0.5455 -0.1149  1.0089
   86SAPS   H3Y 8232   2.481   5.073  10.077 -0.2969 -0.0175  0.0152
   86SAPS   C34 8233   2.541   4.985   9.875  0.3758  0.6778  0.1557
   86SAPS   H4X 8234   2.578   5.084   9.843  2.5252  0.3137  1.3392
   86SAPS   H4Y 8235   2.436   4.985   9.839  1.0219 -2.3175 -2.1299
   86SAPS   C35 8236   2.626   4.873   9.817 -0.1623  0.2585  0.2299
   86SAPS   H5X 8237   2.583   4.773   9.839  2.1370 -0.6896  0.6786
   86SAPS   H5Y 8238   2.729   4.894   9.853 -0.7321 -1.0840  2.8662
   86SAPS   C36 8239   2.617   4.864   9.667 -0.3253  0.4305  0.4185
   86SAPS   H6X 8240   2.514   4.841   9.634 -0.6762  2.0664  0.2813
   86SAPS   H6Y 8241   2.666   4.769   9.636 -0.9868  0.2402 -0.0693
   86SAPS   C37 8242   2.684   4.969   9.595  0.1030 -0.1308 -0.7037
   86SAPS   H7X 8243   2.790   4.974   9.628  0.1992 -0.9756 -0.8636
   86SAPS   H7Y 8244   2.631   5.064   9.618  0.6760 -0.1723  0.9434
   86SAPS   C38 8245   2.681   4.961   9.435 -0.8766  0.1083 -1.2494
   86SAPS   H8X 8246   2.743   4.875   9.402  1.1922  0.8825  0.3749
   86SAPS   H8Y 8247   2.737   5.052   9.405  0.0501 -0.7333 -2.1505
   86SAPS   C39 8248   2.544   4.971   9.375 -0.0007 -0.1227  0.2037
   86SAPS   H9X 8249   2.475   5.036   9.432  1.3496 -0.0648  1.8359
   86SAPS   H9Y 8250   2.507   4.866   9.378 -0.8874  0.1993  1.2148
   86SAPS  C310 8251   2.540   5.013   9.224  0.4731 -0.1295 -0.4598
   86SAPS  H10X 8252   2.589   4.937   9.159  0.7318  0.5202 -1.0406
   86SAPS  H10Y 8253   2.599   5.107   9.217  0.8376 -0.3699 -0.6933
   86SAPS  C311 8254   2.398   5.023   9.160 -0.2982 -0.1282  0.0581
   86SAPS  H11X 8255   2.338   5.094   9.221  0.1054 -0.3698  0.7531
   86SAPS  H11Y 8256   2.338   4.930   9.175  2.1944 -2.0591 -1.2155
   86SAPS  C312 8257   2.396   5.061   9.007  0.2307  0.7808  0.2410
   86SAPS  H12X 8258   2.458   4.990   8.948 -2.3556 -2.0799  0.7218
   86SAPS  H12Y 8259   2.437   5.164   9.018  1.1904  0.1614  4.5758
   86SAPS  C313 8260   2.260   5.076   8.953  0.1408 -0.2749 -0.1874
   86SAPS  H13X 8261   2.191   5.107   9.034 -0.6343 -2.4599  0.0597
   86SAPS  H13Y 8262   2.218   4.976   8.928 -2.4256  1.1102 -1.9002
   86SAPS  C314 8263   2.249   5.159   8.819 -0.2772 -0.6239  0.5732
   86SAPS  H14X 8264   2.324   5.132   8.741 -0.2653  1.0237 -0.0128
   86SAPS  H14Y 8265   2.272   5.265   8.843 -0.0563 -0.6962  0.6894
   86SAPS  C315 8266   2.110   5.141   8.763  0.1390  0.2275  0.6971
   86SAPS  H15X 8267   2.033   5.154   8.841 -1.9861 -0.9036 -1.0963
   86SAPS  H15Y 8268   2.098   5.044   8.710  2.0758  0.1431  0.3238
   86SAPS  C316 8269   2.075   5.241   8.656 -0.1983 -0.4087  0.1884
   86SAPS  H16X 8270   2.137   5.233   8.564 -0.8621 -0.6730 -0.2407
   86SAPS  H16Y 8271   2.094   5.343   8.696  2.1917  0.0505 -1.8879
   86SAPS  C317 8272   1.934   5.232   8.605  0.7009 -0.6375 -0.1121
   86SAPS  H17X 8273   1.885   5.322   8.563  1.1467 -1.0438 -1.5323
   86SAPS  H17Y 8274   1.889   5.210   8.705  1.3572 -0.9144  0.1325
   86SAPS  C318 8275   1.909   5.124   8.503 -0.0521  0.0787 -0.4965
   86SAPS  H18X 8276   1.817   5.063   8.518  1.4585 -2.2841 -0.3062
   86SAPS  H18Y 8277   1.995   5.054   8.511  1.6706  1.8972 -2.1355
   86SAPS  H18Z 8278   1.912   5.166   8.400  0.8032 -0.3722 -0.6572
   87SAPS     N 8279   1.701   6.562  11.077  0.1971  0.1582  0.4599
   87SAPS   HN1 8280   1.604   6.596  11.087 -0.8144 -1.7138 -1.8225
   87SAPS   HN2 8281   1.750   6.583  11.167  1.0173  0.2148  0.0142
   87SAPS   HN3 8282   1.744   6.620  11.002  0.2738 -1.6677 -0.9858
   87SAPS   C12 8283   1.681   6.420  11.030  0.2288  0.3731 -0.1803
   87SAPS  H12A 8284   1.773   6.365  11.025  0.0532 -0.2403  2.1524
   87SAPS   C13 8285   1.599   6.339  11.128  0.6616  0.4177  0.2564
   87SAPS  O13A 8286   1.542   6.389  11.232  0.2286 -0.5637 -0.3895
   87SAPS  O13B 8287   1.585   6.215  11.102 -0.2637  0.1264 -0.0656
   87SAPS   C11 8288   1.610   6.417  10.890 -0.9147  0.4612 -0.3573
   87SAPS  H11A 8289   1.585   6.310  10.871 -0.5023  0.4317 -0.7534
   87SAPS  H11B 8290   1.692   6.448  10.822  0.4663  0.9116  1.4352
   87SAPS     P 8291   1.371   6.461  10.802  0.0676 -0.2738  0.1702
   87SAPS   O13 8292   1.297   6.373  10.892  0.2411 -0.2447  0.0274
   87SAPS   O14 8293   1.304   6.583  10.752 -0.0343 -0.1527 -0.4422
   87SAPS   O12 8294   1.500   6.508  10.882 -0.3276  0.3134 -0.1679
   87SAPS   O11 8295   1.428   6.382  10.678  0.4529  0.3952 -0.0497
   87SAPS    C1 8296   1.388   6.249  10.645 -0.3908  0.6223  0.2213
   87SAPS    HA 8297   1.362   6.184  10.732 -4.2097  1.8332  0.1948
   87SAPS    HB 8298   1.298   6.259  10.580  0.1289 -0.7166 -0.7473
   87SAPS    C2 8299   1.503   6.187  10.564 -0.0906 -0.4984  0.2160
   87SAPS    HS 8300   1.590   6.191  10.633 -0.2288  1.0625  0.3351
   87SAPS   O21 8301   1.530   6.269  10.455 -0.1785  0.1377 -0.5061
   87SAPS   C21 8302   1.652   6.262  10.402 -0.3504  0.4674  0.2494
   87SAPS   O22 8303   1.746   6.198  10.452 -0.0262  0.2813  0.3281
   87SAPS   C22 8304   1.656   6.337  10.275  0.3439  0.1763 -0.9494
   87SAPS   H2R 8305   1.667   6.445  10.299 -0.2795  0.1532 -0.5253
   87SAPS   H2S 8306   1.756   6.319  10.232  0.7811  0.1092  0.0524
   87SAPS    C3 8307   1.470   6.039  10.525 -0.0077  0.5617  0.0200
   87SAPS    HX 8308   1.433   5.986  10.615 -1.4181  1.3235 -0.0763
   87SAPS    HY 8309   1.569   6.003  10.488  0.6203 -0.8698  2.8341
   87SAPS   O31 8310   1.360   6.028  10.434 -0.0348 -0.3869 -0.1873
   87SAPS   C31 8311   1.383   5.995  10.312  0.2347  0.2295  0.1428
   87SAPS   O32 8312   1.489   5.977  10.255 -0.2423  0.5595 -0.1545
   87SAPS   C32 8313   1.244   5.976  10.242  0.1682  0.0014  0.3035
   87SAPS   H2X 8314   1.184   6.067  10.266  1.6339  0.2623  3.5125
   87SAPS   H2Y 8315   1.180   5.900  10.292 -0.2144 -1.5588 -2.3373
   87SAPS   C23 8316   1.538   6.310  10.179 -0.4318  0.5743 -0.1746
   87SAPS   H3R 8317   1.442   6.314  10.236 -0.3393  0.8111 -0.0360
   87SAPS   H3S 8318   1.552   6.204  10.149 -1.4080  0.4697 -0.2972
   87SAPS   C24 8319   1.546   6.395  10.052  0.0649 -0.4061 -0.1186
   87SAPS   H4R 8320   1.460   6.381   9.983 -2.2008 -0.7851  2.6048
   87SAPS   H4S 8321   1.639   6.364   9.999  0.7892  1.5679 -0.0603
   87SAPS   C25 8322   1.548   6.546  10.095 -0.7736 -0.3427  0.1567
   87SAPS   H5R 8323   1.498   6.561  10.192 -0.7582  1.5098 -0.0875
   87SAPS   C26 8324   1.595   6.656  10.028  0.2661 -0.0910 -0.1853
   87SAPS   H6R 8325   1.586   6.754  10.076 -0.6118  0.1938 -0.8923
   87SAPS   C27 8326   1.652   6.661   9.890  0.0804  0.9813  0.2532
   87SAPS   H7R 8327   1.738   6.591   9.880 -0.7376 -0.1928  1.1772
   87SAPS   H7S 8328   1.687   6.765   9.871  0.8409  0.9126  1.1709
   87SAPS   C28 8329   1.558   6.623   9.781  0.1527  0.3881  0.5376
   87SAPS   H8R 8330   1.452   6.603   9.803 -0.6959 -1.1495 -3.9270
   87SAPS   C29 8331   1.586   6.594   9.647 -0.4105 -0.7047 -0.6274
   87SAPS   H9R 8332   1.505   6.584   9.573 -2.4560  1.8865  1.0724
   87SAPS  C210 8333   1.725   6.602   9.581  0.6545  0.1024 -0.3022
   87SAPS  H10R 8334   1.793   6.646   9.657 -2.2673  1.2361  1.8218
   87SAPS  H10S 8335   1.714   6.658   9.486 -0.2415  0.3044 -0.0930
   87SAPS  C211 8336   1.765   6.457   9.539 -0.2766  0.2971 -0.2048
   87SAPS  H11R 8337   1.851   6.414   9.593 -0.8876 -0.8012 -0.0632
   87SAPS  C212 8338   1.712   6.370   9.448 -0.5210  0.0286  0.1690
   87SAPS  H12R 8339   1.769   6.277   9.435 -0.4870 -0.0322  0.7159
   87SAPS  C213 8340   1.604   6.399   9.349  0.0933 -0.0664  0.5075
   87SAPS  H13R 8341   1.558   6.499   9.363  0.4630  0.3815 -1.2680
   87SAPS  H13S 8342   1.531   6.315   9.356 -0.7480  0.5602 -0.5248
   87SAPS  C214 8343   1.665   6.405   9.213 -0.6761  0.3795  0.0754
   87SAPS  H14R 8344   1.722   6.496   9.193 -2.4369  2.0160  2.0439
   87SAPS  C215 8345   1.643   6.324   9.103 -0.1555 -0.4509  0.4070
   87SAPS  H15R 8346   1.693   6.340   9.007 -0.6000 -0.7874  0.1101
   87SAPS  C216 8347   1.543   6.216   9.091 -0.1948  0.5716  0.7536
   87SAPS  H16R 8348   1.524   6.179   9.194 -0.3687  1.4785  1.0533
   87SAPS  H16S 8349   1.582   6.133   9.028 -1.4781 -2.0558  3.2030
   87SAPS  C217 8350   1.416   6.254   9.017 -0.3035  0.0363 -0.3212
   87SAPS  H17R 8351   1.448   6.297   8.920  3.2836  0.1162  0.7537
   87SAPS  H17S 8352   1.362   6.339   9.063  1.9035 -0.1668  3.0346
   87SAPS  C218 8353   1.315   6.149   9.011  0.5421  0.6342 -0.2554
   87SAPS  H18R 8354   1.270   6.119   9.108 -0.4156  0.5983 -0.6880
   87SAPS  H18S 8355   1.351   6.052   8.969  2.7917  0.8688  1.0179
   87SAPS  C219 8356   1.204   6.200   8.924  0.4181  0.1879  0.2061
   87SAPS  H19R 8357   1.248   6.227   8.826 -2.3081  1.0898 -0.8744
   87SAPS  H19S 8358   1.163   6.289   8.977  0.2123  0.3237 -0.1779
   87SAPS  C220 8359   1.093   6.094   8.890 -0.3685 -0.6879 -0.6648
   87SAPS  H20R 8360   1.120   6.005   8.829 -0.4571 -1.1041 -0.1062
   87SAPS  H20S 8361   1.017   6.151   8.833  0.1216  2.5196  1.5929
   87SAPS  H20T 8362   1.046   6.060   8.984  0.4796  2.2951  0.9754
   87SAPS   C33 8363   1.255   5.945  10.093  0.1020  0.9664 -1.0115
   87SAPS   H3X 8364   1.150   5.931  10.061 -0.3452 -0.6299  0.9991
   87SAPS   H3Y 8365   1.306   5.847  10.079  0.0345  0.3302  2.3767
   87SAPS   C34 8366   1.309   6.058  10.008  0.6635 -0.6787 -0.1369
   87SAPS   H4X 8367   1.416   6.072  10.032  0.6247  1.1656 -0.8412
   87SAPS   H4Y 8368   1.265   6.158  10.032  2.9259 -0.3595  3.3438
   87SAPS   C35 8369   1.293   6.033   9.858 -0.4316  0.7859  0.4845
   87SAPS   H5X 8370   1.185   6.041   9.831 -0.2201  1.2523 -0.2438
   87SAPS   H5Y 8371   1.330   5.931   9.835 -2.6290 -0.2078  1.0552
   87SAPS   C36 8372   1.381   6.128   9.771  0.5028 -0.2327  0.0774
   87SAPS   H6X 8373   1.486   6.109   9.802  0.3360 -2.3479 -0.5259
   87SAPS   H6Y 8374   1.362   6.236   9.790  0.8475  0.3716 -2.6727
   87SAPS   C37 8375   1.380   6.099   9.624 -0.1263  0.5473  1.1947
   87SAPS   H7X 8376   1.391   5.989   9.613 -4.9315 -0.1687  1.6709
   87SAPS   H7Y 8377   1.467   6.147   9.573  0.3548  2.1308  3.3445
   87SAPS   C38 8378   1.257   6.150   9.541  0.0189 -0.1482 -0.0347
   87SAPS   H8X 8379   1.278   6.229   9.466 -2.8371  1.8364  1.0753
   87SAPS   H8Y 8380   1.187   6.190   9.617  3.7774  0.9999  3.1542
   87SAPS   C39 8381   1.192   6.034   9.463  0.4731 -0.1364 -0.3933
   87SAPS   H9X 8382   1.149   5.970   9.543  1.3032  0.9367  0.9619
   87SAPS   H9Y 8383   1.270   5.984   9.402  0.3703 -2.1082  0.9715
   87SAPS  C310 8384   1.086   6.073   9.361  0.3122  0.1018 -0.7308
   87SAPS  H10X 8385   1.114   6.129   9.269  2.2214  2.3031  1.0469
   87SAPS  H10Y 8386   1.014   6.132   9.422  1.3867  0.2747  0.4317
   87SAPS  C311 8387   1.017   5.941   9.320  0.1627 -0.7529  0.3197
   87SAPS  H11X 8388   0.985   5.871   9.400 -0.1632 -0.7864  0.1617
   87SAPS  H11Y 8389   1.091   5.892   9.252  0.1807 -2.1703  1.3353
   87SAPS  C312 8390   0.887   5.969   9.239 -0.5673 -0.2596 -0.4176
   87SAPS  H12X 8391   0.907   6.066   9.187  2.5722  0.0008  1.0207
   87SAPS  H12Y 8392   0.802   5.986   9.308  0.9078  0.9202  1.2433
   87SAPS  C313 8393   0.872   5.884   9.121  0.1256  0.3530  0.6977
   87SAPS  H13X 8394   0.968   5.877   9.064 -0.5867  0.7417 -0.5870
   87SAPS  H13Y 8395   0.808   5.948   9.057 -1.2020  1.1620  2.7408
   87SAPS  C314 8396   0.817   5.744   9.152  0.4603  0.4263  0.1095
   87SAPS  H14X 8397   0.718   5.765   9.198 -0.1370  0.3248 -1.0673
   87SAPS  H14Y 8398   0.876   5.684   9.223  0.7142 -1.1951 -1.3955
   87SAPS  C315 8399   0.810   5.655   9.028  0.5815  0.0859  0.1858
   87SAPS  H15X 8400   0.743   5.705   8.955  0.6103  3.8150  2.4775
   87SAPS  H15Y 8401   0.778   5.556   9.067 -0.8273  0.8430  1.0065
   87SAPS  C316 8402   0.946   5.633   8.962 -0.7037 -0.1313  0.1974
   87SAPS  H16X 8403   0.999   5.589   9.050 -1.9580  0.3150  1.2059
   87SAPS  H16Y 8404   1.004   5.723   8.932 -0.0306 -1.0917 -1.5142
   87SAPS  C317 8405   0.947   5.527   8.850  0.5111 -0.0322  0.3247
   87SAPS  H17X 8406   0.889   5.446   8.899  0.6200  0.9865  2.2457
   87SAPS  H17Y 8407   1.044   5.481   8.821 -0.3132 -0.7698 -1.4137
   87SAPS  C318 8408   0.867   5.573   8.725  0.1313  0.0658 -0.0642
   87SAPS  H18X 8409   0.836   5.492   8.655  1.4556  0.9770 -1.8105
   87SAPS  H18Y 8410   0.933   5.649   8.678  1.2205  0.0621  1.3817
   87SAPS  H18Z 8411   0.774   5.623   8.758  0.1099 -0.9871  1.5992
   88SAPS     N 8412   4.989   2.745  10.703 -0.1499 -0.2427 -0.0342
   88SAPS   HN1 8413   4.925   2.668  10.731 -0.9433  0.4130  0.0095
   88SAPS   HN2 8414   4.916   2.816  10.681 -0.5841 -1.0197 -1.1854
   88SAPS   HN3 8415   5.028   2.715  10.612 -0.8790  0.5356 -0.6268
   88SAPS   C12 8416   5.065   2.775  10.822 -0.5852 -0.5318 -0.5702
   88SAPS  H12A 8417   5.004   2.793  10.909  1.1442 -1.4737  0.9046
   88SAPS   C13 8418   5.157   2.651  10.865  0.5195 -0.2408 -0.7559
   88SAPS  O13A 8419   5.181   2.559  10.787 -0.2900  0.4887 -0.3485
   88SAPS  O13B 8420   5.203   2.654  10.983  0.3559  0.2420 -0.1708
   88SAPS   C11 8421   5.153   2.900  10.810 -0.4189 -0.1652 -0.2079
   88SAPS  H11A 8422   5.219   2.889  10.721  0.6940 -0.5291  0.6376
   88SAPS  H11B 8423   5.220   2.903  10.899  1.7605 -3.2687 -1.5499
   88SAPS     P 8424   5.145   3.154  10.789 -0.3502 -0.2228  0.0924
   88SAPS   O13 8425   5.063   3.274  10.814  0.5559  0.4929 -0.2085
   88SAPS   O14 8426   5.278   3.162  10.856  0.0672 -0.3964 -0.0285
   88SAPS   O12 8427   5.066   3.012  10.809 -0.2174  0.5512  0.1810
   88SAPS   O11 8428   5.175   3.152  10.633  0.0856 -0.8087 -0.6128
   88SAPS    C1 8429   5.083   3.105  10.533 -0.2953  0.5790  0.1372
   88SAPS    HA 8430   5.077   2.995  10.543  1.5113  0.5920  1.9705
   88SAPS    HB 8431   4.983   3.149  10.555 -0.6401  0.3329 -0.8504
   88SAPS    C2 8432   5.124   3.140  10.386 -0.6801 -0.0669 -0.6889
   88SAPS    HS 8433   5.048   3.103  10.314 -0.3300 -3.3715  0.4362
   88SAPS   O21 8434   5.256   3.092  10.353  0.3285 -0.7978  0.3304
   88SAPS   C21 8435   5.270   2.966  10.329 -0.2188  0.4029 -0.3240
   88SAPS   O22 8436   5.196   2.871  10.345  0.4393 -0.8393  0.0583
   88SAPS   C22 8437   5.419   2.949  10.287  0.3494  0.1163  0.2746
   88SAPS   H2R 8438   5.432   3.028  10.210 -1.2891  0.2769  0.1223
   88SAPS   H2S 8439   5.489   2.960  10.372  0.1021 -0.8305  0.6063
   88SAPS    C3 8440   5.135   3.298  10.370  0.8751 -0.5844  0.2470
   88SAPS    HX 8441   5.222   3.322  10.435  0.7669 -0.5496  0.3818
   88SAPS    HY 8442   5.045   3.345  10.417  1.7466  1.4470 -0.0250
   88SAPS   O31 8443   5.139   3.358  10.240 -0.1521  0.1464 -0.8451
   88SAPS   C31 8444   5.034   3.357  10.172  0.7590 -0.0428 -0.1687
   88SAPS   O32 8445   4.925   3.307  10.196 -0.0933  0.2418 -0.3956
   88SAPS   C32 8446   5.067   3.430  10.049  0.3270  0.1790 -0.5002
   88SAPS   H2X 8447   5.173   3.408  10.021  0.1367 -3.0934  0.9014
   88SAPS   H2Y 8448   5.051   3.536  10.078  0.8008  0.1959 -0.2923
   88SAPS   C23 8449   5.442   2.824  10.215  0.2027 -0.1065  1.0495
   88SAPS   H3R 8450   5.416   2.745  10.289  1.3300 -1.8708 -0.3644
   88SAPS   H3S 8451   5.547   2.801  10.189 -0.8352 -1.9380 -2.0832
   88SAPS   C24 8452   5.359   2.811  10.084 -0.3048  0.2088 -0.0068
   88SAPS   H4R 8453   5.377   2.896  10.014 -0.2588 -0.3371 -0.6598
   88SAPS   H4S 8454   5.250   2.813  10.107  0.0367  0.0344  1.7397
   88SAPS   C25 8455   5.399   2.690  10.008 -0.2297  0.3033 -0.0633
   88SAPS   H5R 8456   5.440   2.620  10.082 -1.9691 -2.3141 -1.4192
   88SAPS   C26 8457   5.382   2.663   9.873  0.3044 -0.4655 -0.3100
   88SAPS   H6R 8458   5.405   2.563   9.833  0.5654  0.2592 -2.0629
   88SAPS   C27 8459   5.323   2.765   9.777  0.1291  0.2239 -0.1450
   88SAPS   H7R 8460   5.399   2.844   9.758 -0.0695  1.2028  2.7059
   88SAPS   H7S 8461   5.248   2.837   9.815  0.5748 -0.8782  3.1321
   88SAPS   C28 8462   5.260   2.717   9.649  0.0608  0.1697  0.3347
   88SAPS   H8R 8463   5.172   2.651   9.657 -1.7151  2.2497 -0.8233
   88SAPS   C29 8464   5.301   2.758   9.527 -0.0332 -0.0312 -0.5809
   88SAPS   H9R 8465   5.246   2.721   9.439  0.4820  0.6132 -1.1857
   88SAPS  C210 8466   5.423   2.848   9.490  0.4606  0.5021 -0.3114
   88SAPS  H10R 8467   5.484   2.871   9.579 -1.6533  0.6126  1.1823
   88SAPS  H10S 8468   5.374   2.941   9.454 -0.1725 -0.2578 -1.4973
   88SAPS  C211 8469   5.510   2.781   9.389  0.2962  0.7394  0.5738
   88SAPS  H11R 8470   5.566   2.691   9.418 -1.1521  0.3995  2.5146
   88SAPS  C212 8471   5.515   2.811   9.255 -0.1991  0.0522 -0.3738
   88SAPS  H12R 8472   5.578   2.753   9.186 -1.0250 -1.8595  0.4097
   88SAPS  C213 8473   5.436   2.929   9.202  0.5751  0.1253  0.6151
   88SAPS  H13R 8474   5.457   2.941   9.093 -0.5962 -0.4990  0.2956
   88SAPS  H13S 8475   5.454   3.018   9.265 -2.1966  0.7947  0.5876
   88SAPS  C214 8476   5.280   2.937   9.198 -0.2812  0.1086 -0.1110
   88SAPS  H14R 8477   5.232   3.024   9.245  0.6231 -0.0512  1.1435
   88SAPS  C215 8478   5.203   2.847   9.134 -0.0854 -0.0941  0.6066
   88SAPS  H15R 8479   5.094   2.860   9.136 -0.1173 -0.2511  0.0797
   88SAPS  C216 8480   5.251   2.731   9.060 -0.2277 -0.7455 -0.4613
   88SAPS  H16R 8481   5.228   2.641   9.120 -2.0994 -1.3346 -1.9375
   88SAPS  H16S 8482   5.361   2.731   9.046 -0.0458  0.1107  0.8210
   88SAPS  C217 8483   5.171   2.715   8.928  0.5238 -0.2070  0.0036
   88SAPS  H17R 8484   5.063   2.737   8.937  0.5705  0.6549 -1.1701
   88SAPS  H17S 8485   5.172   2.608   8.898 -0.1950 -0.1135 -0.3823
   88SAPS  C218 8486   5.234   2.808   8.814  0.4453 -0.4911 -0.4186
   88SAPS  H18R 8487   5.338   2.773   8.796  0.6975 -0.3333  0.6280
   88SAPS  H18S 8488   5.247   2.910   8.857  1.8455 -1.5664  1.9169
   88SAPS  C219 8489   5.146   2.807   8.690  0.2692 -0.0290  0.1475
   88SAPS  H19R 8490   5.054   2.857   8.725  0.5630  0.6918 -0.0951
   88SAPS  H19S 8491   5.122   2.701   8.666  1.8365 -1.1031  2.8840
   88SAPS  C220 8492   5.193   2.880   8.563  0.1848 -1.2013 -0.2850
   88SAPS  H20R 8493   5.196   2.989   8.586  2.0350 -1.2850  0.0440
   88SAPS  H20S 8494   5.117   2.858   8.485  1.5812  0.2213 -2.1387
   88SAPS  H20T 8495   5.295   2.853   8.527  0.5376 -0.2383 -0.0592
   88SAPS   C33 8496   5.004   3.378   9.917  0.1923  0.0335 -0.3790
   88SAPS   H3X 8497   4.893   3.383   9.914  0.2235  0.4631 -1.2787
   88SAPS   H3Y 8498   5.031   3.271   9.902 -0.8749  0.0064 -2.5468
   88SAPS   C34 8499   5.056   3.455   9.795  0.2030 -0.6918  0.3311
   88SAPS   H4X 8500   5.165   3.475   9.804  0.2069  0.1999 -1.2947
   88SAPS   H4Y 8501   5.014   3.557   9.813  0.2513 -0.8240  1.1900
   88SAPS   C35 8502   5.017   3.409   9.658  0.5760 -0.7587  0.2476
   88SAPS   H5X 8503   4.913   3.371   9.653 -0.2451  1.4572 -0.9509
   88SAPS   H5Y 8504   5.082   3.323   9.633  0.0836 -2.2761  3.5321
   88SAPS   C36 8505   5.025   3.519   9.547  0.4114 -0.0799 -0.0491
   88SAPS   H6X 8506   5.131   3.539   9.518  1.0882 -1.2703  1.4481
   88SAPS   H6Y 8507   4.983   3.615   9.583  1.0548  0.2921 -0.2609
   88SAPS   C37 8508   4.964   3.475   9.413  0.0486  0.7572  0.6727
   88SAPS   H7X 8509   4.856   3.451   9.425  0.4378 -0.8833  1.1364
   88SAPS   H7Y 8510   5.022   3.388   9.374  2.8253  3.1747 -1.0466
   88SAPS   C38 8511   4.970   3.585   9.300  0.8525 -0.5013  0.4173
   88SAPS   H8X 8512   5.072   3.629   9.292  0.8907  0.0438  3.0022
   88SAPS   H8Y 8513   4.898   3.660   9.341 -1.1557 -1.3869 -1.3405
   88SAPS   C39 8514   4.913   3.549   9.160 -0.0235 -0.2095  0.0604
   88SAPS   H9X 8515   4.810   3.509   9.175 -1.0889  2.9931  2.2757
   88SAPS   H9Y 8516   4.973   3.469   9.112 -1.6380 -0.6580 -1.3280
   88SAPS  C310 8517   4.909   3.681   9.070 -0.8002  0.1105 -0.3452
   88SAPS  H10X 8518   5.007   3.733   9.077  1.0894 -3.2475  0.5799
   88SAPS  H10Y 8519   4.840   3.758   9.111 -2.7167 -1.7002  0.0383
   88SAPS  C311 8520   4.841   3.650   8.935  0.1138  0.4825 -0.0298
   88SAPS  H11X 8521   4.741   3.604   8.951  1.3043 -1.7060  1.8229
   88SAPS  H11Y 8522   4.902   3.581   8.873  1.3192  0.2361  1.3612
   88SAPS  C312 8523   4.808   3.775   8.851  0.2725  0.6491  0.0579
   88SAPS  H12X 8524   4.758   3.842   8.924 -1.2475 -1.9425  1.5408
   88SAPS  H12Y 8525   4.734   3.755   8.771  1.4862  0.3956 -1.0426
   88SAPS  C313 8526   4.930   3.846   8.795 -0.5845  0.3401 -0.2847
   88SAPS  H13X 8527   4.974   3.794   8.707 -0.5190  3.4312 -2.2499
   88SAPS  H13Y 8528   4.998   3.846   8.883 -2.0785 -1.5190  0.9197
   88SAPS  C314 8529   4.900   3.992   8.752 -1.1346 -0.1739  0.5303
   88SAPS  H14X 8530   4.896   4.058   8.842  0.1465  2.2635 -1.0936
   88SAPS  H14Y 8531   4.799   3.988   8.707 -1.5720  2.3333  1.1157
   88SAPS  C315 8532   4.994   4.042   8.639  0.2048 -0.7715  0.4251
   88SAPS  H15X 8533   4.981   3.963   8.562 -1.2776 -0.9622  0.8434
   88SAPS  H15Y 8534   5.101   4.030   8.668  0.0787  0.8079  1.6380
   88SAPS  C316 8535   4.961   4.180   8.575  0.0823  0.5346  0.5484
   88SAPS  H16X 8536   4.851   4.185   8.560  0.3522 -0.3156 -2.3376
   88SAPS  H16Y 8537   5.014   4.188   8.478  0.5420  0.6563  0.8038
   88SAPS  C317 8538   5.006   4.297   8.661 -0.5490  0.1308 -0.0727
   88SAPS  H17X 8539   5.115   4.287   8.679 -0.7502 -0.0702  1.0526
   88SAPS  H17Y 8540   4.966   4.305   8.764 -0.0121  1.7770  0.0390
   88SAPS  C318 8541   4.976   4.432   8.603  0.4338  0.2138 -0.0707
   88SAPS  H18X 8542   4.957   4.500   8.689 -2.2054  0.0508 -0.4494
   88SAPS  H18Y 8543   4.877   4.422   8.554 -0.1210 -2.2281  1.3560
   88SAPS  H18Z 8544   5.050   4.479   8.534 -1.4313  1.3301 -1.3823
   89SAPS     N 8545   4.348   5.138  10.976  0.2525 -0.2810  0.0502
   89SAPS   HN1 8546   4.394   5.079  10.903  0.9130 -1.3329  1.2788
   89SAPS   HN2 8547   4.361   5.096  11.070 -0.1342 -0.0419  0.2121
   89SAPS   HN3 8548   4.248   5.129  10.952 -0.5552  1.2980  2.4365
   89SAPS   C12 8549   4.395   5.281  10.954  0.8040 -0.1365  0.9294
   89SAPS  H12A 8550   4.354   5.345  11.032 -2.4496  0.8352 -1.3484
   89SAPS   C13 8551   4.549   5.297  10.956  0.3323  0.2690  0.4621
   89SAPS  O13A 8552   4.624   5.196  10.982  0.1895  0.3686 -0.1715
   89SAPS  O13B 8553   4.589   5.416  10.939 -0.0634 -0.2107  0.0228
   89SAPS   C11 8554   4.328   5.331  10.819 -0.0183  0.5540 -0.2618
   89SAPS  H11A 8555   4.356   5.265  10.733  0.6395  0.6315 -0.1139
   89SAPS  H11B 8556   4.377   5.430  10.811  0.1914  0.3901 -1.1445
   89SAPS     P 8557   4.089   5.246  10.780  0.1542 -0.1031 -0.0079
   89SAPS   O13 8558   4.108   5.112  10.850  0.0655  0.0766 -0.0156
   89SAPS   O14 8559   3.961   5.313  10.803 -0.3904 -0.3572 -0.1780
   89SAPS   O12 8560   4.188   5.349  10.831 -0.1869 -0.5147 -0.7471
   89SAPS   O11 8561   4.120   5.250  10.626  0.2677  0.5745  0.8836
   89SAPS    C1 8562   4.043   5.308  10.524  0.5190 -0.3335  0.0480
   89SAPS    HA 8563   4.050   5.231  10.444 -0.5838 -0.4361  0.0344
   89SAPS    HB 8564   3.936   5.294  10.549  0.9238 -2.3432  0.8970
   89SAPS    C2 8565   4.096   5.446  10.470 -0.2652  0.1996  0.6158
   89SAPS    HS 8566   4.055   5.469  10.369  3.7979 -0.4793 -1.3719
   89SAPS   O21 8567   4.236   5.440  10.460 -0.2408  0.1733  0.3591
   89SAPS   C21 8568   4.297   5.350  10.381 -0.0770 -0.2892  0.1242
   89SAPS   O22 8569   4.239   5.284  10.296  0.0155 -0.6847 -0.2888
   89SAPS   C22 8570   4.446   5.343  10.402 -0.1541 -0.3061 -0.3329
   89SAPS   H2R 8571   4.484   5.442  10.438  1.1675 -1.4676  1.7048
   89SAPS   H2S 8572   4.467   5.261  10.475 -1.8145 -0.0694  0.4634
   89SAPS    C3 8573   4.045   5.558  10.575  0.2384 -0.6675 -0.0430
   89SAPS    HX 8574   4.100   5.540  10.670 -0.2679 -1.7354  0.0672
   89SAPS    HY 8575   3.941   5.522  10.593  0.3904 -0.7499  0.6821
   89SAPS   O31 8576   4.046   5.690  10.521  0.1834 -0.1096  0.0452
   89SAPS   C31 8577   4.154   5.764  10.543 -0.7148  0.1429  0.0770
   89SAPS   O32 8578   4.254   5.717  10.598  0.2887  0.4047 -0.4086
   89SAPS   C32 8579   4.134   5.898  10.494  0.0846 -0.2211 -0.1456
   89SAPS   H2X 8580   4.071   5.950  10.569  0.5490  1.6271 -0.9763
   89SAPS   H2Y 8581   4.077   5.901  10.399  0.4367 -0.2860 -0.3612
   89SAPS   C23 8582   4.526   5.315  10.272 -0.2713  0.4950 -0.2024
   89SAPS   H3R 8583   4.491   5.218  10.230 -2.7362  0.4295  1.7444
   89SAPS   H3S 8584   4.632   5.307  10.304 -0.9630 -2.0544  1.7830
   89SAPS   C24 8585   4.498   5.417  10.160  0.3290  0.8591  0.6182
   89SAPS   H4R 8586   4.388   5.412  10.142  0.3442 -0.1865  0.7223
   89SAPS   H4S 8587   4.546   5.382  10.066  2.5184  2.2971  1.1418
   89SAPS   C25 8588   4.537   5.554  10.194 -0.7131 -0.2662 -0.3187
   89SAPS   H5R 8589   4.644   5.548  10.216 -1.3170 -0.1025  3.3280
   89SAPS   C26 8590   4.468   5.668  10.214  0.1570  0.7020 -0.4042
   89SAPS   H6R 8591   4.533   5.754  10.234  1.8250 -0.1343 -1.9229
   89SAPS   C27 8592   4.324   5.695  10.204  0.0829  0.9465  0.9012
   89SAPS   H7R 8593   4.283   5.740  10.297 -1.0781 -2.3482  2.1173
   89SAPS   H7S 8594   4.263   5.603  10.207  2.7564 -0.9900 -0.2135
   89SAPS   C28 8595   4.289   5.771  10.075  0.0936 -0.0802 -0.8145
   89SAPS   H8R 8596   4.363   5.841  10.033  2.6914 -1.5127  1.1058
   89SAPS   C29 8597   4.169   5.768  10.015  0.5136  0.2436  0.2127
   89SAPS   H9R 8598   4.154   5.821   9.920 -1.7978 -1.0357 -0.1972
   89SAPS  C210 8599   4.051   5.684  10.054  0.2994  0.4485  0.3018
   89SAPS  H10R 8600   3.981   5.715   9.973 -0.9736 -2.1407  0.3100
   89SAPS  H10S 8601   4.004   5.721  10.147 -0.3134  2.9377 -0.9181
   89SAPS  C211 8602   4.038   5.536  10.032  0.3941 -0.2398 -0.3411
   89SAPS  H11R 8603   3.997   5.482  10.119  0.2801 -0.1668 -0.3503
   89SAPS  C212 8604   4.079   5.463   9.928 -0.6274  0.8192 -0.5215
   89SAPS  H12R 8605   4.081   5.353   9.927  0.3374  0.8286 -1.3549
   89SAPS  C213 8606   4.147   5.521   9.805 -0.5250 -0.5605 -0.1022
   89SAPS  H13R 8607   4.118   5.628   9.797 -1.6329 -0.6401  2.0086
   89SAPS  H13S 8608   4.117   5.472   9.710 -0.6249 -1.3545  0.3284
   89SAPS  C214 8609   4.292   5.501   9.828 -0.4963  0.5276  0.2271
   89SAPS  H14R 8610   4.337   5.537   9.922  1.8580 -0.7897 -0.3224
   89SAPS  C215 8611   4.388   5.485   9.731 -0.2995 -0.3433  0.1915
   89SAPS  H15R 8612   4.484   5.441   9.761  0.3926  0.8929 -0.1986
   89SAPS  C216 8613   4.362   5.481   9.585 -0.2139 -0.1841 -0.1088
   89SAPS  H16R 8614   4.282   5.406   9.567 -0.8082  0.7185 -1.3873
   89SAPS  H16S 8615   4.450   5.444   9.528  0.3675  0.5157  0.3200
   89SAPS  C217 8616   4.319   5.621   9.523  0.1588 -0.1533  0.5460
   89SAPS  H17R 8617   4.408   5.687   9.531 -1.6801  2.2943  2.2742
   89SAPS  H17S 8618   4.235   5.676   9.571  1.7895  2.2359  0.8492
   89SAPS  C218 8619   4.287   5.602   9.375  0.5038 -0.3476 -0.4090
   89SAPS  H18R 8620   4.206   5.527   9.360  0.3572 -0.5249  1.0883
   89SAPS  H18S 8621   4.374   5.556   9.324  1.0979  1.2121 -0.8540
   89SAPS  C219 8622   4.260   5.734   9.304 -0.0666  0.0806 -0.1391
   89SAPS  H19R 8623   4.331   5.815   9.331  0.3170 -0.3829  0.2569
   89SAPS  H19S 8624   4.162   5.777   9.333  1.1700  2.3294  0.9810
   89SAPS  C220 8625   4.253   5.724   9.147 -0.1956  0.0163 -0.2651
   89SAPS  H20R 8626   4.196   5.632   9.123  2.1077 -1.6271  0.2209
   89SAPS  H20S 8627   4.353   5.716   9.098  0.0290  1.2985 -0.0673
   89SAPS  H20T 8628   4.199   5.813   9.106 -1.6256 -0.2442  0.9721
   89SAPS   C33 8629   4.257   5.983  10.468 -0.1137 -0.4187 -0.3323
   89SAPS   H3X 8630   4.317   5.925  10.394  0.8224  0.4009 -0.2381
   89SAPS   H3Y 8631   4.314   6.014  10.558  0.9950  0.8221 -1.4193
   89SAPS   C34 8632   4.207   6.109  10.407 -0.0678 -0.1138  0.5488
   89SAPS   H4X 8633   4.129   6.150  10.475  0.0035  1.1765 -0.1175
   89SAPS   H4Y 8634   4.155   6.085  10.312  0.3911 -1.1893  0.5572
   89SAPS   C35 8635   4.320   6.212  10.383  0.2679 -0.2366  0.2144
   89SAPS   H5X 8636   4.395   6.177  10.309 -0.5222  1.0003 -1.2110
   89SAPS   H5Y 8637   4.375   6.228  10.479 -1.9294 -0.4027  1.5575
   89SAPS   C36 8638   4.263   6.347  10.345 -0.3675 -0.3775  0.3270
   89SAPS   H6X 8639   4.280   6.420  10.426 -3.3712 -0.3377  1.0342
   89SAPS   H6Y 8640   4.152   6.348  10.341 -0.4013  2.2157  0.4613
   89SAPS   C37 8641   4.318   6.412  10.216  0.1365  0.3209 -0.9035
   89SAPS   H7X 8642   4.271   6.351  10.136  3.1305 -1.0400 -1.7702
   89SAPS   H7Y 8643   4.426   6.388  10.211  0.3309  0.9107  0.0818
   89SAPS   C38 8644   4.289   6.563  10.187  0.0345 -0.1250 -0.2747
   89SAPS   H8X 8645   4.333   6.612  10.276  2.4753 -2.6786  0.0658
   89SAPS   H8Y 8646   4.178   6.563  10.187 -0.0044 -2.0380 -0.4914
   89SAPS   C39 8647   4.333   6.622  10.053  0.0517 -0.3382  0.1239
   89SAPS   H9X 8648   4.444   6.627  10.051  0.0616 -0.5972 -0.0951
   89SAPS   H9Y 8649   4.309   6.729  10.037  2.4926  0.0759 -1.2638
   89SAPS  C310 8650   4.290   6.541   9.930 -0.1073  0.1079 -0.0569
   89SAPS  H10X 8651   4.181   6.518   9.938 -0.1532  0.3512  0.0079
   89SAPS  H10Y 8652   4.354   6.450   9.927  2.5165  1.7770  1.8517
   89SAPS  C311 8653   4.309   6.619   9.800 -0.1664 -0.0289  0.5303
   89SAPS  H11X 8654   4.414   6.653   9.786  0.1449 -1.0697  0.2070
   89SAPS  H11Y 8655   4.247   6.711   9.789  0.2050  0.2239  0.5289
   89SAPS  C312 8656   4.299   6.527   9.679 -0.0412  0.2573  0.5061
   89SAPS  H12X 8657   4.202   6.474   9.671 -0.3499  0.5652  1.9493
   89SAPS  H12Y 8658   4.371   6.443   9.689  0.7481  1.0855  2.3918
   89SAPS  C313 8659   4.331   6.611   9.558  0.6766  1.1779  0.0076
   89SAPS  H13X 8660   4.435   6.649   9.561  1.5789 -0.8732 -2.2445
   89SAPS  H13Y 8661   4.251   6.686   9.542 -1.7370 -1.2232 -0.0331
   89SAPS  C314 8662   4.320   6.524   9.428 -0.1912  0.4566 -0.2432
   89SAPS  H14X 8663   4.214   6.498   9.410 -0.6614  2.2079 -0.1181
   89SAPS  H14Y 8664   4.387   6.437   9.448  0.0404  0.5116 -0.7689
   89SAPS  C315 8665   4.369   6.580   9.294 -0.5154  0.1247 -0.1642
   89SAPS  H15X 8666   4.476   6.605   9.307 -0.1616 -2.3457  2.5185
   89SAPS  H15Y 8667   4.315   6.677   9.289  1.2086  1.1605  0.5744
   89SAPS  C316 8668   4.339   6.490   9.183 -0.2707 -0.5445 -0.3876
   89SAPS  H16X 8669   4.241   6.439   9.194 -0.3450 -0.2808  0.2235
   89SAPS  H16Y 8670   4.419   6.413   9.182  1.6475  1.3663 -1.5414
   89SAPS  C317 8671   4.341   6.561   9.044  0.3163  0.2460 -0.7665
   89SAPS  H17X 8672   4.267   6.643   9.048  0.7635  0.6011  0.6834
   89SAPS  H17Y 8673   4.329   6.486   8.963 -1.1167 -0.0579 -0.2945
   89SAPS  C318 8674   4.481   6.627   9.025  0.4693  0.3656  0.5125
   89SAPS  H18X 8675   4.496   6.682   8.930  1.2911  0.4010  0.6570
   89SAPS  H18Y 8676   4.567   6.556   9.026  0.2073  0.0434  0.6470
   89SAPS  H18Z 8677   4.504   6.710   9.095 -0.3423  0.3855  0.7616
   90SAPS     N 8678   5.574   5.876  10.866  0.0967 -0.4162  0.0876
   90SAPS   HN1 8679   5.580   5.915  10.962 -0.4740  0.4098 -0.2105
   90SAPS   HN2 8680   5.618   5.951  10.808 -0.2032  1.2379  1.9093
   90SAPS   HN3 8681   5.473   5.872  10.842  0.3932  3.3194 -2.5707
   90SAPS   C12 8682   5.648   5.752  10.845  0.7135  0.2330  0.4344
   90SAPS  H12A 8683   5.731   5.743  10.914  0.1810 -0.6051  0.9837
   90SAPS   C13 8684   5.572   5.618  10.887 -0.5595 -0.3811  0.1372
   90SAPS  O13A 8685   5.454   5.624  10.928 -0.0455  0.6209 -0.5974
   90SAPS  O13B 8686   5.633   5.508  10.873  0.3995 -0.6309  0.1297
   90SAPS   C11 8687   5.679   5.756  10.688 -0.5375  0.4377  0.2877
   90SAPS  H11A 8688   5.581   5.759  10.635 -0.9899  3.0349  1.1177
   90SAPS  H11B 8689   5.721   5.661  10.649 -3.4657 -0.9415  0.2346
   90SAPS     P 8690   5.896   5.890  10.648  0.3050  0.0185 -0.3730
   90SAPS   O13 8691   5.934   6.022  10.591 -0.0662  0.0570 -0.1534
   90SAPS   O14 8692   5.962   5.848  10.776  0.2856  0.5237  0.1826
   90SAPS   O12 8693   5.742   5.876  10.648 -0.5646 -0.3930  1.0448
   90SAPS   O11 8694   5.926   5.779  10.541  0.2176 -0.3111  0.6084
   90SAPS    C1 8695   6.065   5.750  10.506 -0.3541  0.8474 -0.6378
   90SAPS    HA 8696   6.127   5.835  10.541  0.1736 -0.3250  1.5343
   90SAPS    HB 8697   6.103   5.662  10.563 -0.6784 -0.6098 -2.5786
   90SAPS    C2 8698   6.076   5.714  10.361 -0.9892 -0.3448 -0.6552
   90SAPS    HS 8699   6.178   5.689  10.327 -1.3407 -0.9837 -1.2856
   90SAPS   O21 8700   6.033   5.822  10.282 -0.2305 -0.8373 -0.3002
   90SAPS   C21 8701   6.105   5.933  10.292  0.2701 -0.1278 -0.0689
   90SAPS   O22 8702   6.208   5.945  10.355 -0.0590 -0.0629  0.7338
   90SAPS   C22 8703   6.045   6.025  10.190  0.0968  0.1322 -0.7639
   90SAPS   H2R 8704   5.966   6.091  10.233 -0.7329 -1.8593  0.9225
   90SAPS   H2S 8705   6.139   6.079  10.163  1.1392 -1.0103  0.4329
   90SAPS    C3 8706   5.984   5.589  10.313  0.2861 -0.2333 -0.7207
   90SAPS    HX 8707   5.884   5.599  10.360  1.5188 -0.6411  2.1597
   90SAPS    HY 8708   6.030   5.500  10.360  0.6748  0.3485  0.0334
   90SAPS   O31 8709   5.996   5.565  10.170 -0.6203 -0.6788 -0.2013
   90SAPS   C31 8710   5.892   5.616  10.100 -0.2280 -0.6822  0.2494
   90SAPS   O32 8711   5.798   5.673  10.145 -0.6284 -0.1100  0.0039
   90SAPS   C32 8712   5.921   5.609   9.950  0.5772  0.0488  0.3671
   90SAPS   H2X 8713   5.967   5.511   9.925 -2.1686 -0.8128 -1.8083
   90SAPS   H2Y 8714   5.995   5.691   9.934  0.5825  0.3506  1.7953
   90SAPS   C23 8715   5.995   5.955  10.061 -0.2294 -0.1654 -0.1957
   90SAPS   H3R 8716   5.909   5.894  10.094 -0.3368  0.1340  0.0872
   90SAPS   H3S 8717   6.080   5.892  10.027  1.2977  1.0425  1.1439
   90SAPS   C24 8718   5.922   6.054   9.969  0.3178  0.1647 -0.3334
   90SAPS   H4R 8719   5.856   6.111  10.039  1.4506  1.5974 -0.3678
   90SAPS   H4S 8720   5.859   6.006   9.891  1.1946 -0.8269 -0.4369
   90SAPS   C25 8721   6.036   6.133   9.903  0.8847  0.3387 -0.4500
   90SAPS   H5R 8722   6.089   6.206   9.965  0.5872  0.9799 -0.9326
   90SAPS   C26 8723   6.086   6.119   9.780  0.5591  0.3891  0.7381
   90SAPS   H6R 8724   6.159   6.198   9.758  1.5344 -0.2820  1.4489
   90SAPS   C27 8725   6.051   6.016   9.674  0.8263  0.0918 -0.4041
   90SAPS   H7R 8726   6.029   5.921   9.727  0.6278  0.5815  0.4116
   90SAPS   H7S 8727   6.146   5.987   9.625  1.1312  1.4414 -0.6521
   90SAPS   C28 8728   5.938   6.067   9.581 -0.3326  0.5574 -0.5714
   90SAPS   H8R 8729   5.841   6.074   9.631  1.0346  2.5834  2.0249
   90SAPS   C29 8730   5.950   6.101   9.452 -0.4835  0.4152 -0.8896
   90SAPS   H9R 8731   5.871   6.166   9.410  0.6262  1.9442 -0.7145
   90SAPS  C210 8732   6.075   6.098   9.368  0.3502  0.2953  0.2416
   90SAPS  H10R 8733   6.174   6.097   9.418  0.3460 -0.0404  0.2443
   90SAPS  H10S 8734   6.090   6.192   9.311  0.3415  0.1828  0.0547
   90SAPS  C211 8735   6.077   5.972   9.282  0.0260 -0.1341  0.1709
   90SAPS  H11R 8736   6.123   5.892   9.341  1.1987  1.4925  1.5864
   90SAPS  C212 8737   6.029   5.949   9.155 -0.7969  0.8466  0.0206
   90SAPS  H12R 8738   6.017   5.849   9.111 -0.1136  2.1135 -3.2830
   90SAPS  C213 8739   5.952   6.048   9.071  0.2805 -0.1324 -0.8679
   90SAPS  H13R 8740   5.918   6.127   9.141 -1.1541 -1.5200  0.0819
   90SAPS  H13S 8741   5.855   6.007   9.036 -0.7225  1.1874  0.2692
   90SAPS  C214 8742   6.036   6.123   8.970 -0.2107  0.6242 -0.0715
   90SAPS  H14R 8743   6.128   6.170   9.008  0.6735 -1.5277  0.6220
   90SAPS  C215 8744   6.017   6.119   8.839 -0.0111  0.4345  0.0906
   90SAPS  H15R 8745   6.078   6.181   8.771  1.6777 -1.4339 -0.2133
   90SAPS  C216 8746   5.898   6.047   8.779  0.2119  0.6993 -0.5210
   90SAPS  H16R 8747   5.810   6.114   8.781 -0.2353  0.2035 -2.0542
   90SAPS  H16S 8748   5.882   5.952   8.835 -0.2584  1.0100 -0.1248
   90SAPS  C217 8749   5.912   6.008   8.624  0.2558  0.6269  0.5948
   90SAPS  H17R 8750   5.809   5.978   8.595  0.7896  0.6406 -1.4060
   90SAPS  H17S 8751   5.969   5.913   8.617  2.7329  1.7893  3.0330
   90SAPS  C218 8752   5.986   6.098   8.529 -0.0653 -0.7013  0.3845
   90SAPS  H18R 8753   6.095   6.101   8.550  0.3088  0.7830 -1.5218
   90SAPS  H18S 8754   5.966   6.207   8.529  3.7894  0.1526 -0.4172
   90SAPS  C219 8755   5.969   6.041   8.389  0.3588 -0.2649  0.3229
   90SAPS  H19R 8756   5.869   6.058   8.344  0.1787 -4.1419 -1.1266
   90SAPS  H19S 8757   5.985   5.931   8.392 -1.6060 -0.5867  2.7575
   90SAPS  C220 8758   6.073   6.083   8.275 -0.3013  0.1426 -0.8237
   90SAPS  H20R 8759   6.103   6.189   8.261  0.7226 -0.3449 -2.5845
   90SAPS  H20S 8760   6.047   6.041   8.176 -2.9200  0.8396 -0.5001
   90SAPS  H20T 8761   6.165   6.030   8.309 -0.3844  0.4881 -0.0439
   90SAPS   C33 8762   5.793   5.612   9.852  0.1666 -0.3505 -0.1689
   90SAPS   H3X 8763   5.704   5.663   9.896 -0.1510 -1.5802  0.6772
   90SAPS   H3Y 8764   5.753   5.512   9.823 -0.6323 -0.1915  0.3271
   90SAPS   C34 8765   5.828   5.679   9.719  0.4129 -0.1854 -0.4992
   90SAPS   H4X 8766   5.926   5.641   9.682  1.9176  1.1893  1.7952
   90SAPS   H4Y 8767   5.825   5.789   9.735 -2.1524 -0.2664 -0.0375
   90SAPS   C35 8768   5.728   5.642   9.612  0.8354 -0.4149  0.4015
   90SAPS   H5X 8769   5.633   5.672   9.662  0.4574 -2.2313  0.8395
   90SAPS   H5Y 8770   5.710   5.536   9.585 -1.8422 -0.1563  0.8131
   90SAPS   C36 8771   5.745   5.704   9.476 -0.2081 -0.3502  0.0689
   90SAPS   H6X 8772   5.848   5.682   9.438 -0.4974  0.2032 -1.0610
   90SAPS   H6Y 8773   5.734   5.814   9.483  2.1264 -0.1673  2.9433
   90SAPS   C37 8774   5.642   5.651   9.374  0.7211  0.5829 -0.6450
   90SAPS   H7X 8775   5.539   5.676   9.404  1.3961  2.6175  0.1236
   90SAPS   H7Y 8776   5.648   5.540   9.374  1.1413  0.6011 -1.1012
   90SAPS   C38 8777   5.682   5.701   9.234  0.4566 -0.6270  0.0955
   90SAPS   H8X 8778   5.768   5.639   9.201 -0.6714 -1.2486 -1.8520
   90SAPS   H8Y 8779   5.719   5.805   9.240  1.2552 -0.8067 -1.2452
   90SAPS   C39 8780   5.565   5.690   9.139 -0.8613  0.3816 -0.6944
   90SAPS   H9X 8781   5.479   5.715   9.204  1.1678  0.8316  2.0539
   90SAPS   H9Y 8782   5.559   5.585   9.103 -0.3119 -0.0030  0.2947
   90SAPS  C310 8783   5.575   5.797   9.026 -0.4983 -0.7895  0.8363
   90SAPS  H10X 8784   5.629   5.760   8.936 -1.8461  1.0659 -0.8330
   90SAPS  H10Y 8785   5.638   5.883   9.059 -0.5888 -0.2564 -0.3078
   90SAPS  C311 8786   5.434   5.853   8.981 -0.1573 -0.0636 -0.3619
   90SAPS  H11X 8787   5.368   5.848   9.071 -2.8131  0.8750 -2.1224
   90SAPS  H11Y 8788   5.377   5.785   8.914 -0.3346 -0.3069  0.0299
   90SAPS  C312 8789   5.444   5.982   8.907 -0.3606  0.0271  0.1519
   90SAPS  H12X 8790   5.508   5.971   8.817 -0.7160 -0.1588 -0.0834
   90SAPS  H12Y 8791   5.495   6.049   8.979  2.6506  0.1413 -1.9252
   90SAPS  C313 8792   5.302   6.034   8.886 -0.3479 -0.3487  0.6766
   90SAPS  H13X 8793   5.243   6.052   8.979 -0.9469 -0.8764  0.4022
   90SAPS  H13Y 8794   5.248   5.966   8.817 -0.0714 -0.2404  0.3489
   90SAPS  C314 8795   5.316   6.165   8.810 -0.0377  0.2836 -0.4365
   90SAPS  H14X 8796   5.225   6.185   8.749 -2.1496 -0.9635  2.1005
   90SAPS  H14Y 8797   5.397   6.158   8.734  1.2015  1.6323  0.7034
   90SAPS  C315 8798   5.334   6.285   8.904 -1.0504 -0.3725  0.6901
   90SAPS  H15X 8799   5.433   6.277   8.954 -0.1605  1.2919 -0.6665
   90SAPS  H15Y 8800   5.253   6.280   8.979 -0.3610 -0.7270  1.4280
   90SAPS  C316 8801   5.330   6.423   8.837  0.1514 -0.2846 -0.7340
   90SAPS  H16X 8802   5.227   6.433   8.794 -0.2070 -0.0177  0.1730
   90SAPS  H16Y 8803   5.409   6.430   8.759  4.5864  0.3777  3.4244
   90SAPS  C317 8804   5.361   6.533   8.938 -0.0740 -0.1404 -0.5776
   90SAPS  H17X 8805   5.457   6.514   8.991 -0.9758  0.8497  1.5432
   90SAPS  H17Y 8806   5.285   6.530   9.020  0.2045 -0.3125 -0.3231
   90SAPS  C318 8807   5.342   6.665   8.874  0.1155 -0.8270  0.0532
   90SAPS  H18X 8808   5.237   6.688   8.845  0.2114  0.2786  0.5173
   90SAPS  H18Y 8809   5.392   6.689   8.778 -0.4240 -1.1128 -0.3072
   90SAPS  H18Z 8810   5.361   6.750   8.944 -1.5107 -0.1810 -0.2247
   91SAPS     N 8811   3.641   3.662   6.052  0.8755  0.1234  0.4084
   91SAPS   HN1 8812   3.699   3.645   5.967  0.2890  2.7830 -0.6528
   91SAPS   HN2 8813   3.676   3.748   6.100  4.4781 -1.7594  1.4924
   91SAPS   HN3 8814   3.664   3.587   6.120 -0.5042  1.0468  1.9555
   91SAPS   C12 8815   3.493   3.676   6.017 -0.2339 -0.0595  0.7359
   91SAPS  H12A 8816   3.432   3.732   6.086  1.0701  0.4693  1.4912
   91SAPS   C13 8817   3.481   3.765   5.889  0.5846  0.3369 -0.1023
   91SAPS  O13A 8818   3.576   3.814   5.824 -0.3951 -0.1949  0.0726
   91SAPS  O13B 8819   3.362   3.786   5.855 -0.5756  0.4532  0.0404
   91SAPS   C11 8820   3.435   3.536   5.993  0.1943 -0.0156 -0.0710
   91SAPS  H11A 8821   3.508   3.480   5.931  0.6018  0.0019  0.3843
   91SAPS  H11B 8822   3.341   3.551   5.937  0.6788  2.9440 -0.2513
   91SAPS     P 8823   3.326   3.364   6.145 -0.1782 -0.1301  0.3248
   91SAPS   O13 8824   3.284   3.311   6.010  0.0011 -0.0916  0.1531
   91SAPS   O14 8825   3.381   3.260   6.233 -0.6713 -1.1142  0.2439
   91SAPS   O12 8826   3.429   3.477   6.126  0.0106  0.0694 -0.4014
   91SAPS   O11 8827   3.202   3.417   6.221  0.2224 -0.8745  0.1547
   91SAPS    C1 8828   3.178   3.557   6.249 -0.2470  0.0936  0.0053
   91SAPS    HA 8829   3.248   3.629   6.201 -1.5016 -0.2682 -2.5859
   91SAPS    HB 8830   3.073   3.579   6.223  0.1055  1.2191 -0.5296
   91SAPS    C2 8831   3.193   3.576   6.400 -0.4417  0.4459 -0.1086
   91SAPS    HS 8832   3.190   3.685   6.423 -0.5687  0.1676  1.3117
   91SAPS   O21 8833   3.310   3.505   6.448 -0.1950 -0.8974 -0.8536
   91SAPS   C21 8834   3.428   3.577   6.424  0.0591 -0.6126 -0.4733
   91SAPS   O22 8835   3.423   3.687   6.371  0.9924  0.2213 -0.1619
   91SAPS   C22 8836   3.546   3.493   6.461 -0.5222  0.1175 -0.0450
   91SAPS   H2R 8837   3.533   3.404   6.396 -1.0221  2.5437 -3.5303
   91SAPS   H2S 8838   3.639   3.543   6.425  0.3165 -1.3065  0.0371
   91SAPS    C3 8839   3.071   3.507   6.469 -0.4170  0.4870 -0.7046
   91SAPS    HX 8840   3.095   3.400   6.457  0.6396  0.7300 -0.8538
   91SAPS    HY 8841   2.978   3.534   6.415 -0.6989  1.3113  0.1532
   91SAPS   O31 8842   3.063   3.552   6.605 -0.0635 -0.8352 -0.3688
   91SAPS   C31 8843   3.089   3.459   6.700  0.0541  0.1727 -0.3089
   91SAPS   O32 8844   3.073   3.341   6.697  0.0877  0.5953  0.0593
   91SAPS   C32 8845   3.159   3.533   6.812 -0.4086  0.4299 -0.7402
   91SAPS   H2X 8846   3.108   3.628   6.836 -1.8068 -0.5225  0.2300
   91SAPS   H2Y 8847   3.268   3.545   6.796 -0.2186 -0.6023 -0.3313
   91SAPS   C23 8848   3.548   3.449   6.610  0.1252  0.6639  0.3212
   91SAPS   H3R 8849   3.635   3.382   6.626  0.9592  2.1368  2.3980
   91SAPS   H3S 8850   3.460   3.387   6.639  0.6771 -0.7659 -0.9220
   91SAPS   C24 8851   3.550   3.566   6.711  0.3423 -0.1708  1.0104
   91SAPS   H4R 8852   3.527   3.522   6.810 -0.2265 -0.8566  0.5851
   91SAPS   H4S 8853   3.464   3.636   6.703  1.2251  0.8468 -0.0065
   91SAPS   C25 8854   3.679   3.639   6.720 -0.0549  0.2322 -0.3020
   91SAPS   H5R 8855   3.712   3.652   6.616 -4.8952 -0.2274 -2.1589
   91SAPS   C26 8856   3.745   3.680   6.831 -0.8622  0.7111 -0.3032
   91SAPS   H6R 8857   3.837   3.738   6.813 -0.7530  0.4519 -0.5921
   91SAPS   C27 8858   3.707   3.647   6.977  0.3357 -0.5760 -0.2145
   91SAPS   H7R 8859   3.599   3.627   6.993  0.3702  0.6773  2.0114
   91SAPS   H7S 8860   3.710   3.740   7.038  1.6840 -0.6187 -0.1686
   91SAPS   C28 8861   3.790   3.540   7.054 -0.5834 -0.5105  0.4179
   91SAPS   H8R 8862   3.786   3.438   7.013  1.3798 -0.6056  0.3675
   91SAPS   C29 8863   3.860   3.563   7.163  0.2261 -0.2492  0.0794
   91SAPS   H9R 8864   3.907   3.478   7.215 -1.3054 -0.6161  0.9651
   91SAPS  C210 8865   3.862   3.691   7.239 -0.5582 -0.2383  0.1787
   91SAPS  H10R 8866   3.764   3.743   7.233 -0.4350  0.0097  0.3073
   91SAPS  H10S 8867   3.934   3.767   7.201  3.2141 -2.0028  3.1275
   91SAPS  C211 8868   3.878   3.660   7.390 -0.4069 -0.0360 -0.2939
   91SAPS  H11R 8869   3.826   3.570   7.425 -1.1226 -1.0465 -3.6472
   91SAPS  C212 8870   3.936   3.745   7.482  0.6080  0.1079 -0.1967
   91SAPS  H12R 8871   3.926   3.706   7.585 -0.0735  1.2121  0.1778
   91SAPS  C213 8872   4.007   3.877   7.467  0.2968 -0.2677  0.0466
   91SAPS  H13R 8873   4.047   3.889   7.364  2.4781 -0.5170  0.8083
   91SAPS  H13S 8874   4.097   3.876   7.532 -0.0581 -1.5136  0.5544
   91SAPS  C214 8875   3.905   3.991   7.486 -0.3535 -0.1116  0.4223
   91SAPS  H14R 8876   3.861   4.045   7.401 -2.1135  0.1469  1.4368
   91SAPS  C215 8877   3.870   4.029   7.612  0.0099  0.4016 -0.0659
   91SAPS  H15R 8878   3.796   4.108   7.633 -0.8710 -0.3541 -0.2232
   91SAPS  C216 8879   3.918   3.963   7.735  0.3003 -0.0113  0.0430
   91SAPS  H16R 8880   4.005   3.898   7.715  0.3855 -0.2459  1.1179
   91SAPS  H16S 8881   3.841   3.895   7.776  0.7001  0.9779  2.6448
   91SAPS  C217 8882   3.958   4.064   7.846 -0.2344 -0.4376  0.9813
   91SAPS  H17R 8883   3.865   4.115   7.882  0.1019 -0.6235  2.1574
   91SAPS  H17S 8884   4.018   4.150   7.809 -1.7611  0.4318  0.4064
   91SAPS  C218 8885   4.027   3.997   7.968  0.0040  0.2511 -0.2429
   91SAPS  H18R 8886   4.093   3.914   7.933 -1.3651 -0.3250 -1.5377
   91SAPS  H18S 8887   3.952   3.953   8.037  1.0925  2.1917  2.3598
   91SAPS  C219 8888   4.104   4.097   8.062 -0.1632  0.4049 -0.0266
   91SAPS  H19R 8889   4.042   4.165   8.123 -3.1116 -0.2888 -2.0301
   91SAPS  H19S 8890   4.153   4.174   7.999  2.2949 -1.9649 -1.2463
   91SAPS  C220 8891   4.218   4.021   8.130 -0.6273  1.0199  0.4942
   91SAPS  H20R 8892   4.286   3.970   8.059  0.1093  1.5707  0.7848
   91SAPS  H20S 8893   4.184   3.945   8.204  0.9257 -0.6063 -0.3985
   91SAPS  H20T 8894   4.285   4.096   8.178 -0.4767  2.0088 -1.1702
   91SAPS   C33 8895   3.141   3.451   6.948 -0.1869 -0.2232  0.8779
   91SAPS   H3X 8896   3.181   3.349   6.936  0.7258  0.2012  0.2569
   91SAPS   H3Y 8897   3.031   3.447   6.968 -0.4828 -0.1624 -0.6272
   91SAPS   C34 8898   3.216   3.518   7.056  0.3698  0.4974  0.0685
   91SAPS   H4X 8899   3.209   3.629   7.065  0.0349  0.3484  2.0852
   91SAPS   H4Y 8900   3.323   3.492   7.048  0.2254 -0.3831  0.8483
   91SAPS   C35 8901   3.180   3.462   7.195 -0.2492  0.3465  0.2646
   91SAPS   H5X 8902   3.211   3.355   7.194 -2.8279 -0.4819 -1.2875
   91SAPS   H5Y 8903   3.070   3.468   7.211 -0.0026  2.5503  1.4888
   91SAPS   C36 8904   3.243   3.531   7.312 -0.7612 -0.4053 -0.6737
   91SAPS   H6X 8905   3.210   3.637   7.320 -1.3084 -0.6544  0.6017
   91SAPS   H6Y 8906   3.350   3.539   7.284 -0.7632 -0.4603 -0.6947
   91SAPS   C37 8907   3.202   3.465   7.445 -0.1924 -0.0298 -0.3084
   91SAPS   H7X 8908   3.250   3.366   7.433  0.8882  0.4786 -0.2419
   91SAPS   H7Y 8909   3.091   3.457   7.444 -0.1463 -0.7067 -0.4214
   91SAPS   C38 8910   3.246   3.542   7.578  0.8749  0.3887  0.0102
   91SAPS   H8X 8911   3.213   3.648   7.576 -0.1423  0.0757 -1.8240
   91SAPS   H8Y 8912   3.355   3.534   7.597  0.9931  0.4095 -0.6387
   91SAPS   C39 8913   3.177   3.464   7.704 -0.3511 -0.1752 -0.8166
   91SAPS   H9X 8914   3.222   3.363   7.693 -0.8839 -0.2465 -2.6996
   91SAPS   H9Y 8915   3.066   3.471   7.698 -0.4955 -1.5286 -0.0768
   91SAPS  C310 8916   3.219   3.508   7.839  0.4665 -0.1209 -0.6475
   91SAPS  H10X 8917   3.186   3.613   7.855 -0.3614 -0.3394 -0.8347
   91SAPS  H10Y 8918   3.329   3.498   7.845  0.6116  0.9669 -1.1458
   91SAPS  C311 8919   3.165   3.427   7.958 -0.2386 -0.8963 -0.0070
   91SAPS  H11X 8920   3.177   3.317   7.942  0.6081 -0.6021 -1.5909
   91SAPS  H11Y 8921   3.056   3.449   7.954 -0.0113  0.0032 -1.6057
   91SAPS  C312 8922   3.235   3.470   8.084 -0.1651 -0.7073 -0.2744
   91SAPS  H12X 8923   3.257   3.578   8.087  0.8771 -0.9103 -0.3265
   91SAPS  H12Y 8924   3.332   3.424   8.111  0.2708  2.0689  3.7065
   91SAPS  C313 8925   3.140   3.439   8.205 -0.2832  0.1296  0.1178
   91SAPS  H13X 8926   3.044   3.494   8.195 -1.3377 -1.7423 -0.5959
   91SAPS  H13Y 8927   3.187   3.467   8.301  3.5533 -0.9131 -1.2668
   91SAPS  C314 8928   3.103   3.291   8.228  0.3868  0.5309  0.1923
   91SAPS  H14X 8929   3.188   3.229   8.263  1.7703  1.4965 -1.3019
   91SAPS  H14Y 8930   3.066   3.242   8.135 -0.2823  0.7640  0.3272
   91SAPS  C315 8931   2.988   3.276   8.327 -0.3900  0.9734 -0.2666
   91SAPS  H15X 8932   2.956   3.169   8.334  2.2345  0.0464 -1.3003
   91SAPS  H15Y 8933   2.898   3.336   8.302 -0.8166 -0.9679 -4.0228
   91SAPS  C316 8934   3.029   3.311   8.471 -0.0154 -0.3916 -0.1339
   91SAPS  H16X 8935   3.052   3.419   8.477  0.4761 -0.3895 -1.5415
   91SAPS  H16Y 8936   3.124   3.257   8.491 -0.3002 -0.8724 -0.0681
   91SAPS  C317 8937   2.933   3.264   8.576 -0.1536  0.4283  0.3259
   91SAPS  H17X 8938   2.939   3.154   8.569 -1.5630  0.4200 -1.7385
   91SAPS  H17Y 8939   2.828   3.296   8.558 -0.2589  1.0077  1.7953
   91SAPS  C318 8940   2.973   3.307   8.720 -0.0558 -0.2392  0.1042
   91SAPS  H18X 8941   3.052   3.236   8.751 -0.5710  0.2332  2.6633
   91SAPS  H18Y 8942   2.890   3.299   8.792  0.6719 -2.0040  0.7794
   91SAPS  H18Z 8943   3.015   3.410   8.715 -2.8489  0.9464 -0.6976
   92SAPS     N 8944   4.709   6.320   5.967  0.0825  0.2384  0.6342
   92SAPS   HN1 8945   4.623   6.332   6.024 -0.3294 -1.6146  0.4655
   92SAPS   HN2 8946   4.677   6.330   5.869  1.3816  0.2509  0.1943
   92SAPS   HN3 8947   4.753   6.227   5.977 -0.8098 -0.1345  1.2360
   92SAPS   C12 8948   4.808   6.421   6.007  0.3015  0.1451  0.6046
   92SAPS  H12A 8949   4.865   6.381   6.089  1.2316  0.2154  0.0102
   92SAPS   C13 8950   4.912   6.447   5.902 -0.1219 -0.6075 -0.3612
   92SAPS  O13A 8951   4.913   6.379   5.796  0.5090  0.3186  0.2006
   92SAPS  O13B 8952   5.003   6.522   5.930 -0.1250 -0.2737  0.5895
   92SAPS   C11 8953   4.736   6.551   6.061  0.7132  0.5427 -0.0883
   92SAPS  H11A 8954   4.688   6.603   5.974 -1.1819 -2.8997 -1.2972
   92SAPS  H11B 8955   4.801   6.624   6.114 -0.5306  1.1335  0.6881
   92SAPS     P 8956   4.571   6.604   6.272  0.3333 -0.2489  0.2899
   92SAPS   O13 8957   4.667   6.714   6.304  0.4107  0.4102 -0.1232
   92SAPS   O14 8958   4.431   6.644   6.246  0.3129  0.0564  0.1417
   92SAPS   O12 8959   4.619   6.518   6.143 -0.2974 -0.0964  0.0651
   92SAPS   O11 8960   4.566   6.492   6.383  0.0511  0.3612  0.0318
   92SAPS    C1 8961   4.684   6.449   6.446 -1.1752  0.4585 -0.5374
   92SAPS    HA 8962   4.690   6.338   6.440  1.8591  0.5971 -5.0159
   92SAPS    HB 8963   4.781   6.484   6.405  1.8752 -3.5316  2.4069
   92SAPS    C2 8964   4.697   6.490   6.599  0.2184  0.3271  0.1635
   92SAPS    HS 8965   4.774   6.428   6.650  0.4857 -1.3815 -2.1275
   92SAPS   O21 8966   4.562   6.476   6.659 -0.1840  0.0004  0.0812
   92SAPS   C21 8967   4.547   6.347   6.703 -0.3879  0.3172  0.9115
   92SAPS   O22 8968   4.621   6.253   6.679 -0.1777  0.6749  0.3238
   92SAPS   C22 8969   4.431   6.341   6.800 -0.2484  0.4709  0.0872
   92SAPS   H2R 8970   4.339   6.382   6.754  0.4840  0.7372 -1.2023
   92SAPS   H2S 8971   4.414   6.235   6.831  1.9934 -0.3389 -1.2031
   92SAPS    C3 8972   4.752   6.630   6.609  0.1623  0.6893  0.0563
   92SAPS    HX 8973   4.684   6.688   6.544 -0.0095 -0.1946 -0.5658
   92SAPS    HY 8974   4.856   6.623   6.570 -0.0427 -1.1944 -0.2343
   92SAPS   O31 8975   4.754   6.665   6.749  0.2831  0.2221  0.1583
   92SAPS   C31 8976   4.785   6.790   6.779  0.8062  0.5264  0.5710
   92SAPS   O32 8977   4.825   6.873   6.700 -0.8649  0.2051 -0.2172
   92SAPS   C32 8978   4.763   6.807   6.927 -0.2888  0.0741  0.6095
   92SAPS   H2X 8979   4.832   6.741   6.984  0.6253  0.6905  0.2498
   92SAPS   H2Y 8980   4.659   6.776   6.948 -0.2278 -1.1005 -0.6701
   92SAPS   C23 8981   4.458   6.436   6.918  0.2500  0.0218  0.0953
   92SAPS   H3R 8982   4.370   6.430   6.985 -2.9893  2.5299 -3.4660
   92SAPS   H3S 8983   4.455   6.536   6.870 -0.8647 -0.2060 -0.3418
   92SAPS   C24 8984   4.576   6.398   7.008 -0.1319  0.5709 -0.3877
   92SAPS   H4R 8985   4.661   6.359   6.948 -0.3275  0.5443 -0.6478
   92SAPS   H4S 8986   4.545   6.306   7.062  2.1165  1.3206  2.4018
   92SAPS   C25 8987   4.618   6.502   7.108 -0.3374 -0.3644  0.2491
   92SAPS   H5R 8988   4.664   6.586   7.054  1.6276 -0.8189  1.1476
   92SAPS   C26 8989   4.614   6.501   7.242 -0.5112 -0.4813 -0.4450
   92SAPS   H6R 8990   4.650   6.589   7.297  0.6924 -1.0996 -0.1977
   92SAPS   C27 8991   4.550   6.396   7.334 -0.5486  0.7757  0.2053
   92SAPS   H7R 8992   4.623   6.372   7.414 -2.2108 -2.2605  0.9623
   92SAPS   H7S 8993   4.565   6.308   7.268  2.4959  1.8236 -0.6592
   92SAPS   C28 8994   4.402   6.399   7.373 -0.0651 -0.7251 -0.2436
   92SAPS   H8R 8995   4.333   6.349   7.304 -0.0066 -0.9693 -0.1278
   92SAPS   C29 8996   4.354   6.457   7.484 -0.1042 -0.0419  0.3892
   92SAPS   H9R 8997   4.245   6.454   7.498 -0.0863 -0.8462  0.4209
   92SAPS  C210 8998   4.421   6.533   7.596 -0.5828  0.6994  0.5925
   92SAPS  H10R 8999   4.357   6.619   7.626 -0.7798  0.7694 -0.0035
   92SAPS  H10S 9000   4.520   6.570   7.561 -0.6757 -1.5330 -2.4057
   92SAPS  C211 9001   4.456   6.435   7.699  0.6548 -0.0002  0.7493
   92SAPS  H11R 9002   4.517   6.352   7.662  0.2560  0.8270 -2.0287
   92SAPS  C212 9003   4.428   6.438   7.826  0.0996 -0.6097 -0.5162
   92SAPS  H12R 9004   4.472   6.367   7.897  1.4245  0.0190 -0.6889
   92SAPS  C213 9005   4.360   6.552   7.901 -0.2256  0.3846  0.8043
   92SAPS  H13R 9006   4.306   6.619   7.831 -0.8626 -0.0328  0.8851
   92SAPS  H13S 9007   4.444   6.612   7.944  1.1946  0.4453 -1.8448
   92SAPS  C214 9008   4.265   6.520   8.020  0.5271  0.0593 -0.3589
   92SAPS  H14R 9009   4.212   6.424   8.027 -1.5293  1.1921  0.7310
   92SAPS  C215 9010   4.240   6.596   8.126  0.6008 -0.2211  0.5844
   92SAPS  H15R 9011   4.173   6.558   8.204 -2.4510 -0.9066 -2.1814
   92SAPS  C216 9012   4.301   6.726   8.159  0.2989 -0.1616 -0.5510
   92SAPS  H16R 9013   4.219   6.789   8.199  0.8601 -0.2858  0.8684
   92SAPS  H16S 9014   4.339   6.778   8.068 -0.3099  3.2585  0.9991
   92SAPS  C217 9015   4.422   6.730   8.260  0.2320 -0.1649 -0.0330
   92SAPS  H17R 9016   4.476   6.826   8.247 -2.1579  1.4067  0.8945
   92SAPS  H17S 9017   4.489   6.648   8.229 -0.3171 -0.6924  0.1566
   92SAPS  C218 9018   4.370   6.722   8.404  0.2795  0.1530 -0.9144
   92SAPS  H18R 9019   4.327   6.620   8.398  2.7866 -0.9109 -2.3729
   92SAPS  H18S 9020   4.298   6.804   8.428  2.1805  1.3185  1.3624
   92SAPS  C219 9021   4.478   6.727   8.514 -0.4818  0.2606  0.1784
   92SAPS  H19R 9022   4.548   6.814   8.513  0.2744 -0.3417  0.0048
   92SAPS  H19S 9023   4.535   6.632   8.517 -1.6302 -0.5281 -1.4365
   92SAPS  C220 9024   4.417   6.741   8.650 -0.4071 -0.1011 -0.6775
   92SAPS  H20R 9025   4.396   6.645   8.701  2.5899  0.5127  2.0035
   92SAPS  H20S 9026   4.320   6.792   8.627 -0.7911 -0.7083 -0.4102
   92SAPS  H20T 9027   4.474   6.800   8.725 -0.9715 -1.2254  0.6834
   92SAPS   C33 9028   4.794   6.953   6.968  0.0425  1.1486  0.6719
   92SAPS   H3X 9029   4.724   6.967   7.054 -1.1878  0.5897 -0.2123
   92SAPS   H3Y 9030   4.777   7.033   6.894 -1.4710 -1.1864 -1.6812
   92SAPS   C34 9031   4.947   6.963   6.999 -0.0392 -0.3133  0.5108
   92SAPS   H4X 9032   4.999   6.945   6.903 -1.9072  2.2031 -1.1186
   92SAPS   H4Y 9033   4.969   6.883   7.073  1.2137 -1.3078 -0.8635
   92SAPS   C35 9034   5.005   7.097   7.056 -0.1646 -0.1904  0.7954
   92SAPS   H5X 9035   4.987   7.181   6.986  1.4264 -1.5068 -1.3115
   92SAPS   H5Y 9036   5.114   7.074   7.061  0.1899 -0.0164 -3.0830
   92SAPS   C36 9037   4.974   7.153   7.189  0.3625 -0.0701 -0.3115
   92SAPS   H6X 9038   4.868   7.188   7.186  0.8160  1.3722 -2.8494
   92SAPS   H6Y 9039   5.024   7.252   7.203 -0.1164  0.2095 -0.5317
   92SAPS   C37 9040   4.996   7.068   7.317 -0.0385 -0.8250  0.0305
   92SAPS   H7X 9041   5.097   7.025   7.332 -0.1185 -0.4231  2.0104
   92SAPS   H7Y 9042   4.922   6.985   7.308 -0.9382 -0.0679  0.3245
   92SAPS   C38 9043   4.972   7.151   7.443  0.7874 -0.5328  1.1343
   92SAPS   H8X 9044   4.864   7.177   7.455  0.7668  0.0274 -0.1304
   92SAPS   H8Y 9045   5.018   7.252   7.441 -1.5141  0.5906 -0.8085
   92SAPS   C39 9046   5.027   7.083   7.571 -0.0993  0.7078 -0.5137
   92SAPS   H9X 9047   5.135   7.057   7.559  0.1175  0.6646  1.2572
   92SAPS   H9Y 9048   4.964   6.992   7.575 -1.2947  1.3278 -3.1969
   92SAPS  C310 9049   5.028   7.164   7.697  0.2897 -0.2564 -0.3491
   92SAPS  H10X 9050   4.923   7.166   7.734  0.2327  0.0617 -0.5313
   92SAPS  H10Y 9051   5.043   7.273   7.684 -2.2897  0.1448 -0.4997
   92SAPS  C311 9052   5.115   7.101   7.805  0.1806 -0.3064 -0.5519
   92SAPS  H11X 9053   5.218   7.081   7.768  0.7508 -0.0272  0.8292
   92SAPS  H11Y 9054   5.059   7.008   7.831 -1.2366  1.3013  2.7097
   92SAPS  C312 9055   5.133   7.179   7.939  0.4981  0.7256 -0.4896
   92SAPS  H12X 9056   5.093   7.281   7.954  2.6066  1.5499 -0.1370
   92SAPS  H12Y 9057   5.241   7.186   7.965  0.6882 -1.4418 -0.4998
   92SAPS  C313 9058   5.082   7.086   8.052  0.4038  0.0157 -0.7573
   92SAPS  H13X 9059   5.123   6.986   8.030 -0.8061 -0.7440  0.3108
   92SAPS  H13Y 9060   4.975   7.061   8.040  1.1806 -3.6722 -0.9514
   92SAPS  C314 9061   5.138   7.147   8.183  0.7858 -0.2767  0.6319
   92SAPS  H14X 9062   5.115   7.256   8.177  0.2857 -0.3510  1.1462
   92SAPS  H14Y 9063   5.248   7.133   8.181  1.0464  0.3310 -4.5602
   92SAPS  C315 9064   5.077   7.088   8.316 -0.2147 -0.6329 -0.1183
   92SAPS  H15X 9065   5.153   7.114   8.392  0.5223 -0.7063 -0.8151
   92SAPS  H15Y 9066   5.097   6.980   8.297  1.4509 -0.0602 -1.9730
   92SAPS  C316 9067   4.921   7.109   8.344 -0.1415  0.5319  0.1472
   92SAPS  H16X 9068   4.855   7.091   8.257 -0.4271  1.6734  0.1082
   92SAPS  H16Y 9069   4.910   7.217   8.368 -1.9037  0.9017 -2.0359
   92SAPS  C317 9070   4.868   7.015   8.454 -0.3596 -0.8530  0.1615
   92SAPS  H17X 9071   4.933   7.029   8.543 -0.3644 -0.6687  0.1368
   92SAPS  H17Y 9072   4.872   6.910   8.420  2.6618 -0.7609  0.0033
   92SAPS  C318 9073   4.725   7.048   8.489  0.2052  0.3372 -0.1677
   92SAPS  H18X 9074   4.650   7.003   8.420 -3.0563  0.0280  3.2072
   92SAPS  H18Y 9075   4.708   7.158   8.486  0.6163  0.5214  2.2662
   92SAPS  H18Z 9076   4.718   7.010   8.593  1.3800  0.3688 -0.0652
   93SAPS     N 9077   4.190   0.754   6.296 -0.6658 -0.5188 -0.3760
   93SAPS   HN1 9078   4.190   0.858   6.303 -0.8495 -0.5453  0.0213
   93SAPS   HN2 9079   4.099   0.710   6.271 -0.7567 -0.9674  0.6895
   93SAPS   HN3 9080   4.209   0.723   6.393  0.7148  2.5463  0.4311
   93SAPS   C12 9081   4.308   0.711   6.199  0.5840  0.0399 -0.4400
   93SAPS  H12A 9082   4.316   0.604   6.207  0.3517  0.0700  0.3571
   93SAPS   C13 9083   4.281   0.737   6.048  0.3637  0.5732 -0.4443
   93SAPS  O13A 9084   4.202   0.830   6.015 -0.3050 -0.1694  0.1843
   93SAPS  O13B 9085   4.355   0.694   5.963  0.0696 -0.9240  0.4083
   93SAPS   C11 9086   4.433   0.784   6.252 -0.6260  0.3402 -0.0580
   93SAPS  H11A 9087   4.412   0.893   6.264 -0.7711  0.0737  2.5417
   93SAPS  H11B 9088   4.521   0.765   6.186 -0.2533  0.3621  0.4286
   93SAPS     P 9089   4.598   0.740   6.438  0.1543 -0.3648 -0.4475
   93SAPS   O13 9090   4.606   0.683   6.575  0.8122  0.3591 -0.9983
   93SAPS   O14 9091   4.695   0.678   6.348  0.3220 -0.4289  0.6836
   93SAPS   O12 9092   4.456   0.730   6.384  0.4665 -0.0495 -0.4133
   93SAPS   O11 9093   4.618   0.899   6.451 -0.1020 -0.5834  0.5334
   93SAPS    C1 9094   4.538   0.987   6.532  0.6859  0.5897  1.4829
   93SAPS    HA 9095   4.509   1.068   6.462 -0.3791 -0.8767  0.1611
   93SAPS    HB 9096   4.433   0.951   6.534  0.8155 -0.1734 -1.2163
   93SAPS    C2 9097   4.611   1.043   6.647 -0.2392  0.6051  0.5730
   93SAPS    HS 9098   4.689   1.112   6.608  0.4885  0.9762  2.5481
   93SAPS   O21 9099   4.655   0.916   6.711 -0.2247 -0.3403  0.3301
   93SAPS   C21 9100   4.758   0.931   6.786  0.0059  0.4489  0.2258
   93SAPS   O22 9101   4.834   1.024   6.786  0.1279 -0.1486 -0.1535
   93SAPS   C22 9102   4.783   0.803   6.867  0.2995 -0.5647  0.5339
   93SAPS   H2R 9103   4.709   0.723   6.847  1.3260 -1.4696  0.2223
   93SAPS   H2S 9104   4.882   0.762   6.838  0.8090  1.1868 -0.3411
   93SAPS    C3 9105   4.519   1.119   6.748 -0.1574  0.0607  0.0842
   93SAPS    HX 9106   4.471   1.199   6.689 -0.2709 -2.4201 -3.4750
   93SAPS    HY 9107   4.579   1.175   6.824  0.2515 -0.8748  0.4674
   93SAPS   O31 9108   4.421   1.032   6.810 -0.8105 -0.1889 -0.1136
   93SAPS   C31 9109   4.300   1.015   6.772  0.2153  0.4721  0.7198
   93SAPS   O32 9110   4.250   1.065   6.667  0.3845 -0.0362 -0.1218
   93SAPS   C32 9111   4.215   0.935   6.864  0.5066 -0.2136 -0.2886
   93SAPS   H2X 9112   4.276   0.923   6.957  0.2860  1.5014  0.1094
   93SAPS   H2Y 9113   4.203   0.832   6.824  1.9884 -0.4206 -0.2797
   93SAPS   C23 9114   4.764   0.834   7.019 -0.5160 -0.3537 -0.7165
   93SAPS   H3R 9115   4.815   0.930   7.039  0.7123 -0.9076 -1.1135
   93SAPS   H3S 9116   4.802   0.750   7.081 -1.9695 -0.1128  0.5629
   93SAPS   C24 9117   4.614   0.834   7.059  0.1245  0.4660 -0.0401
   93SAPS   H4R 9118   4.584   0.728   7.061 -0.8927  0.7506  0.2914
   93SAPS   H4S 9119   4.555   0.886   6.980  1.9603 -0.2908 -2.0078
   93SAPS   C25 9120   4.592   0.914   7.186 -0.1783 -0.0542 -0.6350
   93SAPS   H5R 9121   4.596   1.023   7.174  0.4454 -0.0015  0.0225
   93SAPS   C26 9122   4.567   0.853   7.304 -0.0741  0.1791 -0.4488
   93SAPS   H6R 9123   4.569   0.918   7.393 -1.6055 -0.6796  0.2573
   93SAPS   C27 9124   4.551   0.711   7.333  0.4410  0.4442  0.3153
   93SAPS   H7R 9125   4.646   0.654   7.321  0.5498  0.9449 -1.6458
   93SAPS   H7S 9126   4.489   0.674   7.249 -0.6052  1.5868  0.5721
   93SAPS   C28 9127   4.491   0.678   7.467  0.0312 -0.6746 -0.1323
   93SAPS   H8R 9128   4.385   0.650   7.453 -0.3746  0.7856 -0.0791
   93SAPS   C29 9129   4.545   0.691   7.589 -0.1983  0.0858  0.2744
   93SAPS   H9R 9130   4.492   0.679   7.685 -0.5922  2.0355  0.3397
   93SAPS  C210 9131   4.686   0.726   7.622  0.9397  0.3016 -0.4231
   93SAPS  H10R 9132   4.682   0.825   7.671 -2.2479 -0.2144  0.5783
   93SAPS  H10S 9133   4.748   0.742   7.531 -0.5428 -1.5513 -1.8607
   93SAPS  C211 9134   4.768   0.637   7.721  0.3630 -0.1556 -0.4141
   93SAPS  H11R 9135   4.810   0.548   7.672  2.0975  1.3020 -1.6925
   93SAPS  C212 9136   4.774   0.656   7.852  0.5044 -0.9236  1.0632
   93SAPS  H12R 9137   4.834   0.585   7.910  0.2827 -2.6106 -0.6386
   93SAPS  C213 9138   4.707   0.765   7.928  0.3896 -0.3614  0.4226
   93SAPS  H13R 9139   4.657   0.852   7.881 -1.6201 -0.0330  2.9292
   93SAPS  H13S 9140   4.790   0.817   7.980 -0.8642  1.6710  0.5255
   93SAPS  C214 9141   4.606   0.699   8.023  0.2399 -0.4179 -0.2807
   93SAPS  H14R 9142   4.509   0.679   7.975 -0.1961  0.0314  0.3858
   93SAPS  C215 9143   4.620   0.693   8.157 -0.4431  0.3158  1.0487
   93SAPS  H15R 9144   4.547   0.647   8.225 -2.1493  0.5123 -0.6059
   93SAPS  C216 9145   4.742   0.734   8.235  0.0257  0.3839  0.0649
   93SAPS  H16R 9146   4.824   0.789   8.186 -0.2633 -1.2648 -2.4578
   93SAPS  H16S 9147   4.791   0.644   8.279 -0.1682 -0.0080 -0.5087
   93SAPS  C217 9148   4.699   0.831   8.349 -0.1018 -0.5964  0.1234
   93SAPS  H17R 9149   4.652   0.922   8.306 -1.2404 -1.4029 -0.3762
   93SAPS  H17S 9150   4.790   0.869   8.401 -0.0848  0.1769 -0.4574
   93SAPS  C218 9151   4.612   0.770   8.458  0.2943  0.1404  0.0220
   93SAPS  H18R 9152   4.669   0.692   8.511 -0.4717 -2.3157 -2.5519
   93SAPS  H18S 9153   4.524   0.710   8.427 -0.7969  1.2378  0.8966
   93SAPS  C219 9154   4.563   0.872   8.571  0.5723  0.1929  0.6831
   93SAPS  H19R 9155   4.494   0.941   8.519 -0.3023 -2.2465 -1.6154
   93SAPS  H19S 9156   4.651   0.929   8.608  1.5330  0.1643 -1.4160
   93SAPS  C220 9157   4.487   0.800   8.689 -0.5027  0.5917  0.0457
   93SAPS  H20R 9158   4.414   0.723   8.657 -1.3332  0.1945  2.6857
   93SAPS  H20S 9159   4.438   0.875   8.755  1.3568  2.5530 -0.6645
   93SAPS  H20T 9160   4.563   0.748   8.751  0.6288  0.6555 -1.2134
   93SAPS   C33 9161   4.078   0.991   6.885  0.9568  0.4331  0.3490
   93SAPS   H3X 9162   4.018   1.000   6.791 -0.8462 -0.3785  1.3613
   93SAPS   H3Y 9163   4.087   1.097   6.917  0.2973  0.2492  1.1940
   93SAPS   C34 9164   3.989   0.914   6.985  0.1973 -0.0713 -0.1486
   93SAPS   H4X 9165   3.947   0.824   6.936 -2.3476  0.4307  0.9590
   93SAPS   H4Y 9166   3.898   0.974   7.004  1.2244  1.2383  0.8493
   93SAPS   C35 9167   4.051   0.891   7.123 -0.1427 -0.2473  0.1100
   93SAPS   H5X 9168   4.150   0.840   7.114 -0.3194 -0.5160 -0.3771
   93SAPS   H5Y 9169   3.993   0.826   7.192 -0.0922  1.9101  2.3150
   93SAPS   C36 9170   4.061   1.022   7.197  0.2380 -0.2256 -0.0303
   93SAPS   H6X 9171   3.962   1.073   7.192 -0.1396 -0.7021  1.6458
   93SAPS   H6Y 9172   4.133   1.091   7.147 -0.6188 -0.9938 -2.4346
   93SAPS   C37 9173   4.099   0.992   7.345  0.5619  0.1834 -0.3957
   93SAPS   H7X 9174   4.196   0.938   7.341 -0.2808 -1.4523  0.2018
   93SAPS   H7Y 9175   4.027   0.925   7.396  0.8526  0.7336  0.7777
   93SAPS   C38 9176   4.111   1.119   7.429  0.2003 -0.3385 -0.1181
   93SAPS   H8X 9177   4.008   1.159   7.434 -0.7628 -2.7034  0.6388
   93SAPS   H8Y 9178   4.178   1.193   7.380  0.6552 -0.8701 -0.3140
   93SAPS   C39 9179   4.171   1.096   7.568  0.1356  0.3959 -0.4833
   93SAPS   H9X 9180   4.281   1.114   7.571  0.0045  1.1873  0.4223
   93SAPS   H9Y 9181   4.156   0.989   7.593 -0.3573 -0.1358 -2.8325
   93SAPS  C310 9182   4.108   1.190   7.679 -0.1529 -0.1837 -0.2663
   93SAPS  H10X 9183   4.000   1.167   7.690 -0.7852  2.7936  0.6441
   93SAPS  H10Y 9184   4.114   1.294   7.642 -2.6199  0.2103  0.2554
   93SAPS  C311 9185   4.176   1.186   7.817  0.5138 -0.0718  0.2982
   93SAPS  H11X 9186   4.127   1.250   7.893  1.1461  2.5113 -1.3564
   93SAPS  H11Y 9187   4.281   1.220   7.808  0.9737 -0.8972  2.0428
   93SAPS  C312 9188   4.188   1.045   7.882 -0.9587 -1.0100 -0.6334
   93SAPS  H12X 9189   4.243   0.972   7.820  2.0346  0.5954 -0.0504
   93SAPS  H12Y 9190   4.087   1.003   7.902 -0.3780 -2.0020  0.2935
   93SAPS  C313 9191   4.274   1.048   8.010 -0.0694  0.2283 -0.7111
   93SAPS  H13X 9192   4.381   1.072   7.995  0.7008 -1.2491  1.7610
   93SAPS  H13Y 9193   4.284   0.951   8.064 -0.1096  0.1679 -0.8135
   93SAPS  C314 9194   4.219   1.152   8.117  0.2687  0.7102  0.7600
   93SAPS  H14X 9195   4.108   1.141   8.119  0.2166  1.0132 -0.2277
   93SAPS  H14Y 9196   4.248   1.257   8.093 -0.0742  0.2604 -1.9103
   93SAPS  C315 9197   4.266   1.122   8.264 -0.2436 -0.5418  0.4111
   93SAPS  H15X 9198   4.373   1.094   8.254  0.3061  1.8380 -1.0697
   93SAPS  H15Y 9199   4.223   1.032   8.314 -0.7475  1.5346  4.0877
   93SAPS  C316 9200   4.255   1.234   8.371 -0.3808  0.0877 -0.3276
   93SAPS  H16X 9201   4.147   1.258   8.387  0.0878  1.0648  1.6260
   93SAPS  H16Y 9202   4.285   1.325   8.316 -2.2895  0.3123 -1.0748
   93SAPS  C317 9203   4.344   1.201   8.488  0.6726 -0.4776  1.4022
   93SAPS  H17X 9204   4.450   1.211   8.456  0.0927  0.5300 -0.3240
   93SAPS  H17Y 9205   4.324   1.105   8.540 -1.0212 -0.8791  0.0817
   93SAPS  C318 9206   4.335   1.303   8.604  0.3903 -0.3862  0.4941
   93SAPS  H18X 9207   4.233   1.335   8.634  0.7400 -0.5410  1.8919
   93SAPS  H18Y 9208   4.391   1.393   8.571  0.5078 -0.0106  1.6714
   93SAPS  H18Z 9209   4.373   1.259   8.698 -0.0981 -1.1768  0.3306
   94SAPS     N 9210   3.579   3.077   6.210  0.1462 -0.3314  0.2937
   94SAPS   HN1 9211   3.515   3.159   6.206  2.3086  1.4365  0.1502
   94SAPS   HN2 9212   3.526   2.988   6.200 -1.7091  0.6592  0.7587
   94SAPS   HN3 9213   3.637   3.077   6.296  0.5142  0.9224  0.0701
   94SAPS   C12 9214   3.663   3.075   6.094  0.4774 -1.1210  0.6395
   94SAPS  H12A 9215   3.744   3.010   6.123 -0.5658 -2.4620  0.6821
   94SAPS   C13 9216   3.592   3.042   5.961 -0.1118  0.1960  0.3502
   94SAPS  O13A 9217   3.472   3.010   5.960 -0.5613  0.7604  0.2310
   94SAPS  O13B 9218   3.652   3.018   5.853 -0.3869  0.0357 -0.0674
   94SAPS   C11 9219   3.729   3.217   6.080  0.5260  0.5109  0.0070
   94SAPS  H11A 9220   3.640   3.284   6.090 -0.0114 -0.4479  2.2778
   94SAPS  H11B 9221   3.778   3.232   5.981  1.1113  1.7889  0.4719
   94SAPS     P 9222   3.891   3.390   6.179 -0.2731 -0.1037 -0.2830
   94SAPS   O13 9223   3.973   3.398   6.053  0.3331  0.5659 -0.3204
   94SAPS   O14 9224   3.787   3.498   6.198 -0.0692 -0.5288 -0.4751
   94SAPS   O12 9225   3.816   3.247   6.195 -0.1417  0.6317  0.3910
   94SAPS   O11 9226   3.968   3.387   6.308 -0.0320 -0.0657  0.3774
   94SAPS    C1 9227   3.918   3.365   6.437  0.1662 -0.3537 -1.2669
   94SAPS    HA 9228   3.831   3.431   6.459  0.4444 -0.6974  1.1622
   94SAPS    HB 9229   3.892   3.258   6.452 -0.5450 -0.0935 -0.5945
   94SAPS    C2 9230   4.032   3.396   6.532  0.0680 -0.1403 -0.3111
   94SAPS    HS 9231   4.087   3.484   6.492  0.2432 -0.1924 -0.1887
   94SAPS   O21 9232   4.120   3.283   6.539 -0.0897  0.2498  0.1369
   94SAPS   C21 9233   4.237   3.303   6.480 -0.0668  0.8565  0.2145
   94SAPS   O22 9234   4.288   3.410   6.465  0.0686 -0.4228 -0.0783
   94SAPS   C22 9235   4.304   3.176   6.441  0.0222 -0.0030 -0.4733
   94SAPS   H2R 9236   4.285   3.096   6.515 -1.9611 -0.7545 -1.6942
   94SAPS   H2S 9237   4.240   3.137   6.358 -1.5432  0.6405  0.3752
   94SAPS    C3 9238   3.979   3.423   6.678  0.8228 -0.1160 -0.4740
   94SAPS    HX 9239   3.934   3.334   6.728  0.1484  1.3028  1.5879
   94SAPS    HY 9240   3.906   3.506   6.668  0.2891 -0.6406 -1.0074
   94SAPS   O31 9241   4.091   3.463   6.755  0.2092 -0.1428  0.2190
   94SAPS   C31 9242   4.134   3.589   6.745  0.0121  0.0282  0.7643
   94SAPS   O32 9243   4.085   3.679   6.676 -0.4427 -0.8243 -0.5276
   94SAPS   C32 9244   4.256   3.601   6.840 -0.5043  0.4404  0.2641
   94SAPS   H2X 9245   4.349   3.581   6.782 -0.6540 -0.3404  0.2800
   94SAPS   H2Y 9246   4.245   3.518   6.913 -1.4861  0.9754  0.7486
   94SAPS   C23 9247   4.452   3.205   6.411 -0.3044 -0.0967 -0.1444
   94SAPS   H3R 9248   4.448   3.279   6.328 -1.0493  0.4710  0.3957
   94SAPS   H3S 9249   4.496   3.117   6.360 -0.8655 -0.8441  0.6421
   94SAPS   C24 9250   4.537   3.245   6.529  0.1467  0.2698  0.0437
   94SAPS   H4R 9251   4.498   3.334   6.583  0.6660  0.0974  0.7172
   94SAPS   H4S 9252   4.638   3.280   6.500 -0.7922  2.3389 -0.8871
   94SAPS   C25 9253   4.546   3.120   6.626  0.7366 -0.0027 -0.1694
   94SAPS   H5R 9254   4.539   3.025   6.570  1.9859  0.4430 -1.1343
   94SAPS   C26 9255   4.552   3.119   6.759 -0.7373  0.4930 -0.2115
   94SAPS   H6R 9256   4.574   3.024   6.809 -0.4907 -0.0703 -1.3528
   94SAPS   C27 9257   4.553   3.236   6.847  0.0196 -0.0010 -0.0580
   94SAPS   H7R 9258   4.505   3.221   6.946  0.2679 -0.2545  0.0263
   94SAPS   H7S 9259   4.496   3.318   6.799  1.4832 -0.5093 -2.8475
   94SAPS   C28 9260   4.697   3.274   6.872  0.1790  0.2454 -0.0682
   94SAPS   H8R 9261   4.753   3.309   6.784 -1.4445  1.6837 -0.5949
   94SAPS   C29 9262   4.763   3.255   6.980 -0.2818 -0.5770 -0.2769
   94SAPS   H9R 9263   4.863   3.299   6.974 -0.8399  0.7184 -0.3504
   94SAPS  C210 9264   4.717   3.208   7.118 -0.3289 -0.3167 -0.1794
   94SAPS  H10R 9265   4.808   3.168   7.168  0.4905  0.3096 -1.1367
   94SAPS  H10S 9266   4.659   3.114   7.117  0.6584 -0.9566  0.6027
   94SAPS  C211 9267   4.639   3.304   7.214 -0.3747  0.6764 -0.5705
   94SAPS  H11R 9268   4.561   3.367   7.169 -1.7906 -0.8965 -0.4280
   94SAPS  C212 9269   4.651   3.307   7.353  0.0289  0.4064  0.6845
   94SAPS  H12R 9270   4.581   3.371   7.409 -0.3238 -0.1389  0.8797
   94SAPS  C213 9271   4.747   3.233   7.446  1.0587  0.0514 -0.1063
   94SAPS  H13R 9272   4.715   3.127   7.434  1.5491 -0.1375  0.2129
   94SAPS  H13S 9273   4.706   3.259   7.546 -2.8729  0.9091 -1.7582
   94SAPS  C214 9274   4.894   3.247   7.434  0.2457  0.1010  0.4308
   94SAPS  H14R 9275   4.930   3.265   7.331 -0.2753 -2.2547 -0.2275
   94SAPS  C215 9276   4.986   3.229   7.533 -0.2435  0.1661  0.1437
   94SAPS  H15R 9277   5.094   3.242   7.517 -0.3386  2.6399  1.1587
   94SAPS  C216 9278   4.939   3.173   7.661  0.2777  0.8008  0.2907
   94SAPS  H16R 9279   5.006   3.094   7.703  1.5146  2.0527  0.7526
   94SAPS  H16S 9280   4.841   3.122   7.650 -0.5459  2.7817 -2.9202
   94SAPS  C217 9281   4.931   3.280   7.769  0.1273  0.1949  0.2449
   94SAPS  H17R 9282   4.871   3.362   7.724  0.3724 -0.9855 -2.5013
   94SAPS  H17S 9283   5.035   3.310   7.796  0.5256  0.4420 -1.4431
   94SAPS  C218 9284   4.871   3.222   7.895 -0.6278 -0.0002  0.5884
   94SAPS  H18R 9285   4.944   3.172   7.962  1.2520  1.2910 -0.4285
   94SAPS  H18S 9286   4.805   3.138   7.865 -0.2297 -0.0029 -0.3102
   94SAPS  C219 9287   4.790   3.327   7.973  0.2709 -0.0729 -0.3423
   94SAPS  H19R 9288   4.720   3.275   8.041  0.8873  0.5519  0.8024
   94SAPS  H19S 9289   4.717   3.381   7.909 -3.4524 -2.0010  1.9049
   94SAPS  C220 9290   4.883   3.425   8.056  0.7534  0.8665  0.0186
   94SAPS  H20R 9291   4.961   3.367   8.111  0.0837 -0.3640 -0.3079
   94SAPS  H20S 9292   4.821   3.483   8.127  0.8198 -0.0736  0.8731
   94SAPS  H20T 9293   4.939   3.480   7.977  0.1934 -2.7339 -3.1581
   94SAPS   C33 9294   4.265   3.741   6.909 -0.5909 -0.7920 -0.7567
   94SAPS   H3X 9295   4.171   3.763   6.965  0.2273  1.2866 -0.1213
   94SAPS   H3Y 9296   4.283   3.820   6.833  1.8248 -0.8944 -0.3446
   94SAPS   C34 9297   4.396   3.751   6.997 -0.0726  0.0822 -0.0821
   94SAPS   H4X 9298   4.384   3.839   7.064  0.1007  0.2672 -0.2914
   94SAPS   H4Y 9299   4.482   3.767   6.928 -0.4410  0.8663 -0.3726
   94SAPS   C35 9300   4.427   3.622   7.083  0.2884 -1.0159  0.0576
   94SAPS   H5X 9301   4.519   3.642   7.142  1.5969 -0.7944 -1.9730
   94SAPS   H5Y 9302   4.436   3.540   7.010 -0.8394 -1.2408  0.1571
   94SAPS   C36 9303   4.321   3.575   7.178 -0.2587  0.1776  0.5174
   94SAPS   H6X 9304   4.337   3.471   7.215  0.7753  0.4807  0.9644
   94SAPS   H6Y 9305   4.222   3.564   7.129  0.4197  0.5232 -0.9897
   94SAPS   C37 9306   4.297   3.659   7.303 -0.1533  0.7422 -0.0205
   94SAPS   H7X 9307   4.192   3.693   7.309 -0.0134  0.9692  1.3861
   94SAPS   H7Y 9308   4.350   3.754   7.282  0.8267 -0.2152 -2.2632
   94SAPS   C38 9309   4.354   3.583   7.423  0.2201 -0.0798  0.3902
   94SAPS   H8X 9310   4.445   3.533   7.386  0.4877  2.0122 -2.0840
   94SAPS   H8Y 9311   4.273   3.523   7.470 -0.5396  2.3608  2.4682
   94SAPS   C39 9312   4.402   3.693   7.528  0.3369 -0.2519 -0.1479
   94SAPS   H9X 9313   4.308   3.751   7.546  0.5894 -0.0353  0.5312
   94SAPS   H9Y 9314   4.473   3.756   7.471 -0.8587 -0.0200 -1.4476
   94SAPS  C310 9315   4.458   3.622   7.658  0.2900  0.2483 -1.0763
   94SAPS  H10X 9316   4.556   3.573   7.648  2.6321  3.9633  1.2309
   94SAPS  H10Y 9317   4.382   3.547   7.690 -1.5316  2.5031  0.2451
   94SAPS  C311 9318   4.486   3.735   7.762  0.5250 -0.0303 -0.0502
   94SAPS  H11X 9319   4.397   3.799   7.778  0.4634 -0.3110  0.7828
   94SAPS  H11Y 9320   4.573   3.791   7.721 -0.1996  0.4082 -1.0161
   94SAPS  C312 9321   4.537   3.675   7.896  0.5333  0.7991 -0.4686
   94SAPS  H12X 9322   4.640   3.633   7.888 -0.2815 -1.3876 -0.1922
   94SAPS  H12Y 9323   4.485   3.582   7.927  0.0969  1.6170  1.4193
   94SAPS  C313 9324   4.547   3.769   8.009 -0.5278 -0.4295 -0.2181
   94SAPS  H13X 9325   4.447   3.809   8.036 -2.0144 -3.9274  0.1081
   94SAPS  H13Y 9326   4.614   3.853   7.984 -0.2030 -0.2544  1.1254
   94SAPS  C314 9327   4.616   3.709   8.129  0.7155  0.0323  0.3790
   94SAPS  H14X 9328   4.727   3.720   8.124  0.5642  1.6642  0.1724
   94SAPS  H14Y 9329   4.593   3.600   8.125 -1.7116  0.5012  0.1171
   94SAPS  C315 9330   4.556   3.748   8.264 -0.1465 -0.2947  0.5729
   94SAPS  H15X 9331   4.446   3.757   8.249 -0.4179 -3.9702 -0.5303
   94SAPS  H15Y 9332   4.614   3.836   8.301  1.6540 -2.3469  2.9350
   94SAPS  C316 9333   4.554   3.638   8.373  0.4465  0.7601 -0.1112
   94SAPS  H16X 9334   4.484   3.558   8.340  2.2981 -0.4557 -1.2584
   94SAPS  H16Y 9335   4.521   3.677   8.472  0.5590 -1.4308  0.8563
   94SAPS  C317 9336   4.686   3.561   8.413  0.1357 -0.3881  0.2743
   94SAPS  H17X 9337   4.719   3.480   8.345  0.4884  0.4245 -0.5280
   94SAPS  H17Y 9338   4.669   3.502   8.506  0.5894 -1.1829 -0.1424
   94SAPS  C318 9339   4.795   3.662   8.433  0.2131 -0.1731  0.0420
   94SAPS  H18X 9340   4.847   3.705   8.345  2.9686 -4.3846 -0.6345
   94SAPS  H18Y 9341   4.874   3.614   8.494  0.5460  0.4767  0.1328
   94SAPS  H18Z 9342   4.760   3.744   8.500  2.0734  0.9486 -0.2845
   95SAPS     N 9343   0.916   0.945   6.283  0.1444  1.0336 -0.2733
   95SAPS   HN1 9344   0.839   0.882   6.252  0.0597  0.5133  0.9552
   95SAPS   HN2 9345   1.011   0.902   6.291 -0.1319  0.5778  0.6001
   95SAPS   HN3 9346   0.891   0.992   6.372  0.5553  2.2832 -0.7937
   95SAPS   C12 9347   0.914   1.054   6.184  0.0923 -0.3357  0.3595
   95SAPS  H12A 9348   0.978   1.134   6.220 -1.7208  0.8058  1.1895
   95SAPS   C13 9349   0.954   1.023   6.036  0.3642  0.3407  0.1286
   95SAPS  O13A 9350   0.972   0.905   5.996  0.1944 -0.7018 -0.4644
   95SAPS  O13B 9351   0.970   1.117   5.952  0.3035  0.2075  0.1642
   95SAPS   C11 9352   0.765   1.101   6.177 -0.1239  0.1405 -0.0843
   95SAPS  H11A 9353   0.698   1.029   6.126  0.6833 -1.4047  0.9679
   95SAPS  H11B 9354   0.763   1.193   6.114  0.0262  1.1141  1.2829
   95SAPS     P 9355   0.728   1.253   6.389 -0.1038 -0.0744 -0.0735
   95SAPS   O13 9356   0.864   1.308   6.378 -0.1016  0.4554 -0.4248
   95SAPS   O14 9357   0.618   1.337   6.337  0.3017 -0.3145  0.3165
   95SAPS   O12 9358   0.707   1.117   6.308  0.1055 -0.1180 -0.3509
   95SAPS   O11 9359   0.697   1.193   6.531 -0.1635 -0.3962 -0.5597
   95SAPS    C1 9360   0.642   1.273   6.640 -0.0603 -0.3422  0.4069
   95SAPS    HA 9361   0.592   1.368   6.611  1.8253  0.4176 -0.5177
   95SAPS    HB 9362   0.580   1.214   6.711  0.1742  0.4095  1.2602
   95SAPS    C2 9363   0.765   1.320   6.720 -0.0730  0.6632 -0.0579
   95SAPS    HS 9364   0.838   1.354   6.644 -1.1958 -0.8977 -1.9232
   95SAPS   O21 9365   0.820   1.207   6.789  0.0531  0.0619 -0.4453
   95SAPS   C21 9366   0.944   1.216   6.825 -1.1467  0.5400 -0.3724
   95SAPS   O22 9367   1.021   1.307   6.792  0.7209 -0.3417 -0.1649
   95SAPS   C22 9368   0.977   1.094   6.914  0.2185  0.4473  0.5823
   95SAPS   H2R 9369   0.881   1.057   6.954 -1.0536  1.5419 -1.2888
   95SAPS   H2S 9370   1.028   1.014   6.856 -0.5283 -1.5435  2.5589
   95SAPS    C3 9371   0.720   1.426   6.826 -0.2136  0.5157 -0.4580
   95SAPS    HX 9372   0.654   1.369   6.895 -0.2339  0.4440 -0.5370
   95SAPS    HY 9373   0.675   1.512   6.772 -0.0991  0.8193 -0.0699
   95SAPS   O31 9374   0.838   1.469   6.900 -0.0300 -0.6489 -0.4163
   95SAPS   C31 9375   0.829   1.587   6.961  0.5137 -0.3748 -0.2529
   95SAPS   O32 9376   0.728   1.659   6.969  0.2325  0.3891 -0.0470
   95SAPS   C32 9377   0.970   1.611   7.021 -0.0488  0.6570  0.8670
   95SAPS   H2X 9378   0.989   1.719   7.008 -1.9217  0.9426  0.1889
   95SAPS   H2Y 9379   1.046   1.556   6.960  0.6250 -0.2495  2.4550
   95SAPS   C23 9380   1.056   1.134   7.035 -0.3121 -0.1617 -0.5679
   95SAPS   H3R 9381   1.134   1.205   7.002 -0.4919 -0.4476 -1.6575
   95SAPS   H3S 9382   1.117   1.049   7.073 -1.0272 -0.6444 -0.4789
   95SAPS   C24 9383   0.964   1.176   7.155  0.9798 -0.3375 -0.3122
   95SAPS   H4R 9384   0.890   1.097   7.178 -1.0086  0.8783 -2.1462
   95SAPS   H4S 9385   0.905   1.260   7.112  1.2938 -0.1128 -0.3137
   95SAPS   C25 9386   1.047   1.230   7.274 -0.5458  0.1417  0.0193
   95SAPS   H5R 9387   1.100   1.323   7.247 -0.3328  0.0911  0.2556
   95SAPS   C26 9388   1.079   1.159   7.380  0.2017 -1.0720 -0.5861
   95SAPS   H6R 9389   1.156   1.196   7.450 -1.7476 -1.0925  1.7003
   95SAPS   C27 9390   1.017   1.027   7.415 -0.9268  0.8287 -0.1923
   95SAPS   H7R 9391   1.040   0.967   7.324  1.4599 -0.2966  1.0602
   95SAPS   H7S 9392   0.906   1.031   7.423 -0.9443 -0.1530  0.2219
   95SAPS   C28 9393   1.071   0.958   7.535 -0.0566  0.9755  0.4126
   95SAPS   H8R 9394   1.172   0.917   7.518  0.2354  1.7775  0.1961
   95SAPS   C29 9395   1.005   0.921   7.647 -0.1944 -0.0113  0.0635
   95SAPS   H9R 9396   1.064   0.859   7.716 -0.7959 -2.6049 -1.6529
   95SAPS  C210 9397   0.864   0.958   7.680 -0.1636  0.3121 -0.7202
   95SAPS  H10R 9398   0.842   0.929   7.784 -1.6900  2.0586 -0.4958
   95SAPS  H10S 9399   0.799   0.894   7.616 -1.9569  2.2087 -0.9327
   95SAPS  C211 9400   0.835   1.100   7.675 -0.3386 -0.0585 -0.0491
   95SAPS  H11R 9401   0.915   1.175   7.688  0.0139 -0.4231 -0.1234
   95SAPS  C212 9402   0.725   1.159   7.629  0.3146  0.2870  0.1322
   95SAPS  H12R 9403   0.724   1.269   7.622 -0.1908  0.4150  1.8594
   95SAPS  C213 9404   0.612   1.080   7.573  0.4646 -0.5122 -0.4646
   95SAPS  H13R 9405   0.548   1.057   7.662  0.6920  0.1020 -0.1345
   95SAPS  H13S 9406   0.636   0.981   7.529  2.6637  0.4715 -1.6192
   95SAPS  C214 9407   0.524   1.158   7.484  0.1719 -0.6832  0.4621
   95SAPS  H14R 9408   0.448   1.218   7.537 -0.0987  1.1107 -1.7754
   95SAPS  C215 9409   0.538   1.180   7.350 -0.5522  0.2250  0.7156
   95SAPS  H15R 9410   0.465   1.243   7.297 -0.4782  0.5934  1.0497
   95SAPS  C216 9411   0.654   1.122   7.270 -0.0591 -0.5168 -0.0652
   95SAPS  H16R 9412   0.683   1.022   7.307 -0.0634 -1.0945 -1.5410
   95SAPS  H16S 9413   0.742   1.190   7.269 -1.2106  1.1197 -2.4733
   95SAPS  C217 9414   0.594   1.118   7.129 -0.0650 -0.2666  0.1280
   95SAPS  H17R 9415   0.680   1.088   7.065 -0.6473  0.2771 -0.9293
   95SAPS  H17S 9416   0.560   1.215   7.086  0.3474  0.1779  0.7781
   95SAPS  C218 9417   0.484   1.004   7.104 -0.0641 -0.1356 -0.3034
   95SAPS  H18R 9418   0.394   1.034   7.161  0.0629  0.0082 -0.1783
   95SAPS  H18S 9419   0.518   0.903   7.136  0.8297  0.5716  1.1000
   95SAPS  C219 9420   0.440   0.991   6.956 -0.0114  0.1385 -0.1972
   95SAPS  H19R 9421   0.415   1.093   6.919  2.3554  0.7668 -0.2581
   95SAPS  H19S 9422   0.347   0.931   6.953 -0.0875  0.0402  2.4077
   95SAPS  C220 9423   0.542   0.908   6.879  0.8898  0.1208 -0.4294
   95SAPS  H20R 9424   0.643   0.941   6.910  0.7279 -0.5549  0.8742
   95SAPS  H20S 9425   0.532   0.911   6.768  2.4338 -0.2576 -0.5944
   95SAPS  H20T 9426   0.528   0.803   6.913  1.8691  0.6146  1.6049
   95SAPS   C33 9427   0.978   1.572   7.169 -0.0778 -0.2453 -0.1340
   95SAPS   H3X 9428   1.083   1.555   7.201 -0.6271  0.1424  2.0179
   95SAPS   H3Y 9429   0.921   1.480   7.192 -1.2633  0.8042  1.3678
   95SAPS   C34 9430   0.915   1.690   7.250  0.4046 -1.1103 -0.2107
   95SAPS   H4X 9431   0.828   1.728   7.192  0.4732 -4.0211 -2.5108
   95SAPS   H4Y 9432   0.994   1.766   7.235  0.2259 -1.0174 -0.7073
   95SAPS   C35 9433   0.895   1.650   7.394 -0.6242  0.1887 -0.3031
   95SAPS   H5X 9434   0.847   1.550   7.404  2.1439 -1.5501 -2.8788
   95SAPS   H5Y 9435   0.831   1.733   7.431 -0.1605  0.3549  0.1331
   95SAPS   C36 9436   1.021   1.656   7.480 -0.6186 -0.0724 -0.1333
   95SAPS   H6X 9437   1.058   1.760   7.471  1.7896 -0.6920  1.7539
   95SAPS   H6Y 9438   1.106   1.596   7.442  0.3330  1.1640 -0.0305
   95SAPS   C37 9439   1.003   1.636   7.634 -0.2460 -0.0500 -0.1398
   95SAPS   H7X 9440   0.988   1.734   7.686 -0.0820  0.0287 -0.2408
   95SAPS   H7Y 9441   1.099   1.594   7.668 -0.8634 -1.9534 -0.6534
   95SAPS   C38 9442   0.883   1.544   7.671 -0.2595  0.0556  0.2718
   95SAPS   H8X 9443   0.884   1.449   7.613  0.1294  0.3927 -0.2844
   95SAPS   H8Y 9444   0.790   1.593   7.637  1.6873  0.6000 -5.1613
   95SAPS   C39 9445   0.865   1.501   7.822  0.0880 -0.2027  0.4715
   95SAPS   H9X 9446   0.773   1.438   7.820 -1.2232  1.6444  0.3962
   95SAPS   H9Y 9447   0.849   1.594   7.879  1.3687  0.7472 -0.6602
   95SAPS  C310 9448   0.994   1.435   7.886  0.4970 -0.4622 -0.0831
   95SAPS  H10X 9449   1.066   1.518   7.905  0.0655  0.4247 -2.0327
   95SAPS  H10Y 9450   1.042   1.360   7.819  2.7869  1.3093 -0.5410
   95SAPS  C311 9451   0.959   1.358   8.017 -0.0725 -0.0664 -0.1970
   95SAPS  H11X 9452   0.876   1.285   8.012 -0.7399  0.6885 -0.4986
   95SAPS  H11Y 9453   0.913   1.433   8.085  0.2739 -2.4691  2.8738
   95SAPS  C312 9454   1.074   1.289   8.089  0.5020  0.2706  0.6929
   95SAPS  H12X 9455   1.128   1.227   8.014 -1.3111 -1.4296  0.7121
   95SAPS  H12Y 9456   1.037   1.224   8.172  1.0534  0.3255  0.9874
   95SAPS  C313 9457   1.174   1.385   8.147 -0.1895  0.0338 -0.2156
   95SAPS  H13X 9458   1.126   1.438   8.232  1.4797 -3.5885  3.3211
   95SAPS  H13Y 9459   1.227   1.453   8.077  0.6519  0.7326  1.0726
   95SAPS  C314 9460   1.297   1.326   8.225  0.1627  0.8514  0.9852
   95SAPS  H14X 9461   1.269   1.254   8.305  2.7585 -1.4076  0.0258
   95SAPS  H14Y 9462   1.347   1.410   8.278  2.5158  1.0248 -1.3444
   95SAPS  C315 9463   1.403   1.253   8.140  0.8248 -0.3276  0.3982
   95SAPS  H15X 9464   1.446   1.316   8.060 -2.0460  0.0592 -0.9590
   95SAPS  H15Y 9465   1.346   1.165   8.102 -1.1888  0.8053  0.6392
   95SAPS  C316 9466   1.504   1.207   8.247  0.5570  0.0988 -0.2584
   95SAPS  H16X 9467   1.441   1.148   8.316  2.8105 -1.3822  0.6473
   95SAPS  H16Y 9468   1.541   1.295   8.303 -0.6526 -0.8298  2.1604
   95SAPS  C317 9469   1.610   1.114   8.183 -0.2488 -0.3106 -0.4390
   95SAPS  H17X 9470   1.672   1.172   8.112  1.1648 -1.1141  0.1066
   95SAPS  H17Y 9471   1.571   1.023   8.133  0.8506 -0.5974 -0.7803
   95SAPS  C318 9472   1.709   1.053   8.295  0.9048 -0.5098 -0.2961
   95SAPS  H18X 9473   1.776   1.136   8.326  0.1506  0.9089 -2.2331
   95SAPS  H18Y 9474   1.756   0.964   8.248 -0.4957 -0.4996 -1.8207
   95SAPS  H18Z 9475   1.641   1.010   8.372 -0.5523 -0.4128 -1.4713
   96SAPS     N 9476   1.197   2.534   6.056  0.1390  0.1552  0.9801
   96SAPS   HN1 9477   1.127   2.500   6.125  1.5037 -1.0657  1.8070
   96SAPS   HN2 9478   1.148   2.540   5.964 -1.1815 -2.2441  1.4623
   96SAPS   HN3 9479   1.269   2.459   6.052 -0.2488 -0.2402  1.4571
   96SAPS   C12 9480   1.266   2.666   6.079 -0.3035  0.3261 -0.7284
   96SAPS  H12A 9481   1.369   2.646   6.054  0.1661 -0.7839  1.7742
   96SAPS   C13 9482   1.203   2.787   6.003  0.3391 -0.4435 -0.1225
   96SAPS  O13A 9483   1.099   2.757   5.932  0.2391  0.1375 -0.0570
   96SAPS  O13B 9484   1.258   2.900   5.981  0.0448 -0.2843  0.6347
   96SAPS   C11 9485   1.264   2.691   6.233  0.1720  0.3265  0.5839
   96SAPS  H11A 9486   1.312   2.601   6.277  0.3769  0.0060 -0.2727
   96SAPS  H11B 9487   1.159   2.706   6.264 -0.4998  1.1825 -1.8448
   96SAPS     P 9488   1.345   2.904   6.386 -0.6481 -0.3281 -0.1314
   96SAPS   O13 9489   1.462   2.994   6.368  0.1339 -0.5734  0.4027
   96SAPS   O14 9490   1.207   2.964   6.403 -0.0380  0.6736  1.0088
   96SAPS   O12 9491   1.341   2.812   6.260 -0.5929  0.4697 -0.2537
   96SAPS   O11 9492   1.380   2.802   6.499  0.3682 -0.0397  0.3350
   96SAPS    C1 9493   1.482   2.706   6.481 -0.2923  0.5471 -0.1731
   96SAPS    HA 9494   1.458   2.604   6.444  3.5417 -1.2767  1.7923
   96SAPS    HB 9495   1.561   2.742   6.412 -0.5073  2.2415  0.4170
   96SAPS    C2 9496   1.563   2.700   6.618  0.5182 -0.2532 -0.2745
   96SAPS    HS 9497   1.648   2.632   6.595 -0.7603 -1.4321 -1.7303
   96SAPS   O21 9498   1.472   2.661   6.722 -0.1058  0.6615  0.0519
   96SAPS   C21 9499   1.428   2.543   6.717 -0.5875  0.2044 -0.3996
   96SAPS   O22 9500   1.442   2.450   6.635  0.0993 -0.1549  0.5039
   96SAPS   C22 9501   1.332   2.511   6.833 -0.2145 -0.4518  0.2298
   96SAPS   H2R 9502   1.347   2.592   6.908  0.0126 -0.1022 -0.1906
   96SAPS   H2S 9503   1.230   2.526   6.791 -0.4695  0.6751  1.1924
   96SAPS    C3 9504   1.621   2.837   6.656  0.3796 -0.3174 -0.1225
   96SAPS    HX 9505   1.522   2.886   6.670 -0.4908 -2.6550  2.7463
   96SAPS    HY 9506   1.687   2.888   6.582  1.5457 -0.6090  0.6913
   96SAPS   O31 9507   1.686   2.837   6.786 -0.2097 -0.3947  0.7981
   96SAPS   C31 9508   1.719   2.966   6.821 -0.0238  0.0003  0.5209
   96SAPS   O32 9509   1.700   3.061   6.751  0.0204  0.0709 -0.8830
   96SAPS   C32 9510   1.786   2.975   6.961 -0.0608  0.4337  0.0277
   96SAPS   H2X 9511   1.868   2.902   6.944 -0.2508 -0.0283  0.9965
   96SAPS   H2Y 9512   1.724   2.934   7.044  2.5175 -0.4173  1.6429
   96SAPS   C23 9513   1.342   2.366   6.890 -0.1213 -0.1952  0.5265
   96SAPS   H3R 9514   1.450   2.351   6.910  0.6912  3.3328 -0.5529
   96SAPS   H3S 9515   1.303   2.295   6.814  0.5496  0.2197 -0.2127
   96SAPS   C24 9516   1.266   2.337   7.014  0.2581 -0.4935  0.3716
   96SAPS   H4R 9517   1.159   2.332   6.983  0.6280  0.1891 -1.1038
   96SAPS   H4S 9518   1.288   2.423   7.081 -2.2142 -1.0025  1.9719
   96SAPS   C25 9519   1.296   2.204   7.085  0.1772  0.3524  0.8035
   96SAPS   H5R 9520   1.243   2.116   7.047  2.0821 -0.3888 -0.2626
   96SAPS   C26 9521   1.387   2.177   7.177  0.0995 -0.1174  0.3932
   96SAPS   H6R 9522   1.400   2.074   7.213 -0.4010 -1.1269 -2.1002
   96SAPS   C27 9523   1.491   2.270   7.229 -0.2727 -0.0909 -0.4704
   96SAPS   H7R 9524   1.459   2.312   7.327  1.5032 -0.4737  0.3049
   96SAPS   H7S 9525   1.502   2.363   7.170  0.2138  0.5917  0.6576
   96SAPS   C28 9526   1.629   2.222   7.240  0.1161 -0.5420 -0.4819
   96SAPS   H8R 9527   1.686   2.220   7.146  0.3284 -1.2328 -0.3489
   96SAPS   C29 9528   1.686   2.184   7.357  0.3337  0.1679 -0.2575
   96SAPS   H9R 9529   1.791   2.155   7.345  0.2899  0.5495 -1.7899
   96SAPS  C210 9530   1.616   2.169   7.492 -0.4148 -0.0870  0.8157
   96SAPS  H10R 9531   1.519   2.123   7.466  0.2514  0.3891 -3.1764
   96SAPS  H10S 9532   1.598   2.266   7.544 -0.0524  0.4633 -0.0598
   96SAPS  C211 9533   1.698   2.073   7.572  0.3341  0.4113  0.1801
   96SAPS  H11R 9534   1.718   1.978   7.522 -1.0720 -0.0737  0.4981
   96SAPS  C212 9535   1.735   2.089   7.699  0.5104  0.5690 -0.1553
   96SAPS  H12R 9536   1.789   2.004   7.744  0.3227  0.0095 -0.9590
   96SAPS  C213 9537   1.710   2.204   7.794  0.0200 -0.4754 -0.4143
   96SAPS  H13R 9538   1.683   2.299   7.743 -2.3411  0.2923  2.0711
   96SAPS  H13S 9539   1.803   2.242   7.842 -0.3578 -0.9018  0.6674
   96SAPS  C214 9540   1.601   2.182   7.894 -0.1143  0.5866  0.0342
   96SAPS  H14R 9541   1.502   2.173   7.847 -0.5572  1.3403  0.7962
   96SAPS  C215 9542   1.610   2.180   8.030 -0.0083  0.2473 -0.0009
   96SAPS  H15R 9543   1.520   2.170   8.093  0.2925  0.8334  0.5398
   96SAPS  C216 9544   1.738   2.190   8.113 -0.3314 -0.9135 -0.5372
   96SAPS  H16R 9545   1.830   2.173   8.054  0.2977  0.6607 -0.0791
   96SAPS  H16S 9546   1.746   2.106   8.185  0.0882 -0.4486 -0.0272
   96SAPS  C217 9547   1.731   2.329   8.185 -0.1125 -0.1283  0.0852
   96SAPS  H17R 9548   1.636   2.371   8.225 -1.1929 -3.0105  0.8343
   96SAPS  H17S 9549   1.762   2.393   8.099 -1.7562  2.7600  1.4972
   96SAPS  C218 9550   1.845   2.356   8.286  0.0204 -0.1413  0.1479
   96SAPS  H18R 9551   1.881   2.460   8.271 -0.6703 -0.1538 -1.9212
   96SAPS  H18S 9552   1.933   2.291   8.267  0.0025  0.2469 -1.4364
   96SAPS  C219 9553   1.786   2.333   8.424 -0.5629 -0.9712  0.3413
   96SAPS  H19R 9554   1.733   2.236   8.419 -3.4933  0.5165  0.4796
   96SAPS  H19S 9555   1.714   2.414   8.450 -0.3144 -0.9275  0.9224
   96SAPS  C220 9556   1.888   2.339   8.537  0.4342  0.5219 -0.3143
   96SAPS  H20R 9557   1.851   2.330   8.642 -1.4048  0.3700 -0.9446
   96SAPS  H20S 9558   1.947   2.433   8.526  0.3374  0.3932 -2.2817
   96SAPS  H20T 9559   1.965   2.261   8.518  1.0730  1.4149 -1.4896
   96SAPS   C33 9560   1.837   3.117   6.992 -0.4369  0.4536 -0.3020
   96SAPS   H3X 9561   1.894   3.165   6.910 -2.1168 -0.0738 -1.8441
   96SAPS   H3Y 9562   1.917   3.113   7.069  0.5177 -0.6125 -1.3009
   96SAPS   C34 9563   1.722   3.206   7.036 -0.3065  0.4388  0.3215
   96SAPS   H4X 9564   1.644   3.148   7.089 -3.3586  2.5408 -1.5729
   96SAPS   H4Y 9565   1.673   3.244   6.944  0.7876 -2.0408 -1.3888
   96SAPS   C35 9566   1.759   3.313   7.141  0.0709 -0.1249  0.2550
   96SAPS   H5X 9567   1.813   3.250   7.215 -1.6587 -0.3089  1.4268
   96SAPS   H5Y 9568   1.663   3.343   7.189 -0.8513  0.2867 -1.7406
   96SAPS   C36 9569   1.847   3.431   7.086  0.9504  0.6655  0.0796
   96SAPS   H6X 9570   1.777   3.515   7.066  0.0209  0.5843  2.6136
   96SAPS   H6Y 9571   1.891   3.416   6.986  1.3896  2.1809  0.0181
   96SAPS   C37 9572   1.957   3.467   7.186 -0.5729 -0.3054  0.7231
   96SAPS   H7X 9573   2.019   3.549   7.143  0.1166 -0.6144  1.1160
   96SAPS   H7Y 9574   2.030   3.385   7.200 -0.7691 -0.9519 -1.5929
   96SAPS   C38 9575   1.903   3.515   7.325  0.9806 -0.7049  0.5214
   96SAPS   H8X 9576   1.847   3.437   7.382  0.6499 -0.7708  0.1095
   96SAPS   H8Y 9577   1.823   3.588   7.301  0.1376 -2.1971 -1.5183
   96SAPS   C39 9578   2.015   3.564   7.417  0.4588  0.0901 -0.4373
   96SAPS   H9X 9579   2.092   3.622   7.360  0.2799 -0.8608 -1.6873
   96SAPS   H9Y 9580   2.060   3.473   7.462  0.5185  0.7384  0.8549
   96SAPS  C310 9581   1.952   3.640   7.534 -0.2964 -0.6133  0.2537
   96SAPS  H10X 9582   1.904   3.558   7.591 -2.6028  0.2214 -0.3950
   96SAPS  H10Y 9583   1.876   3.715   7.504  0.3020  0.6709  1.8444
   96SAPS  C311 9584   2.044   3.716   7.636  0.5243 -0.3798  0.6415
   96SAPS  H11X 9585   2.079   3.805   7.579 -1.5317  0.9965  1.4196
   96SAPS  H11Y 9586   2.128   3.654   7.677  0.4870 -0.6771  0.2689
   96SAPS  C312 9587   1.969   3.772   7.757  0.1614 -0.3484 -0.6041
   96SAPS  H12X 9588   1.875   3.715   7.774 -0.8093  0.6507 -2.3336
   96SAPS  H12Y 9589   1.931   3.874   7.736  1.1753  0.1047 -0.3098
   96SAPS  C313 9590   2.047   3.781   7.888 -0.5756  0.1220 -0.4204
   96SAPS  H13X 9591   2.142   3.832   7.860 -1.4159  1.0372 -1.7380
   96SAPS  H13Y 9592   2.070   3.682   7.933 -1.1413  0.2159  0.0859
   96SAPS  C314 9593   1.976   3.870   7.979  0.4600 -0.3449  0.0278
   96SAPS  H14X 9594   1.871   3.840   8.000  0.1814  1.5943  1.7638
   96SAPS  H14Y 9595   1.968   3.972   7.936 -0.7292 -0.0136  0.9508
   96SAPS  C315 9596   2.048   3.884   8.113 -0.6304  0.2243 -0.2881
   96SAPS  H15X 9597   2.141   3.944   8.103 -0.5342  0.0303 -0.5837
   96SAPS  H15Y 9598   2.068   3.777   8.134  0.5097  0.4228 -0.2909
   96SAPS  C316 9599   1.964   3.950   8.223 -0.4636 -0.2078  0.1319
   96SAPS  H16X 9600   1.873   3.888   8.233  0.1221 -1.2729 -0.9618
   96SAPS  H16Y 9601   1.930   4.047   8.179  2.4560 -0.2613 -2.6135
   96SAPS  C317 9602   2.044   3.981   8.348 -0.1857  0.5468  0.3792
   96SAPS  H17X 9603   1.978   4.028   8.425  0.0242  0.1760  0.7850
   96SAPS  H17Y 9604   2.114   4.064   8.323 -2.1369  2.8322  1.9705
   96SAPS  C318 9605   2.112   3.856   8.409 -0.8044  0.9152 -0.4306
   96SAPS  H18X 9606   2.190   3.887   8.482 -0.2507 -0.7834 -0.2598
   96SAPS  H18Y 9607   2.155   3.794   8.327 -1.6219 -0.6037  0.2444
   96SAPS  H18Z 9608   2.040   3.782   8.451  0.0329  0.5743  0.4425
   97SAPS     N 9609   3.062   1.466   6.212 -0.5721  0.6298  0.4453
   97SAPS   HN1 9610   2.981   1.459   6.148  0.0621  1.8073 -0.5275
   97SAPS   HN2 9611   3.120   1.380   6.214 -1.4005  0.0782  2.0717
   97SAPS   HN3 9612   3.025   1.482   6.308 -2.5944  0.8302 -0.3189
   97SAPS   C12 9613   3.145   1.574   6.155 -0.6990 -0.1485  0.0106
   97SAPS  H12A 9614   3.216   1.536   6.083  1.4415  2.8538  0.3625
   97SAPS   C13 9615   3.056   1.686   6.080  0.0849 -0.1143 -0.3342
   97SAPS  O13A 9616   2.929   1.676   6.080  0.5387 -0.0730 -0.6427
   97SAPS  O13B 9617   3.104   1.800   6.070  0.2339 -0.3335 -0.5779
   97SAPS   C11 9618   3.225   1.641   6.266 -0.4093  0.1504 -0.0084
   97SAPS  H11A 9619   3.164   1.705   6.334  0.1170  0.6860 -0.0322
   97SAPS  H11B 9620   3.298   1.713   6.223  0.7079 -0.6246  0.5309
   97SAPS     P 9621   3.424   1.579   6.429  0.0853 -0.0947 -0.2386
   97SAPS   O13 9622   3.544   1.533   6.366  0.0501  0.0028  0.8167
   97SAPS   O14 9623   3.424   1.725   6.454 -0.1855  0.0791 -0.0931
   97SAPS   O12 9624   3.300   1.542   6.343  0.0009 -0.2223  0.0411
   97SAPS   O11 9625   3.411   1.493   6.559 -0.0981  0.0936  0.1098
   97SAPS    C1 9626   3.281   1.467   6.624 -0.1808  0.5036 -0.4678
   97SAPS    HA 9627   3.204   1.441   6.548 -0.3376  0.8230 -0.4180
   97SAPS    HB 9628   3.293   1.380   6.692  2.7942  0.4136 -0.9662
   97SAPS    C2 9629   3.224   1.583   6.718 -0.1004  0.2080 -0.1538
   97SAPS    HS 9630   3.187   1.668   6.657 -0.6397  0.8893  1.0923
   97SAPS   O21 9631   3.330   1.626   6.806  0.4357 -0.1915 -0.2057
   97SAPS   C21 9632   3.320   1.758   6.839 -0.5642 -0.1414 -0.5606
   97SAPS   O22 9633   3.223   1.828   6.814 -1.0662 -0.0508  0.1469
   97SAPS   C22 9634   3.452   1.790   6.915  0.0695  0.2680  0.2013
   97SAPS   H2R 9635   3.537   1.784   6.843  0.3637  0.8818  0.4889
   97SAPS   H2S 9636   3.451   1.898   6.943 -2.1246  0.0426  1.2231
   97SAPS    C3 9637   3.105   1.523   6.798 -0.3930 -0.1455  0.2450
   97SAPS    HX 9638   3.027   1.478   6.733  1.7208 -2.8140 -0.6167
   97SAPS    HY 9639   3.055   1.605   6.855 -0.4761  1.1182 -1.5648
   97SAPS   O31 9640   3.158   1.418   6.885  0.5482  0.3209  0.7965
   97SAPS   C31 9641   3.158   1.427   7.015  0.5191  0.6143  0.3117
   97SAPS   O32 9642   3.110   1.516   7.079  0.0148 -0.3822  0.7248
   97SAPS   C32 9643   3.202   1.292   7.073  0.2178 -0.0789  0.6814
   97SAPS   H2X 9644   3.288   1.272   7.005 -2.2729  1.2355 -3.1862
   97SAPS   H2Y 9645   3.123   1.220   7.042 -0.1780  0.8420 -0.5555
   97SAPS   C23 9646   3.485   1.697   7.032  0.3842 -0.2157 -0.1724
   97SAPS   H3R 9647   3.594   1.701   7.054  1.1454 -3.2168 -2.7516
   97SAPS   H3S 9648   3.459   1.594   6.999  0.8441  0.2801 -2.1927
   97SAPS   C24 9649   3.407   1.731   7.155 -0.1770  0.1364  0.2153
   97SAPS   H4R 9650   3.401   1.652   7.232 -2.9507  3.3610  3.7231
   97SAPS   H4S 9651   3.302   1.733   7.122 -0.3827  0.8011  0.8625
   97SAPS   C25 9652   3.437   1.864   7.223  0.2878  0.8758 -0.3376
   97SAPS   H5R 9653   3.453   1.943   7.148  1.6851  0.0147 -0.9929
   97SAPS   C26 9654   3.456   1.882   7.350  0.5660  0.1749 -0.5785
   97SAPS   H6R 9655   3.489   1.981   7.384 -2.7661  0.8243  1.1035
   97SAPS   C27 9656   3.431   1.766   7.446  0.2649 -0.2139 -0.0454
   97SAPS   H7R 9657   3.526   1.721   7.483 -0.1560 -0.6581  0.5050
   97SAPS   H7S 9658   3.372   1.682   7.403 -0.1498 -0.0741  0.2441
   97SAPS   C28 9659   3.361   1.832   7.565  0.3329 -0.5908 -0.4211
   97SAPS   H8R 9660   3.251   1.839   7.568  0.3302 -0.7967  0.2038
   97SAPS   C29 9661   3.419   1.906   7.659 -0.2158  1.3797  0.1700
   97SAPS   H9R 9662   3.357   1.961   7.732  0.9533  2.2769  0.5202
   97SAPS  C210 9663   3.570   1.921   7.677  0.3001  0.2841  0.1554
   97SAPS  H10R 9664   3.606   2.015   7.630  2.0790 -0.5429 -0.2445
   97SAPS  H10S 9665   3.620   1.844   7.614 -1.6102 -1.8140  1.0908
   97SAPS  C211 9666   3.622   1.904   7.820 -0.2075  0.4803 -0.1306
   97SAPS  H11R 9667   3.540   1.901   7.893 -1.3527 -2.3184 -1.3936
   97SAPS  C212 9668   3.751   1.907   7.862  0.1891 -0.1065  1.1614
   97SAPS  H12R 9669   3.769   1.894   7.970 -0.1499  2.8637  1.6596
   97SAPS  C213 9670   3.874   1.915   7.782  0.0590 -0.1422  0.5507
   97SAPS  H13R 9671   3.858   1.882   7.677 -1.5937 -0.1026  0.7707
   97SAPS  H13S 9672   3.936   1.832   7.822  1.5176  0.6492  0.0353
   97SAPS  C214 9673   3.932   2.057   7.782  0.0702  0.5820  0.6881
   97SAPS  H14R 9674   3.886   2.126   7.710 -1.9917 -0.6055  0.7805
   97SAPS  C215 9675   4.025   2.116   7.860 -0.3528  0.2858  0.2198
   97SAPS  H15R 9676   4.054   2.219   7.836 -0.7302  0.0259 -1.4806
   97SAPS  C216 9677   4.097   2.038   7.962  0.2585  0.6326 -1.1820
   97SAPS  H16R 9678   4.188   1.988   7.923  2.2144  2.0555  1.2514
   97SAPS  H16S 9679   4.027   1.972   8.018  0.1003  2.1725  0.5223
   97SAPS  C217 9680   4.144   2.138   8.066 -0.4404 -0.1459 -0.0704
   97SAPS  H17R 9681   4.052   2.189   8.104 -0.6566 -0.3151 -0.3605
   97SAPS  H17S 9682   4.205   2.217   8.017 -0.9854 -0.6619 -1.6341
   97SAPS  C218 9683   4.230   2.070   8.181 -0.2753 -0.9220 -0.0380
   97SAPS  H18R 9684   4.319   2.015   8.143 -1.2417 -1.4472 -1.6593
   97SAPS  H18S 9685   4.176   1.988   8.232  0.7989 -1.1436  0.7714
   97SAPS  C219 9686   4.276   2.166   8.301 -0.7335 -0.1725  1.1087
   97SAPS  H19R 9687   4.346   2.247   8.272  2.0491 -1.9623  2.4732
   97SAPS  H19S 9688   4.348   2.112   8.366  1.1557  0.1955 -0.5945
   97SAPS  C220 9689   4.155   2.217   8.373 -0.2384 -0.5667  0.1918
   97SAPS  H20R 9690   4.086   2.137   8.408  0.8067 -1.0797  1.1180
   97SAPS  H20S 9691   4.097   2.270   8.293 -0.1002 -1.2004 -0.3352
   97SAPS  H20T 9692   4.171   2.283   8.461  0.2031 -0.9429  0.3939
   97SAPS   C33 9693   3.247   1.296   7.227  0.8585 -0.4005  0.0947
   97SAPS   H3X 9694   3.295   1.391   7.257 -0.2693 -0.1000  1.0372
   97SAPS   H3Y 9695   3.301   1.201   7.249  1.8374 -0.6446 -3.0115
   97SAPS   C34 9696   3.117   1.291   7.313 -0.3577  0.6255 -0.4124
   97SAPS   H4X 9697   3.060   1.198   7.291  0.4340  0.1650 -0.5614
   97SAPS   H4Y 9698   3.054   1.381   7.299 -0.0211  0.7546 -1.1409
   97SAPS   C35 9699   3.152   1.281   7.460 -0.6315 -0.0211 -0.0391
   97SAPS   H5X 9700   3.211   1.187   7.470  0.3263  0.5709  0.0305
   97SAPS   H5Y 9701   3.059   1.264   7.518 -0.4319 -1.4674 -0.1224
   97SAPS   C36 9702   3.222   1.405   7.522 -0.2145  0.3005  0.3070
   97SAPS   H6X 9703   3.165   1.489   7.477  2.1375  0.6069 -2.3752
   97SAPS   H6Y 9704   3.328   1.411   7.490  1.1338 -1.9673  3.7730
   97SAPS   C37 9705   3.215   1.397   7.671  0.0423  0.0229 -0.0647
   97SAPS   H7X 9706   3.247   1.293   7.692  1.6310  0.2350 -1.2699
   97SAPS   H7Y 9707   3.114   1.418   7.713  0.7686 -1.2541  2.5343
   97SAPS   C38 9708   3.308   1.495   7.748  0.0759  1.0721 -0.7015
   97SAPS   H8X 9709   3.266   1.596   7.734 -0.7742  0.9251  0.6643
   97SAPS   H8Y 9710   3.412   1.495   7.706  0.5581  1.6031  0.4620
   97SAPS   C39 9711   3.307   1.455   7.895  0.4178 -0.1447  0.3085
   97SAPS   H9X 9712   3.354   1.542   7.945  0.1641  0.5583 -0.6548
   97SAPS   H9Y 9713   3.357   1.357   7.912 -2.3154 -1.2491  2.9664
   97SAPS  C310 9714   3.162   1.436   7.946  0.0571  0.2254 -0.6554
   97SAPS  H10X 9715   3.122   1.342   7.902  0.5560 -0.0992 -0.4159
   97SAPS  H10Y 9716   3.100   1.525   7.922 -0.2366 -0.2925 -1.9136
   97SAPS  C311 9717   3.132   1.417   8.094  1.0399  0.5267 -0.5073
   97SAPS  H11X 9718   3.022   1.400   8.100  1.1916  0.0408  1.2665
   97SAPS  H11Y 9719   3.145   1.517   8.142  2.0030  0.0990  0.1495
   97SAPS  C312 9720   3.191   1.284   8.147  0.4976  0.1685 -0.6411
   97SAPS  H12X 9721   3.301   1.299   8.136  0.5647 -0.5843 -1.0198
   97SAPS  H12Y 9722   3.157   1.192   8.095 -0.0372  0.3134 -0.5526
   97SAPS  C313 9723   3.139   1.280   8.298 -0.1290 -0.0456  0.1352
   97SAPS  H13X 9724   3.029   1.298   8.297  0.1776  2.1129 -1.5141
   97SAPS  H13Y 9725   3.179   1.372   8.346  0.4971 -0.1807 -0.1285
   97SAPS  C314 9726   3.185   1.157   8.374 -0.7960 -0.6216 -0.0611
   97SAPS  H14X 9727   3.292   1.176   8.397 -0.7904 -0.6629 -0.0529
   97SAPS  H14Y 9728   3.176   1.067   8.309  0.4548 -0.5770 -0.3300
   97SAPS  C315 9729   3.110   1.134   8.496 -0.2203 -0.7416 -0.6905
   97SAPS  H15X 9730   3.004   1.132   8.464 -1.0918  1.7142  1.6463
   97SAPS  H15Y 9731   3.125   1.222   8.563 -0.4337 -0.8773 -0.4613
   97SAPS  C316 9732   3.151   0.997   8.562  0.2620  0.2699  0.6723
   97SAPS  H16X 9733   3.186   0.941   8.473 -0.2501  1.0735 -0.0500
   97SAPS  H16Y 9734   3.058   0.950   8.603  1.5305 -1.2109  1.9663
   97SAPS  C317 9735   3.260   1.024   8.668 -0.7107 -0.1139  0.2703
   97SAPS  H17X 9736   3.216   1.105   8.729 -1.2008  1.7595 -2.4016
   97SAPS  H17Y 9737   3.350   1.052   8.608 -2.1612 -1.4410 -2.7214
   97SAPS  C318 9738   3.272   0.894   8.749 -0.3787 -0.8944  0.1265
   97SAPS  H18X 9739   3.174   0.874   8.798 -0.2301  0.3517  0.9719
   97SAPS  H18Y 9740   3.340   0.916   8.833  1.5802 -0.0016 -1.6053
   97SAPS  H18Z 9741   3.308   0.805   8.692  1.4070 -0.4867  0.5752
   98SAPS     N 9742   6.743   1.336   6.003  0.1824  0.2942 -0.9433
   98SAPS   HN1 9743   6.787   1.401   5.935  1.7138  0.1034 -0.1662
   98SAPS   HN2 9744   6.673   1.399   6.048  0.7237  1.9037 -2.2658
   98SAPS   HN3 9745   6.807   1.304   6.078 -0.0805 -0.2397 -0.9455
   98SAPS   C12 9746   6.665   1.223   5.946  0.0698 -0.1791 -0.0947
   98SAPS  H12A 9747   6.623   1.261   5.854 -2.2296  0.1491  1.0043
   98SAPS   C13 9748   6.739   1.098   5.913 -0.0316  0.0205 -0.8285
   98SAPS  O13A 9749   6.848   1.078   5.969 -0.1491 -0.4085  0.5505
   98SAPS  O13B 9750   6.680   1.007   5.849 -0.3980 -0.6402 -0.2612
   98SAPS   C11 9751   6.543   1.201   6.048  0.2637 -0.1193  0.4962
   98SAPS  H11A 9752   6.586   1.154   6.139 -1.2390 -1.5972  0.4982
   98SAPS  H11B 9753   6.466   1.132   6.007 -0.2768  0.3544  0.6997
   98SAPS     P 9754   6.399   1.369   6.192  0.6765 -0.1526  0.2921
   98SAPS   O13 9755   6.323   1.482   6.150 -0.5337  0.3463  0.5378
   98SAPS   O14 9756   6.330   1.250   6.248 -0.5010 -0.2765  0.2114
   98SAPS   O12 9757   6.495   1.333   6.071  0.0943 -0.6375 -0.2264
   98SAPS   O11 9758   6.509   1.420   6.291 -0.2460 -0.1505 -0.8046
   98SAPS    C1 9759   6.611   1.337   6.336 -0.5269  0.9167  0.5475
   98SAPS    HA 9760   6.581   1.231   6.335  0.4565  0.6295 -0.4299
   98SAPS    HB 9761   6.696   1.349   6.266  1.3848 -1.1985  2.3336
   98SAPS    C2 9762   6.663   1.365   6.477  0.0210  0.5852 -0.1490
   98SAPS    HS 9763   6.715   1.274   6.513 -1.0384 -0.3802 -0.9744
   98SAPS   O21 9764   6.552   1.388   6.571  0.0765  0.9698 -0.0873
   98SAPS   C21 9765   6.479   1.279   6.596  0.0729 -0.6239  0.0245
   98SAPS   O22 9766   6.505   1.160   6.568 -0.1737 -0.7469 -0.3799
   98SAPS   C22 9767   6.362   1.322   6.673 -0.7399  0.2441  0.0300
   98SAPS   H2R 9768   6.375   1.431   6.692  1.3492  0.5904 -2.7443
   98SAPS   H2S 9769   6.274   1.317   6.605 -1.0882 -2.6515  0.5719
   98SAPS    C3 9770   6.755   1.488   6.478 -0.3743 -0.7530 -0.0037
   98SAPS    HX 9771   6.680   1.569   6.462  0.6357 -0.1962 -2.1863
   98SAPS    HY 9772   6.827   1.487   6.394 -1.7951  1.9878 -1.3798
   98SAPS   O31 9773   6.818   1.508   6.603 -0.1091  0.3953  0.1814
   98SAPS   C31 9774   6.949   1.535   6.610 -0.0252  0.9182  0.4741
   98SAPS   O32 9775   7.020   1.555   6.509  0.3237  0.0191  0.2837
   98SAPS   C32 9776   6.998   1.549   6.750 -0.0020  0.2007 -0.7374
   98SAPS   H2X 9777   6.920   1.557   6.828  1.8699  0.1228  1.2174
   98SAPS   H2Y 9778   7.046   1.649   6.756 -0.6510  0.5217 -0.7400
   98SAPS   C23 9779   6.340   1.250   6.798 -0.2949  0.6834 -0.1027
   98SAPS   H3R 9780   6.312   1.144   6.781  1.5201 -0.6141  3.6330
   98SAPS   H3S 9781   6.258   1.296   6.857  0.0999  2.7035 -1.0526
   98SAPS   C24 9782   6.455   1.250   6.899  0.0373 -0.3044 -0.5447
   98SAPS   H4R 9783   6.547   1.200   6.862  0.4860  0.0924  0.0083
   98SAPS   H4S 9784   6.422   1.170   6.969 -1.0599 -2.0915 -2.9880
   98SAPS   C25 9785   6.477   1.383   6.969 -0.2907  0.3800 -0.7972
   98SAPS   H5R 9786   6.523   1.454   6.898 -0.1884 -0.1086 -1.2298
   98SAPS   C26 9787   6.450   1.414   7.098  0.5755  0.3598 -0.6635
   98SAPS   H6R 9788   6.482   1.514   7.132  0.0289  0.4323 -0.3661
   98SAPS   C27 9789   6.376   1.335   7.203 -0.1453 -0.9433  0.1667
   98SAPS   H7R 9790   6.432   1.326   7.299  1.0477 -0.1645 -0.4405
   98SAPS   H7S 9791   6.355   1.231   7.170 -0.2492 -0.8061 -0.2046
   98SAPS   C28 9792   6.246   1.396   7.240 -0.1528 -0.4396  0.6181
   98SAPS   H8R 9793   6.163   1.363   7.175  1.3283 -0.5421 -1.3222
   98SAPS   C29 9794   6.223   1.490   7.340 -0.1336 -0.4785  0.4483
   98SAPS   H9R 9795   6.120   1.528   7.341  0.4677  1.2220  0.8901
   98SAPS  C210 9796   6.320   1.548   7.431 -0.0933 -1.1324  0.2853
   98SAPS  H10R 9797   6.273   1.645   7.460  1.3894 -0.4953  0.6724
   98SAPS  H10S 9798   6.412   1.575   7.374 -0.4982 -1.2172 -0.4119
   98SAPS  C211 9799   6.373   1.471   7.547  0.2132  0.2316  0.3341
   98SAPS  H11R 9800   6.468   1.417   7.531  0.0340 -0.0673  0.2772
   98SAPS  C212 9801   6.310   1.460   7.666  0.2452 -0.2207 -0.3264
   98SAPS  H12R 9802   6.354   1.413   7.755 -0.5807  0.1248  0.2845
   98SAPS  C213 9803   6.179   1.530   7.699  0.1676  0.2331 -0.0211
   98SAPS  H13R 9804   6.164   1.607   7.621  1.2851 -0.4246 -0.9180
   98SAPS  H13S 9805   6.191   1.581   7.797 -1.1775 -0.4673  0.5285
   98SAPS  C214 9806   6.062   1.434   7.690 -0.1412  0.0983  0.5311
   98SAPS  H14R 9807   6.037   1.388   7.594 -1.3467  0.6389  0.5772
   98SAPS  C215 9808   5.988   1.401   7.792  0.2170  0.3073  0.6471
   98SAPS  H15R 9809   5.912   1.326   7.765  1.4680 -0.6456 -0.3715
   98SAPS  C216 9810   5.985   1.448   7.940  0.4218  0.6476 -0.3669
   98SAPS  H16R 9811   5.887   1.476   7.984 -0.3211  1.6735 -2.5366
   98SAPS  H16S 9812   6.042   1.543   7.936 -0.1638  0.9674 -1.7949
   98SAPS  C217 9813   6.056   1.355   8.037 -0.3230  0.5816  0.0251
   98SAPS  H17R 9814   6.156   1.322   7.999  1.0264  2.2246  1.9234
   98SAPS  H17S 9815   5.995   1.262   8.048 -0.2459  0.2690 -1.8852
   98SAPS  C218 9816   6.085   1.404   8.181  0.5655  0.0199 -0.6263
   98SAPS  H18R 9817   5.988   1.414   8.234  1.9641  3.4617  1.6932
   98SAPS  H18S 9818   6.126   1.507   8.174 -1.1569  0.7007 -1.2204
   98SAPS  C219 9819   6.180   1.309   8.250 -0.0244  0.6413 -0.2476
   98SAPS  H19R 9820   6.279   1.290   8.204  1.3650 -2.7445  3.4459
   98SAPS  H19S 9821   6.129   1.212   8.269 -0.6945  1.3372  1.7520
   98SAPS  C220 9822   6.219   1.365   8.389 -0.6548  0.2393  0.3282
   98SAPS  H20R 9823   6.297   1.302   8.437 -0.4015 -0.6693 -1.2147
   98SAPS  H20S 9824   6.128   1.351   8.452 -0.0558 -2.6676  0.6978
   98SAPS  H20T 9825   6.246   1.472   8.380 -1.2700  0.2424 -2.1387
   98SAPS   C33 9826   7.106   1.439   6.773  0.2953  0.4026 -0.3572
   98SAPS   H3X 9827   7.204   1.454   6.722  0.6495 -0.5102  0.0332
   98SAPS   H3Y 9828   7.071   1.337   6.748  1.9288 -0.1691 -0.4289
   98SAPS   C34 9829   7.127   1.417   6.919 -0.6869  0.0326 -0.0354
   98SAPS   H4X 9830   7.189   1.325   6.920  0.5429  0.7992 -1.4329
   98SAPS   H4Y 9831   7.026   1.394   6.957 -0.2832 -2.8297 -0.4868
   98SAPS   C35 9832   7.187   1.535   7.000  0.4123  0.1651  0.3159
   98SAPS   H5X 9833   7.121   1.624   6.995  1.0087  0.7031  1.6132
   98SAPS   H5Y 9834   7.289   1.561   6.965  1.1017  0.0874  2.1572
   98SAPS   C36 9835   7.186   1.507   7.156  0.3306  0.2393  0.4375
   98SAPS   H6X 9836   7.208   1.398   7.166 -0.1231  0.3102  2.7202
   98SAPS   H6Y 9837   7.086   1.538   7.195 -0.8024  0.5431 -2.4692
   98SAPS   C37 9838   7.310   1.570   7.216 -0.0524  0.0807  0.3355
   98SAPS   H7X 9839   7.312   1.673   7.175  0.0347  0.2048  0.6511
   98SAPS   H7Y 9840   7.393   1.509   7.174  0.4808  0.2694  1.1148
   98SAPS   C38 9841   7.326   1.568   7.369 -0.0507 -0.0052 -0.0332
   98SAPS   H8X 9842   7.415   1.631   7.393  0.1266  0.2399 -1.2609
   98SAPS   H8Y 9843   7.334   1.464   7.407 -2.9666 -1.0521 -1.9626
   98SAPS   C39 9844   7.205   1.627   7.450  0.1319  0.1738  0.0211
   98SAPS   H9X 9845   7.109   1.571   7.442  0.2303 -0.2368  1.4259
   98SAPS   H9Y 9846   7.180   1.721   7.397 -1.1892 -1.1661 -1.8829
   98SAPS  C310 9847   7.238   1.644   7.597 -0.0599  0.3229 -0.2623
   98SAPS  H10X 9848   7.151   1.697   7.642  0.8614 -0.0057  2.0359
   98SAPS  H10Y 9849   7.328   1.705   7.621  0.1764 -0.1094 -0.0505
   98SAPS  C311 9850   7.246   1.515   7.683 -0.0963  0.3901 -0.0272
   98SAPS  H11X 9851   7.342   1.465   7.657  0.1382 -0.4090  2.1926
   98SAPS  H11Y 9852   7.152   1.457   7.680 -0.6273  1.2082 -3.1741
   98SAPS  C312 9853   7.268   1.556   7.831  0.3687 -0.4124  0.7088
   98SAPS  H12X 9854   7.200   1.643   7.848  0.8014  0.0235  0.2242
   98SAPS  H12Y 9855   7.372   1.594   7.829  0.7298 -1.4218 -0.2403
   98SAPS  C313 9856   7.238   1.446   7.927 -0.3092  0.3089  0.8138
   98SAPS  H13X 9857   7.137   1.403   7.909 -0.4377  1.3063 -1.1596
   98SAPS  H13Y 9858   7.241   1.491   8.029 -0.3007 -0.8982  1.3579
   98SAPS  C314 9859   7.337   1.329   7.926 -0.0749 -0.3165  0.2898
   98SAPS  H14X 9860   7.430   1.355   7.981 -0.5979  1.5044  0.3942
   98SAPS  H14Y 9861   7.364   1.328   7.818  0.4470 -1.9488  0.4076
   98SAPS  C315 9862   7.273   1.199   7.980  0.1010 -0.0771  0.3347
   98SAPS  H15X 9863   7.349   1.119   7.973  1.1390  0.9581 -0.5416
   98SAPS  H15Y 9864   7.185   1.174   7.917 -0.7795  0.7827  1.1834
   98SAPS  C316 9865   7.217   1.195   8.124 -0.1700 -0.4279  0.3946
   98SAPS  H16X 9866   7.144   1.111   8.117 -0.5525 -0.1568  1.0316
   98SAPS  H16Y 9867   7.152   1.281   8.153 -0.2963 -0.6878  0.8861
   98SAPS  C317 9868   7.334   1.176   8.221  0.1893 -0.1195  0.3446
   98SAPS  H17X 9869   7.411   1.250   8.192 -0.0369  1.4974  3.4658
   98SAPS  H17Y 9870   7.376   1.073   8.214  2.9753  0.8345  1.6655
   98SAPS  C318 9871   7.272   1.212   8.357 -0.3802 -0.4300 -0.2291
   98SAPS  H18X 9872   7.178   1.154   8.366 -0.5275 -0.3455 -1.0890
   98SAPS  H18Y 9873   7.261   1.322   8.358 -1.6068 -0.5335 -0.6542
   98SAPS  H18Z 9874   7.340   1.181   8.439  0.6889  0.3015 -0.8174
   99SAPS     N 9875   6.263   5.100   6.072  0.1364 -0.0296  0.5903
   99SAPS   HN1 9876   6.304   5.188   6.109 -1.6774  0.3081  1.9846
   99SAPS   HN2 9877   6.174   5.128   6.027 -0.1627 -1.9254 -0.0942
   99SAPS   HN3 9878   6.253   5.032   6.151 -0.8776 -0.9158 -0.2659
   99SAPS   C12 9879   6.337   5.045   5.960 -0.2295 -0.4670  0.5327
   99SAPS  H12A 9880   6.275   4.982   5.898  1.3652  0.6781 -2.4348
   99SAPS   C13 9881   6.380   5.152   5.851 -0.4694  0.7226 -1.0058
   99SAPS  O13A 9882   6.344   5.271   5.868  0.0909 -0.1683  0.2910
   99SAPS  O13B 9883   6.430   5.107   5.746 -0.3496  0.9329 -0.2293
   99SAPS   C11 9884   6.465   4.968   6.006  0.5213  0.9827  0.5394
   99SAPS  H11A 9885   6.532   5.047   6.046  0.7383  0.5566  1.0213
   99SAPS  H11B 9886   6.514   4.919   5.920 -0.4577  1.7935 -0.5069
   99SAPS     P 9887   6.539   4.784   6.164 -0.2227 -0.4193  0.2400
   99SAPS   O13 9888   6.483   4.649   6.177  0.4236 -0.6206  0.3553
   99SAPS   O14 9889   6.661   4.795   6.074  0.3006  0.7818  0.0854
   99SAPS   O12 9890   6.424   4.871   6.103 -0.1828  0.2893 -0.5125
   99SAPS   O11 9891   6.569   4.838   6.312  1.1453  0.2645  0.8157
   99SAPS    C1 9892   6.526   4.957   6.368 -0.2827  1.3727  0.5281
   99SAPS    HA 9893   6.614   5.021   6.390  0.5350  1.4128 -2.4373
   99SAPS    HB 9894   6.474   5.024   6.296  0.5038  1.5893  0.1540
   99SAPS    C2 9895   6.438   4.952   6.497  0.4560  0.6207 -0.0197
   99SAPS    HS 9896   6.348   5.015   6.481 -0.7028 -1.0034 -0.0435
   99SAPS   O21 9897   6.511   5.001   6.617  0.1582  0.0597  0.3373
   99SAPS   C21 9898   6.543   5.128   6.614  0.2799 -0.6442  0.3317
   99SAPS   O22 9899   6.521   5.203   6.521  0.8066  0.9550 -0.1373
   99SAPS   C22 9900   6.609   5.169   6.745 -0.1257  0.1141  0.0108
   99SAPS   H2R 9901   6.564   5.109   6.827  1.8155  1.0679  1.8618
   99SAPS   H2S 9902   6.718   5.149   6.739  0.1620  1.1286  1.2887
   99SAPS    C3 9903   6.378   4.815   6.540  0.2392  0.2913  0.4491
   99SAPS    HX 9904   6.463   4.747   6.562  0.0181  0.1947  1.0259
   99SAPS    HY 9905   6.339   4.772   6.445  2.5314 -1.3452  0.1774
   99SAPS   O31 9906   6.286   4.820   6.654  1.0670  0.4819 -0.2175
   99SAPS   C31 9907   6.243   4.696   6.672  0.2249  0.4429  1.0173
   99SAPS   O32 9908   6.281   4.598   6.618 -0.5814  0.3374 -0.1595
   99SAPS   C32 9909   6.122   4.712   6.767 -0.1036  0.8688 -0.0982
   99SAPS   H2X 9910   6.059   4.791   6.722  1.0960  1.9684  0.0905
   99SAPS   H2Y 9911   6.162   4.737   6.867  3.3509 -1.1242 -0.7758
   99SAPS   C23 9912   6.600   5.313   6.795 -0.4982 -0.5355  0.0746
   99SAPS   H3R 9913   6.495   5.316   6.831 -0.5082 -1.2055  0.1087
   99SAPS   H3S 9914   6.616   5.386   6.712 -0.1892 -0.0575  0.5549
   99SAPS   C24 9915   6.712   5.332   6.909  0.1073  0.3286 -0.3326
   99SAPS   H4R 9916   6.813   5.348   6.864  0.1683 -0.4576 -0.5079
   99SAPS   H4S 9917   6.711   5.244   6.977  1.9705  0.2170 -0.3768
   99SAPS   C25 9918   6.674   5.451   6.987 -0.3863 -0.5590  0.8188
   99SAPS   H5R 9919   6.706   5.549   6.947 -1.5615 -0.6707 -0.4863
   99SAPS   C26 9920   6.611   5.446   7.109 -0.3203 -0.1546  0.0368
   99SAPS   H6R 9921   6.570   5.539   7.151 -2.9671 -0.8174 -0.8512
   99SAPS   C27 9922   6.575   5.319   7.188 -0.4822  0.8620 -0.0608
   99SAPS   H7R 9923   6.563   5.235   7.117  0.0326  1.2987 -0.6702
   99SAPS   H7S 9924   6.472   5.341   7.222 -0.6517  1.0673 -0.7057
   99SAPS   C28 9925   6.677   5.283   7.296  0.0625 -0.1354 -0.1851
   99SAPS   H8R 9926   6.780   5.265   7.262 -0.5387 -2.1055 -1.0984
   99SAPS   C29 9927   6.658   5.282   7.429  0.7348  0.4202  0.0277
   99SAPS   H9R 9928   6.741   5.253   7.494  2.1680  1.2638 -1.3284
   99SAPS  C210 9929   6.528   5.304   7.502 -0.2435  0.7763 -0.3785
   99SAPS  H10R 9930   6.488   5.206   7.536  0.0390 -0.4283 -3.2073
   99SAPS  H10S 9931   6.442   5.333   7.437 -1.3993 -1.7641 -0.1099
   99SAPS  C211 9932   6.541   5.395   7.614  0.7579  0.0004  0.1502
   99SAPS  H11R 9933   6.546   5.503   7.590  0.8397  0.1087  0.6388
   99SAPS  C212 9934   6.548   5.366   7.744 -0.4194  0.1318 -0.6125
   99SAPS  H12R 9935   6.553   5.450   7.814 -0.5408  0.1217 -0.5912
   99SAPS  C213 9936   6.534   5.229   7.799  0.4915  0.6933 -0.3789
   99SAPS  H13R 9937   6.553   5.149   7.725  2.4296  1.1766 -0.4569
   99SAPS  H13S 9938   6.436   5.205   7.845  1.5033 -3.3933  0.0270
   99SAPS  C214 9939   6.634   5.210   7.906 -0.2365  0.3382 -0.2708
   99SAPS  H14R 9940   6.700   5.125   7.883 -0.8397  0.1455 -1.3097
   99SAPS  C215 9941   6.643   5.256   8.030 -0.5825 -0.0869  0.6743
   99SAPS  H15R 9942   6.727   5.215   8.088  0.2775 -1.7926 -1.6165
   99SAPS  C216 9943   6.550   5.346   8.098  1.1955  1.2031 -0.1160
   99SAPS  H16R 9944   6.490   5.399   8.021  1.2615  1.2383 -0.1424
   99SAPS  H16S 9945   6.601   5.425   8.157  2.4458  0.2111  0.1638
   99SAPS  C217 9946   6.466   5.271   8.204 -0.6569  1.1653 -0.0751
   99SAPS  H17R 9947   6.541   5.228   8.273  1.7480  2.2839 -1.8460
   99SAPS  H17S 9948   6.425   5.191   8.138 -0.1398  1.8383 -1.2411
   99SAPS  C218 9949   6.342   5.336   8.260 -0.6765  0.5395  0.3024
   99SAPS  H18R 9950   6.279   5.267   8.321  1.3956 -1.1079  0.6602
   99SAPS  H18S 9951   6.275   5.378   8.181  0.5239  2.2208  0.1242
   99SAPS  C219 9952   6.389   5.454   8.347 -0.4117  0.0164  0.7825
   99SAPS  H19R 9953   6.432   5.540   8.291 -0.3339 -1.5059 -1.6718
   99SAPS  H19S 9954   6.471   5.410   8.408 -1.2304  0.1795  2.0143
   99SAPS  C220 9955   6.282   5.492   8.455  0.2527  0.0582 -0.3317
   99SAPS  H20R 9956   6.181   5.511   8.414  0.4625 -0.5496 -1.1498
   99SAPS  H20S 9957   6.309   5.573   8.527 -2.9835  2.3257 -1.4586
   99SAPS  H20T 9958   6.256   5.403   8.516 -1.7066 -0.1994 -1.4633
   99SAPS   C33 9959   6.034   4.585   6.788 -0.6684  0.2664  0.2966
   99SAPS   H3X 9960   6.093   4.522   6.858  1.6564  0.8961 -0.9834
   99SAPS   H3Y 9961   6.028   4.526   6.694 -0.0046 -1.3527  1.2335
   99SAPS   C34 9962   5.888   4.610   6.835 -0.2092 -0.1215 -0.0858
   99SAPS   H4X 9963   5.835   4.518   6.867 -2.0695  1.4102  1.5086
   99SAPS   H4Y 9964   5.833   4.648   6.746  0.0695 -0.1816 -0.2856
   99SAPS   C35 9965   5.865   4.708   6.950  0.8215 -0.1139  0.4878
   99SAPS   H5X 9966   5.759   4.738   6.962  0.1299 -2.9200  2.1366
   99SAPS   H5Y 9967   5.918   4.803   6.925 -0.6023  0.1556 -1.7808
   99SAPS   C36 9968   5.916   4.656   7.088  0.0017  0.4231  0.8660
   99SAPS   H6X 9969   6.020   4.622   7.071 -0.0048  1.3288 -1.3096
   99SAPS   H6Y 9970   5.842   4.576   7.107  2.7788 -2.0402  2.0348
   99SAPS   C37 9971   5.905   4.763   7.196  0.3214 -0.2552  0.2982
   99SAPS   H7X 9972   5.956   4.854   7.159  1.2629 -1.2919 -1.0559
   99SAPS   H7Y 9973   5.958   4.734   7.289  0.1064  1.0802  0.8465
   99SAPS   C38 9974   5.760   4.811   7.229  0.2443  0.3225  0.1399
   99SAPS   H8X 9975   5.699   4.719   7.248 -0.2285  0.9090  1.6440
   99SAPS   H8Y 9976   5.722   4.866   7.140  1.8483  3.0280  1.0159
   99SAPS   C39 9977   5.749   4.899   7.358  0.5229  0.2233  0.3908
   99SAPS   H9X 9978   5.645   4.938   7.365 -0.1556 -1.1100 -1.3907
   99SAPS   H9Y 9979   5.825   4.978   7.342 -0.7688  1.0603 -2.2222
   99SAPS  C310 9980   5.768   4.824   7.491  0.2324 -0.0190  0.4973
   99SAPS  H10X 9981   5.869   4.778   7.495 -1.2510 -3.7105 -0.5295
   99SAPS  H10Y 9982   5.690   4.745   7.486  1.0611 -0.8692  0.6827
   99SAPS  C311 9983   5.735   4.911   7.615 -0.4584  0.4835  0.1259
   99SAPS  H11X 9984   5.793   5.003   7.639  0.1356 -0.1179  1.0668
   99SAPS  H11Y 9985   5.771   4.843   7.696  2.5819 -0.8979 -2.1453
   99SAPS  C312 9986   5.580   4.939   7.638 -0.3080  0.6000  0.1987
   99SAPS  H12X 9987   5.526   4.842   7.647  0.6224 -0.0319 -0.8579
   99SAPS  H12Y 9988   5.540   4.997   7.553  1.2405 -0.0410 -1.0018
   99SAPS  C313 9989   5.557   5.013   7.770  0.4869 -0.5098 -0.3116
   99SAPS  H13X 9990   5.595   5.117   7.773  0.8996 -0.6728  0.4310
   99SAPS  H13Y 9991   5.618   4.964   7.849 -1.1096 -2.8495 -0.4134
   99SAPS  C314 9992   5.413   5.022   7.809  1.2366  0.4163  0.6383
   99SAPS  H14X 9993   5.373   4.919   7.823  0.0630  0.9698  1.5340
   99SAPS  H14Y 9994   5.350   5.043   7.720  1.2147 -1.8041  0.0772
   99SAPS  C315 9995   5.378   5.100   7.934 -0.2837  1.1261  0.2955
   99SAPS  H15X 9996   5.437   5.194   7.936 -1.7601  2.1451 -1.4207
   99SAPS  H15Y 9997   5.396   5.042   8.027 -0.8719 -0.5079 -0.5537
   99SAPS  C316 9998   5.228   5.134   7.941 -0.3964  0.4486 -0.3907
   99SAPS  H16X 9999   5.186   5.044   7.991 -1.6643  1.9186  1.3197
   99SAPS  H16Y10000   5.175   5.139   7.843  0.1145  0.1906 -0.6850
   99SAPS  C31710001   5.181   5.245   8.034 -0.4359 -0.0236 -0.9150
   99SAPS  H17X10002   5.072   5.262   8.022 -1.6639 -4.6416  1.2782
   99SAPS  H17Y10003   5.232   5.341   8.008 -0.9896  0.5202 -0.0390
   99SAPS  C31810004   5.203   5.204   8.181 -0.4441  0.1657  0.2457
   99SAPS  H18X10005   5.145   5.112   8.202 -0.2077 -0.0942 -0.2045
   99SAPS  H18Y10006   5.174   5.278   8.258  1.4122  1.3598 -0.1164
   99SAPS  H18Z10007   5.311   5.181   8.194 -0.0970 -0.1192 -2.5052
  100SAPS     N10008   3.928   0.303   5.773 -0.4954 -0.1549  0.0135
  100SAPS   HN110009   3.939   0.329   5.673  0.2234 -1.5203 -0.2894
  100SAPS   HN210010   3.839   0.347   5.805  0.3770 -0.5492  3.3700
  100SAPS   HN310011   4.001   0.346   5.834 -0.2281 -1.3953  0.5912
  100SAPS   C1210012   3.927   0.156   5.776  0.0578  0.6399 -0.6454
  100SAPS  H12A10013   3.827   0.127   5.745  0.0231  1.3460 -1.2017
  100SAPS   C1310014   4.019   0.090   5.669 -0.1128 -0.1223 -0.5637
  100SAPS  O13A10015   4.075   0.166   5.587  0.9340 -0.1802  0.0816
  100SAPS  O13B10016   4.048  -0.029   5.684 -0.7357  0.1921  0.0961
  100SAPS   C1110017   3.968   0.116   5.916  0.1638 -0.8898  0.0942
  100SAPS  H11A10018   4.074   0.140   5.936  0.3659 -1.1639 -0.6001
  100SAPS  H11B10019   3.958   0.006   5.931 -0.6677 -0.8676 -0.2238
  100SAPS     P10020   3.760   0.113   6.084  0.1094 -0.2832 -0.3201
  100SAPS   O1310021   3.663   0.214   6.126  0.2535 -0.1436  0.1578
  100SAPS   O1410022   3.716   0.003   5.997  0.0147 -0.1997  0.7260
  100SAPS   O1210023   3.884   0.185   6.016 -0.7349 -0.2092 -0.2881
  100SAPS   O1110024   3.815   0.047   6.219  0.0938  0.0956  0.5151
  100SAPS    C110025   3.927  -0.042   6.225 -0.7729 -0.5407 -0.3242
  100SAPS    HA10026   3.937  -0.111   6.139  0.2667 -0.5741 -0.1843
  100SAPS    HB10027   4.014   0.027   6.231 -0.8315 -0.3604 -1.4870
  100SAPS    C210028   3.910  -0.135   6.353  0.1305 -0.2439 -0.8890
  100SAPS    HS10029   3.830  -0.207   6.327 -0.2586 -0.1379 -0.0090
  100SAPS   O2110030   3.875  -0.050   6.463  1.3342  0.4503 -0.1141
  100SAPS   C2110031   3.826  -0.123   6.567 -0.0426 -0.6562 -0.0150
  100SAPS   O2210032   3.796  -0.236   6.565  0.2141  0.5361 -0.0193
  100SAPS   C2210033   3.844  -0.025   6.694  0.4270  0.6345  0.1920
  100SAPS   H2R10034   3.900   0.067   6.665  0.4317  0.5662 -0.0204
  100SAPS   H2S10035   3.740  -0.007   6.730  0.5478 -1.1238  1.5852
  100SAPS    C310036   4.043  -0.216   6.382  0.2897 -0.4576 -0.5037
  100SAPS    HX10037   4.057  -0.287   6.297 -4.4691 -1.0559 -1.0714
  100SAPS    HY10038   4.024  -0.289   6.464  1.6252  1.6533  1.7831
  100SAPS   O3110039   4.157  -0.131   6.417 -0.4728 -0.4695  0.1411
  100SAPS   C3110040   4.250  -0.192   6.493 -0.4297  0.5136  0.3010
  100SAPS   O3210041   4.238  -0.309   6.530 -0.3467  0.0450  0.1349
  100SAPS   C3210042   4.351  -0.089   6.546  0.5191 -0.4078  0.1138
  100SAPS   H2X10043   4.364  -0.009   6.470  2.0658 -0.0837  0.6853
  100SAPS   H2Y10044   4.450  -0.140   6.555 -0.1162 -1.3616  2.3378
  100SAPS   C2310045   3.927  -0.107   6.797  0.9310 -0.0570  0.5009
  100SAPS   H3R10046   4.021  -0.139   6.748 -0.4544 -0.4682 -2.0657
  100SAPS   H3S10047   3.856  -0.190   6.816  0.6433 -0.4316 -1.8413
  100SAPS   C2410048   3.961  -0.022   6.922 -0.3876 -0.2889  0.0101
  100SAPS   H4R10049   4.022   0.059   6.878 -1.7518  1.4804  1.2251
  100SAPS   H4S10050   4.011  -0.083   7.000 -1.4027  0.8898  1.6629
  100SAPS   C2510051   3.851   0.059   6.988  0.5806 -0.2701  0.5642
  100SAPS   H5R10052   3.770   0.077   6.916  1.5383 -2.1333 -1.0623
  100SAPS   C2610053   3.837   0.093   7.115 -0.3654 -0.8403 -0.4334
  100SAPS   H6R10054   3.745   0.144   7.149  1.3521  3.5537 -1.6398
  100SAPS   C2710055   3.929   0.057   7.233 -0.4436  0.0100 -0.0866
  100SAPS   H7R10056   4.029   0.043   7.187 -1.0486 -0.2487 -1.3777
  100SAPS   H7S10057   3.904  -0.041   7.280  0.8028 -0.6045 -0.6594
  100SAPS   C2810058   3.923   0.164   7.338 -0.1684 -0.2807 -0.7526
  100SAPS   H8R10059   3.839   0.235   7.340  0.8438  0.9587  0.9232
  100SAPS   C2910060   4.007   0.175   7.445 -0.4942 -0.1074  0.4540
  100SAPS   H9R10061   3.997   0.260   7.515 -0.1191  0.6629 -0.4132
  100SAPS  C21010062   4.127   0.085   7.467  0.4505 -0.3274  0.9505
  100SAPS  H10R10063   4.221   0.140   7.488 -0.0458  1.7010 -1.6708
  100SAPS  H10S10064   4.146   0.032   7.372 -1.1034  2.7615 -1.2571
  100SAPS  C21110065   4.094  -0.014   7.571 -0.4695  0.4157  0.3755
  100SAPS  H11R10066   4.064  -0.117   7.545  1.3183 -0.7811  2.6164
  100SAPS  C21210067   4.080   0.006   7.703 -0.0361  0.2885 -0.5449
  100SAPS  H12R10068   4.059  -0.075   7.774  0.0662  1.8407  1.3383
  100SAPS  C21310069   4.103   0.132   7.778  0.1276  0.2996 -0.7560
  100SAPS  H13R10070   4.151   0.211   7.717 -3.1628  1.7212 -1.7145
  100SAPS  H13S10071   4.183   0.111   7.853 -0.7036 -1.5891 -0.3242
  100SAPS  C21410072   3.969   0.180   7.832 -0.4922 -0.0432  0.5195
  100SAPS  H14R10073   3.892   0.200   7.756  3.1947  1.6937 -3.1439
  100SAPS  C21510074   3.938   0.208   7.961  0.2645  0.0043 -0.5396
  100SAPS  H15R10075   3.839   0.250   7.983  0.9776  0.9208  1.1182
  100SAPS  C21610076   4.028   0.183   8.084  0.4604  0.1425  0.5961
  100SAPS  H16R10077   4.106   0.261   8.067  0.9083 -0.5821 -0.8837
  100SAPS  H16S10078   4.088   0.091   8.063  0.3472 -0.0603  1.1340
  100SAPS  C21710079   3.961   0.168   8.220 -0.2503 -0.9751 -0.8263
  100SAPS  H17R10080   4.018   0.121   8.303 -1.0641  1.8066  1.5010
  100SAPS  H17S10081   3.873   0.102   8.212 -0.9137 -0.1608 -0.3563
  100SAPS  C21810082   3.916   0.307   8.281 -0.1492  0.4538 -0.2948
  100SAPS  H18R10083   3.838   0.356   8.219 -0.6266 -0.8237 -0.7542
  100SAPS  H18S10084   3.998   0.382   8.283 -0.9515  1.3370  0.1209
  100SAPS  C21910085   3.858   0.294   8.423  0.7431 -0.7905  0.5052
  100SAPS  H19R10086   3.942   0.279   8.494  0.9893 -0.1327  0.3643
  100SAPS  H19S10087   3.803   0.198   8.422 -0.0315 -0.3497 -0.0567
  100SAPS  C22010088   3.766   0.412   8.470 -0.3502  0.0175  0.3952
  100SAPS  H20R10089   3.832   0.500   8.457  1.1163 -1.0599  0.2380
  100SAPS  H20S10090   3.733   0.402   8.575  0.1279  0.5067  0.5946
  100SAPS  H20T10091   3.679   0.422   8.401  1.2434  0.1545 -1.7026
  100SAPS   C3310092   4.304  -0.016   6.680  0.4592  0.0584  0.4337
  100SAPS   H3X10093   4.286  -0.104   6.745 -0.6425 -1.5637 -1.9293
  100SAPS   H3Y10094   4.210   0.042   6.668  1.5384  1.4798 -1.7070
  100SAPS   C3410095   4.417   0.074   6.730  0.8918  0.0541  0.5884
  100SAPS   H4X10096   4.451   0.146   6.653  0.1901  0.6666  0.8370
  100SAPS   H4Y10097   4.498   0.002   6.755 -1.1506 -2.1491  1.2609
  100SAPS   C3510098   4.388   0.142   6.859  0.0871 -0.3924  0.1899
  100SAPS   H5X10099   4.297   0.205   6.855 -0.2438 -0.9618 -1.9915
  100SAPS   H5Y10100   4.477   0.201   6.892 -0.0091  0.3047 -0.7435
  100SAPS   C3610101   4.364   0.043   6.969 -0.6694  0.4847  0.3175
  100SAPS   H6X10102   4.456  -0.017   6.988 -1.3337 -0.6680 -0.0202
  100SAPS   H6Y10103   4.282  -0.024   6.934  1.0887 -1.2659 -0.6588
  100SAPS   C3710104   4.311   0.096   7.105 -0.1572 -0.4810 -0.5318
  100SAPS   H7X10105   4.286   0.006   7.166  0.0304  1.0043  1.8769
  100SAPS   H7Y10106   4.211   0.129   7.073 -0.0314 -1.2206 -1.7359
  100SAPS   C3810107   4.399   0.200   7.175  0.1306 -0.3735 -0.5122
  100SAPS   H8X10108   4.337   0.254   7.249 -1.2749  0.0182 -1.9311
  100SAPS   H8Y10109   4.415   0.272   7.092 -0.4172 -0.3187 -0.5702
  100SAPS   C3910110   4.523   0.136   7.245 -0.1089  1.3463  0.1582
  100SAPS   H9X10111   4.582   0.075   7.173 -0.4894 -0.0248  0.9789
  100SAPS   H9Y10112   4.483   0.067   7.322  0.3221  0.6922 -0.1983
  100SAPS  C31010113   4.623   0.232   7.304 -0.4981  0.1444 -0.5740
  100SAPS  H10X10114   4.644   0.318   7.237  0.5356  1.6641  1.6014
  100SAPS  H10Y10115   4.723   0.187   7.316  1.4249  4.2793  0.9011
  100SAPS  C31110116   4.589   0.289   7.443  0.0756 -0.5198  0.0391
  100SAPS  H11X10117   4.482   0.317   7.452 -0.1651 -1.1238 -0.8215
  100SAPS  H11Y10118   4.650   0.378   7.465  0.2863 -0.7937  0.5904
  100SAPS  C31210119   4.602   0.187   7.550  0.2804 -0.4222  0.1402
  100SAPS  H12X10120   4.703   0.141   7.537  0.2695 -0.1796 -0.8890
  100SAPS  H12Y10121   4.528   0.104   7.545 -1.6201  1.2601 -3.4677
  100SAPS  C31310122   4.585   0.240   7.690 -1.0676  0.3523 -0.3348
  100SAPS  H13X10123   4.667   0.311   7.714  0.3368 -1.9743  2.4002
  100SAPS  H13Y10124   4.597   0.161   7.768 -0.3772 -0.4090 -1.1912
  100SAPS  C31410125   4.459   0.314   7.721 -0.1062  0.1139  0.3982
  100SAPS  H14X10126   4.368   0.254   7.702 -1.3259  1.6374  1.1403
  100SAPS  H14Y10127   4.453   0.410   7.665  1.1573 -0.0705 -0.0653
  100SAPS  C31510128   4.459   0.368   7.865 -0.1235 -0.2863  0.1195
  100SAPS  H15X10129   4.376   0.442   7.875  0.3609  0.5289 -1.4549
  100SAPS  H15Y10130   4.558   0.408   7.897 -0.5674  0.7443  0.2562
  100SAPS  C31610131   4.431   0.254   7.970 -0.5515 -0.0140  0.0201
  100SAPS  H16X10132   4.503   0.169   7.961 -0.1167  0.4798 -1.3167
  100SAPS  H16Y10133   4.333   0.202   7.963 -0.2606 -1.0204  2.4389
  100SAPS  C31710134   4.438   0.305   8.116  0.5118 -0.3337 -0.1350
  100SAPS  H17X10135   4.377   0.232   8.173 -1.0239  0.5111 -0.6389
  100SAPS  H17Y10136   4.398   0.408   8.133  1.4839  0.1545 -0.7030
  100SAPS  C31810137   4.579   0.317   8.171  0.4898  0.0702 -0.4875
  100SAPS  H18X10138   4.641   0.378   8.102 -0.0205  0.0966 -0.9322
  100SAPS  H18Y10139   4.620   0.214   8.172 -1.0914 -0.6158 -1.4178
  100SAPS  H18Z10140   4.584   0.366   8.271 -0.0308 -0.1647 -0.3420
  101OSM      N10141   1.378   2.020  10.887 -1.2232 -0.5252  0.0311
  101OSM    C1510142   1.370   2.159  10.845  0.3380 -0.8134  0.3806
  101OSM   H15A10143   1.336   2.233  10.916 -0.4013  0.9113 -1.6356
  101OSM   H15B10144   1.303   2.178  10.762 -0.5057 -1.4765  0.8874
  101OSM   H15C10145   1.467   2.195  10.813  1.1339 -1.1778  2.2634
  101OSM    C1410146   1.465   2.003  11.010 -0.0389 -0.7891  1.4939
  101OSM   H14A10147   1.570   2.008  10.986 -0.0455  1.6310  1.6825
  101OSM   H14B10148   1.455   1.905  11.055  1.5741 -1.2873  0.8255
  101OSM   H14C10149   1.447   2.084  11.079 -1.1582 -0.9110  1.3641
  101OSM    C1310150   1.242   1.974  10.922  0.5889  0.9276 -0.5898
  101OSM   H13A10151   1.260   1.875  10.962  0.7723  1.1434 -0.1257
  101OSM   H13B10152   1.177   1.970  10.836 -2.2587  1.5470  1.3565
  101OSM   H13C10153   1.197   2.034  11.001 -0.8227  1.1107 -1.4872
  101OSM    C1210154   1.435   1.925  10.785 -0.4655  0.1530  0.7200
  101OSM   H12A10155   1.372   1.941  10.699  0.0147  0.1707  0.3650
  101OSM   H12B10156   1.424   1.821  10.814  0.2731 -0.0831  0.1651
  101OSM    C1110157   1.581   1.933  10.736 -0.6463 -0.0031 -0.3282
  101OSM   H11A10158   1.604   1.851  10.664  2.3827  0.8869 -0.5080
  101OSM   H11B10159   1.648   1.921  10.824 -0.2777  0.4353 -0.5439
  101OSM      P10160   1.728   2.125  10.637 -0.5873  0.2878  0.4163
  101OSM    O1310161   1.700   2.263  10.606  0.3187 -0.0099  0.4775
  101OSM    O1410162   1.840   2.103  10.730 -0.1544 -0.4502 -0.3076
  101OSM    O1110163   1.762   2.054  10.496 -0.1755  0.7953 -0.3424
  101OSM    O1210164   1.598   2.058  10.684  0.4336 -0.0190 -0.1812
  101OSM    C1S10165   1.665   2.021  10.398  0.0314 -0.0508 -0.1081
  101OSM    H1S10166   1.559   2.048  10.420 -0.8679 -1.1718 -2.6067
  101OSM    H1T10167   1.665   1.912  10.377 -2.2917 -0.0937 -0.1443
  101OSM     NF10168   1.587   2.084  10.167 -0.3444 -0.3963  0.6678
  101OSM    HNF10169   1.584   1.996  10.120  1.2860 -0.5582  0.8286
  101OSM    C2S10170   1.698   2.097  10.261  0.2081  0.2838 -0.9203
  101OSM    H2S10171   1.707   2.206  10.281 -1.8468  0.6065 -1.5171
  101OSM    C3S10172   1.838   2.053  10.204 -0.4328  0.3294  0.9691
  101OSM    H3S10173   1.841   1.948  10.167 -2.3504  0.3523  0.6219
  101OSM     O310174   1.933   2.069  10.312  0.0739 -0.5215  0.3624
  101OSM    HO310175   1.880   2.066  10.392  1.7855 -4.0738  1.6129
  101OSM    C4S10176   1.883   2.138  10.090  0.5960 -0.3488 -0.5187
  101OSM    H4S10177   1.888   2.077   9.999  2.1773  1.8167 -2.0095
  101OSM    C5S10178   1.928   2.263  10.087 -0.3625 -0.0651 -0.0736
  101OSM    H5S10179   1.941   2.322  10.180 -0.5981 -0.2764  0.0959
  101OSM    C6S10180   1.964   2.328   9.959  0.1818  0.1932 -0.4830
  101OSM    H6S10181   2.072   2.355   9.966  0.5264 -1.4852  4.8828
  101OSM    H6T10182   1.892   2.412   9.949 -1.4028 -0.9038  0.9998
  101OSM    C7S10183   1.945   2.250   9.827 -0.5401 -0.5606  0.3539
  101OSM    H7S10184   1.843   2.211   9.805  0.0223 -1.7634 -0.2387
  101OSM    H7T10185   2.014   2.163   9.838  0.1943  0.0158  0.4054
  101OSM    C8S10186   1.999   2.331   9.707  0.4145  0.8892 -0.0819
  101OSM    H8S10187   2.104   2.364   9.723  1.0485 -0.7495 -0.6845
  101OSM    H8T10188   1.945   2.429   9.704  0.9087  1.1895  0.6019
  101OSM    C9S10189   1.997   2.260   9.572 -0.0229  0.3142  0.4353
  101OSM    H9S10190   2.078   2.184   9.572 -0.1020  0.2293  0.5763
  101OSM    H9T10191   2.014   2.326   9.485 -1.3406  0.6090  0.3938
  101OSM   C10S10192   1.867   2.184   9.539  0.0918  0.1584 -0.6706
  101OSM   H10S10193   1.777   2.248   9.554  1.1053  1.4943 -0.0659
  101OSM   H10T10194   1.850   2.106   9.616 -1.7833 -0.6714 -1.8646
  101OSM   C11S10195   1.869   2.114   9.404  0.3425  0.1537  0.2986
  101OSM   H11S10196   1.808   2.021   9.410 -0.2828  0.1517 -3.4338
  101OSM   H11T10197   1.973   2.083   9.377  0.4750  1.4287 -0.7072
  101OSM   C12S10198   1.815   2.210   9.295 -0.3609 -0.7659 -0.4360
  101OSM   H12S10199   1.884   2.296   9.312 -0.9686 -0.9079  3.9416
  101OSM   H12T10200   1.721   2.264   9.321  1.2454  0.8832  2.4636
  101OSM   C13S10201   1.809   2.144   9.158 -0.0221 -0.3872  0.0652
  101OSM   H13S10202   1.894   2.072   9.163  0.7626  0.6011  2.2210
  101OSM   H13T10203   1.824   2.232   9.091 -2.0883 -0.0458 -0.0264
  101OSM   C14S10204   1.679   2.071   9.120 -0.0633 -0.6171  0.6007
  101OSM   H14S10205   1.588   2.132   9.105  0.5194  0.2650  0.5595
  101OSM   H14T10206   1.657   1.994   9.197 -1.4600 -0.2655  0.5690
  101OSM   C15S10207   1.715   1.991   8.996 -0.7085 -0.1842 -0.3295
  101OSM   H15S10208   1.804   1.930   9.023 -0.9557 -0.7508 -0.7711
  101OSM   H15T10209   1.753   2.059   8.916  0.9297 -1.1589 -0.4421
  101OSM   C16S10210   1.602   1.903   8.941  0.5965 -0.7536 -0.3785
  101OSM   H16S10211   1.507   1.960   8.936  2.6739  3.5824  2.8295
  101OSM   H16T10212   1.595   1.830   9.025 -1.3467  0.1101  0.2604
  101OSM   C17S10213   1.630   1.845   8.802 -0.1818  0.4342 -0.2213
  101OSM   H17S10214   1.565   1.758   8.782 -0.0435  0.1160  0.6544
  101OSM   H17T10215   1.734   1.807   8.787  0.2494  0.5927  1.9737
  101OSM   C18S10216   1.609   1.952   8.692 -0.2638  0.5763  0.3800
  101OSM   H18S10217   1.637   2.055   8.721  0.0847  0.9053 -1.0164
  101OSM   H18T10218   1.501   1.950   8.668 -0.3285  0.2673  0.7075
  101OSM   H18U10219   1.672   1.920   8.606  0.2962  0.6500  0.7592
  101OSM    C1F10220   1.478   2.156  10.184 -0.6812 -0.0123  0.2490
  101OSM     OF10221   1.478   2.248  10.267 -0.1038 -0.3330  0.3872
  101OSM    C2F10222   1.366   2.130  10.092 -0.3196 -0.1258 -0.4573
  101OSM    H2F10223   1.327   2.028  10.107 -1.7143  0.1232 -2.0876
  101OSM    H2G10224   1.402   2.142   9.988  0.3406  1.1549 -0.1157
  101OSM    C3F10225   1.259   2.241  10.106  0.1691  0.4352  0.4519
  101OSM    H3F10226   1.287   2.339  10.062  0.2161 -0.3903 -1.4598
  101OSM    H3G10227   1.232   2.256  10.213 -1.1703  0.8517  0.0791
  101OSM    C4F10228   1.135   2.203  10.025 -0.3334 -0.0345  0.6588
  101OSM    H4F10229   1.062   2.281  10.056 -0.7922 -0.5079  0.7787
  101OSM    H4G10230   1.079   2.110  10.046  0.2329 -0.5945 -0.2287
  101OSM    C5F10231   1.150   2.208   9.872 -0.2516  0.5019  0.0368
  101OSM    H5F10232   1.244   2.162   9.836  0.7505  3.4083 -1.3729
  101OSM    H5G10233   1.155   2.314   9.840 -1.3201  0.9902  1.3581
  101OSM    C6F10234   1.032   2.139   9.796 -0.8325  0.0148  0.2261
  101OSM    H6F10235   0.931   2.171   9.831 -1.2772 -3.2125  2.3571
  101OSM    H6G10236   1.024   2.031   9.823 -0.9054 -0.3974 -1.3237
  101OSM    C7F10237   1.041   2.135   9.636  0.5485  0.0815  0.3330
  101OSM    H7F10238   1.133   2.078   9.612  0.2551 -0.1866 -0.1705
  101OSM    H7G10239   1.044   2.240   9.598 -0.8203  0.4612  1.2184
  101OSM    C8F10240   0.920   2.053   9.579 -0.7590 -0.6508  0.0121
  101OSM    H8F10241   0.917   1.960   9.640  0.7351 -0.4718  0.4172
  101OSM    H8G10242   0.942   2.017   9.476  0.8890 -1.7533  0.6900
  101OSM    C9F10243   0.800   2.142   9.591  0.1033 -0.0039  0.7943
  101OSM    H9F10244   0.767   2.169   9.692  1.6448  1.0573  1.0577
  101OSM   C10F10245   0.719   2.187   9.491 -0.3498  0.3513 -0.5998
  101OSM   H10F10246   0.622   2.232   9.512  0.0934  0.7954  0.6066
  101OSM   C11F10247   0.749   2.169   9.341  0.0218 -0.2775  0.4145
  101OSM   H11F10248   0.852   2.133   9.320 -0.4819  0.2745 -3.6867
  101OSM   H11G10249   0.751   2.269   9.293  3.4257  1.2344  3.1895
  101OSM   C12F10250   0.660   2.058   9.293  0.0098  0.4375 -0.0207
  101OSM   H12F10251   0.553   2.083   9.312 -0.9458 -1.6402 -2.0731
  101OSM   H12G10252   0.680   1.963   9.347 -0.3486  0.4793  0.1933
  101OSM   C13F10253   0.673   2.028   9.147  0.5590 -0.0412  0.2292
  101OSM   H13F10254   0.778   1.998   9.128  0.2843  1.3507 -5.1700
  101OSM   H13G10255   0.650   2.117   9.083 -1.2636 -1.9464 -1.9545
  101OSM   C14F10256   0.578   1.914   9.106  0.0352 -0.1965  0.5028
  101OSM   H14F10257   0.473   1.942   9.129 -0.4973 -1.6338 -0.0202
  101OSM   H14G10258   0.602   1.828   9.172 -0.2743 -1.1536 -0.5949
  101OSM   C15F10259   0.594   1.874   8.962  0.1667  0.0327  0.0227
  101OSM   H15F10260   0.615   1.961   8.897  2.7830 -1.1626 -0.8564
  101OSM   H15G10261   0.506   1.821   8.921  0.2083 -1.3972  1.6612
  101OSM   C16F10262   0.707   1.771   8.940 -0.1444 -0.2825 -0.4641
  101OSM   H16F10263   0.686   1.690   9.013 -0.7049  1.8646  1.9412
  101OSM   H16G10264   0.803   1.812   8.978  0.4154 -0.3359 -1.7637
  101OSM   C17F10265   0.734   1.710   8.806 -0.2146 -0.3227 -0.2281
  101OSM   H17F10266   0.805   1.626   8.821  0.1974  0.2898  1.5058
  101OSM   H17G10267   0.783   1.784   8.739 -0.0542 -0.8218 -0.6654
  101OSM   C18F10268   0.602   1.659   8.735 -0.5921 -0.5668 -0.1419
  101OSM   H18F10269   0.625   1.621   8.634  1.2823  0.4918 -0.1553
  101OSM   H18G10270   0.533   1.744   8.713 -0.6644 -0.2747  1.1063
  101OSM   H18H10271   0.554   1.573   8.787  0.5738 -0.4066  1.2681
  102OSM      N10272   1.995   1.735  10.632 -0.5438 -0.9889  0.6417
  102OSM    C1510273   2.062   1.603  10.614 -0.2861  0.2972 -0.3873
  102OSM   H15A10274   2.120   1.568  10.698  1.8028  1.5384 -1.2265
  102OSM   H15B10275   2.122   1.591  10.525  2.0255  1.1344  0.9869
  102OSM   H15C10276   1.988   1.525  10.604  0.3497 -0.2354 -1.0176
  102OSM    C1410277   1.922   1.739  10.763 -0.1604  0.7356 -0.2872
  102OSM   H14A10278   1.874   1.834  10.779 -0.2711  0.3701  1.9293
  102OSM   H14B10279   1.993   1.707  10.837  1.0947 -0.2398 -1.8536
  102OSM   H14C10280   1.850   1.658  10.757  2.0069 -1.1758 -2.2532
  102OSM    C1310281   2.102   1.835  10.643  0.5353 -0.0036 -0.1646
  102OSM   H13A10282   2.144   1.856  10.545  2.4695 -2.6118  0.0158
  102OSM   H13B10283   2.177   1.803  10.713 -0.4380  0.5081  1.1688
  102OSM   H13C10284   2.074   1.932  10.682 -0.0317 -0.0978 -0.3276
  102OSM    C1210285   1.899   1.762  10.517 -0.3191  0.1964  0.0204
  102OSM   H12A10286   1.954   1.798  10.431  1.0510  2.5593  1.7572
  102OSM   H12B10287   1.835   1.846  10.539 -0.4701 -0.0345  0.4729
  102OSM    C1110288   1.804   1.650  10.478  0.3841 -0.3176 -0.5255
  102OSM   H11A10289   1.854   1.560  10.435  1.1758 -0.3513  0.4459
  102OSM   H11B10290   1.734   1.688  10.400  1.1839  0.3102 -0.9440
  102OSM      P10291   1.716   1.457  10.642 -0.0405 -0.0089 -0.2889
  102OSM    O1310292   1.852   1.395  10.639 -0.1531  0.0241 -0.3618
  102OSM    O1410293   1.641   1.440  10.774 -0.1545 -0.1817  0.1067
  102OSM    O1110294   1.638   1.408  10.521  0.7229  0.5310  0.2966
  102OSM    O1210295   1.732   1.613  10.600  0.1766 -0.1490  0.1263
  102OSM    C1S10296   1.511   1.482  10.504  0.1486 -0.4785  0.7684
  102OSM    H1S10297   1.509   1.593  10.514  0.3575 -0.3494 -0.4239
  102OSM    H1T10298   1.432   1.464  10.580  0.3114  1.0889  1.3470
  102OSM     NF10299   1.333   1.553  10.340 -0.1011 -0.4912 -0.3213
  102OSM    HNF10300   1.236   1.533  10.352 -0.0673 -0.7039 -0.4066
  102OSM    C2S10301   1.433   1.447  10.368  1.2431 -0.3453  0.4315
  102OSM    H2S10302   1.511   1.455  10.289 -0.7076  1.5674 -1.4215
  102OSM    C3S10303   1.373   1.303  10.364  0.5662  0.4687 -0.0062
  102OSM    H3S10304   1.301   1.302  10.449  0.0536 -1.0621 -0.4356
  102OSM     O310305   1.466   1.203  10.403  0.2605  0.1739 -0.1218
  102OSM    HO310306   1.542   1.255  10.431  1.2053 -1.0608 -0.2971
  102OSM    C4S10307   1.309   1.265  10.237 -0.6108  0.0756  0.6005
  102OSM    H4S10308   1.200   1.273  10.230 -0.5653  1.8299  1.2589
  102OSM    C5S10309   1.367   1.216  10.125  0.1936 -0.1946  0.5921
  102OSM    H5S10310   1.477   1.208  10.128  0.3146  1.1565  0.4152
  102OSM    C6S10311   1.291   1.179  10.004 -0.5310  0.1476 -0.4670
  102OSM    H6S10312   1.182   1.183  10.024 -0.4462  0.4546 -0.0714
  102OSM    H6T10313   1.314   1.072   9.982 -2.1722 -0.5664  1.0657
  102OSM    C7S10314   1.293   1.263   9.875 -0.4546  0.1840  0.8266
  102OSM    H7S10315   1.399   1.272   9.843  0.0195  0.7098  2.4049
  102OSM    H7T10316   1.236   1.356   9.895 -1.2107 -0.4720  1.8619
  102OSM    C8S10317   1.206   1.204   9.764  0.0638 -0.5605 -0.0997
  102OSM    H8S10318   1.099   1.231   9.768  0.1309 -0.1536 -0.7966
  102OSM    H8T10319   1.223   1.095   9.778 -1.7048 -0.7817  0.5613
  102OSM    C9S10320   1.261   1.240   9.621 -0.2176  0.1970  0.6576
  102OSM    H9S10321   1.371   1.225   9.621 -0.3886 -1.3082  1.6546
  102OSM    H9T10322   1.240   1.344   9.588 -0.8073 -0.0851  0.1303
  102OSM   C10S10323   1.217   1.144   9.512 -0.1671 -0.1463  0.2780
  102OSM   H10S10324   1.107   1.159   9.505 -0.1395 -0.2585 -0.5043
  102OSM   H10T10325   1.235   1.042   9.550 -1.9694 -0.2236  1.0544
  102OSM   C11S10326   1.288   1.178   9.377  0.1559 -0.6178 -0.4583
  102OSM   H11S10327   1.397   1.160   9.379  0.5984  1.5207 -1.3677
  102OSM   H11T10328   1.281   1.286   9.351 -2.5361 -0.6798 -0.3280
  102OSM   C12S10329   1.218   1.103   9.257 -0.3735 -0.7934 -1.0501
  102OSM   H12S10330   1.115   1.122   9.222  0.1614  1.8327 -1.3620
  102OSM   H12T10331   1.213   1.000   9.300  0.0368 -0.3921 -0.0111
  102OSM   C13S10332   1.312   1.090   9.137  0.4709  0.0719 -0.9299
  102OSM   H13S10333   1.407   1.055   9.183  0.6648 -1.2271 -2.2390
  102OSM   H13T10334   1.337   1.189   9.092 -0.8425  1.4457  1.2097
  102OSM   C14S10335   1.268   0.984   9.039 -0.0435 -0.5996  0.3565
  102OSM   H14S10336   1.173   1.015   8.990  0.2562 -0.0474  0.1100
  102OSM   H14T10337   1.251   0.890   9.096 -1.1945 -0.7983 -0.2657
  102OSM   C15S10338   1.360   0.966   8.922 -0.1596  0.8608  1.0533
  102OSM   H15S10339   1.461   0.929   8.949  0.2152  1.7840  0.9495
  102OSM   H15T10340   1.376   1.062   8.868 -0.5881  0.5562  0.3688
  102OSM   C16S10341   1.300   0.874   8.813 -0.1421  0.0847 -0.2620
  102OSM   H16S10342   1.191   0.893   8.807 -0.7443 -2.0010  2.0735
  102OSM   H16T10343   1.322   0.768   8.837  0.9487  0.5458  0.8739
  102OSM   C17S10344   1.364   0.890   8.672  0.2271  0.0409  0.1086
  102OSM   H17S10345   1.342   0.987   8.621 -1.7604 -0.8850 -0.8931
  102OSM   H17T10346   1.312   0.816   8.608 -1.3884 -1.3031  2.8292
  102OSM   C18S10347   1.519   0.872   8.670  1.1714 -0.8108 -0.0798
  102OSM   H18S10348   1.564   0.953   8.731  1.3470 -0.8879 -0.1085
  102OSM   H18T10349   1.563   0.868   8.568  0.8143 -1.4971 -0.2164
  102OSM   H18U10350   1.544   0.778   8.724 -0.4581 -2.1764 -1.5855
  102OSM    C1F10351   1.366   1.676  10.305 -0.6470 -0.8008 -0.1063
  102OSM     OF10352   1.481   1.696  10.278 -0.0544 -0.4458 -0.1946
  102OSM    C2F10353   1.272   1.790  10.296 -0.4721 -0.4306  0.0094
  102OSM    H2F10354   1.171   1.755  10.325 -0.2561  0.0102  1.4231
  102OSM    H2G10355   1.260   1.813  10.188  2.7636  2.6806  0.1019
  102OSM    C3F10356   1.315   1.911  10.388  0.2139 -0.0998  0.0631
  102OSM    H3F10357   1.404   1.946  10.331  0.8540 -1.2776  0.3025
  102OSM    H3G10358   1.351   1.881  10.489 -0.9711  1.0738  0.8656
  102OSM    C4F10359   1.220   2.026  10.383  0.2758 -0.0660 -0.4036
  102OSM    H4F10360   1.171   2.025  10.283 -0.0456 -1.6137 -0.2547
  102OSM    H4G10361   1.272   2.122  10.401  0.7796 -0.4300  0.1051
  102OSM    C5F10362   1.107   2.030  10.492  0.6632  0.2550  0.2347
  102OSM    H5F10363   1.115   2.129  10.541  1.9114  0.5399 -0.4927
  102OSM    H5G10364   1.143   1.950  10.560  1.5652 -0.2038 -0.7528
  102OSM    C6F10365   0.959   2.003  10.448 -0.1240  0.6632  0.4167
  102OSM    H6F10366   0.886   2.045  10.521  2.0456  2.8234  1.5174
  102OSM    H6G10367   0.940   1.895  10.432 -0.9432  0.7720  0.6371
  102OSM    C7F10368   0.914   2.067  10.311  0.7704  0.0926  0.8020
  102OSM    H7F10369   0.972   2.029  10.224 -1.8286 -0.2175 -0.9042
  102OSM    H7G10370   0.922   2.177  10.322 -3.9378  0.6550  0.5735
  102OSM    C8F10371   0.761   2.047  10.288  0.4774 -0.2056 -0.2305
  102OSM    H8F10372   0.733   2.127  10.216 -1.6909  2.8371  3.6377
  102OSM    H8G10373   0.703   2.060  10.382 -0.8907  0.0611 -1.0888
  102OSM    C9F10374   0.746   1.903  10.239  0.5940 -0.1630 -0.7468
  102OSM    H9F10375   0.731   1.826  10.316 -1.4379  0.9815  0.0935
  102OSM   C10F10376   0.729   1.864  10.114 -0.1965  0.0015  0.1132
  102OSM   H10F10377   0.726   1.755  10.101  2.4841 -0.0243 -0.8198
  102OSM   C11F10378   0.736   1.948   9.993  0.0627  0.3099 -0.6723
  102OSM   H11F10379   0.836   1.920   9.952 -0.1871 -0.6117 -0.6756
  102OSM   H11G10380   0.739   2.058  10.011  1.3778 -0.1263  2.4279
  102OSM   C12F10381   0.625   1.928   9.882 -0.4650 -0.3191 -0.4135
  102OSM   H12F10382   0.614   1.821   9.855 -1.1544 -0.3324 -0.0996
  102OSM   H12G10383   0.668   1.977   9.791  1.0326  2.8486  1.7721
  102OSM   C13F10384   0.494   1.993   9.928 -0.4738 -0.3332 -1.0028
  102OSM   H13F10385   0.517   2.097   9.956 -0.5185 -1.3247  3.3652
  102OSM   H13G10386   0.451   1.945  10.018  2.2598 -0.3797  0.3793
  102OSM   C14F10387   0.393   1.990   9.818 -0.2079  1.0587  0.1290
  102OSM   H14F10388   0.346   1.890   9.813  0.1871  0.8011  1.3447
  102OSM   H14G10389   0.437   2.007   9.717  0.4619  0.1484  0.2558
  102OSM   C15F10390   0.276   2.088   9.829  0.2761 -0.0988 -0.4293
  102OSM   H15F10391   0.207   2.064   9.745  2.1134  0.2834 -2.1396
  102OSM   H15G10392   0.317   2.188   9.806  0.5065  0.0373  0.5453
  102OSM   C16F10393   0.210   2.093   9.969 -0.2474  0.2767 -0.0498
  102OSM   H16F10394   0.275   2.155  10.034 -0.0080 -0.6153  0.5726
  102OSM   H16G10395   0.210   1.988  10.006  1.8711  0.4671  0.6080
  102OSM   C17F10396   0.068   2.145   9.978  0.4219 -0.2846  0.4142
  102OSM   H17F10397   0.013   2.078  10.048 -1.2160  2.0759  1.5096
  102OSM   H17G10398   0.030   2.126   9.875  0.6797 -0.0435  0.2727
  102OSM   C18F10399   0.047   2.300   9.999 -0.1846 -0.7846  0.3473
  102OSM   H18F10400  -0.060   2.327   9.985  0.4168  0.8200 -1.6685
  102OSM   H18G10401   0.099   2.345   9.912  0.5419  1.5238  1.8971
  102OSM   H18H10402   0.098   2.322  10.095 -1.3091 -0.2427  0.8405
  103OSM      N10403   3.411   4.390  10.823  0.2747 -0.3036 -0.3644
  103OSM    C1510404   3.450   4.264  10.880  0.4099  0.2268 -0.4702
  103OSM   H15A10405   3.553   4.253  10.911  0.7306 -3.3464 -2.2461
  103OSM   H15B10406   3.444   4.173  10.822 -0.6524  0.9091 -1.4887
  103OSM   H15C10407   3.391   4.252  10.969 -1.0495 -0.7931 -1.5208
  103OSM    C1410408   3.442   4.507  10.916 -0.3743  0.0323  0.4846
  103OSM   H14A10409   3.434   4.601  10.862  1.9606  0.8590  1.4446
  103OSM   H14B10410   3.544   4.495  10.950 -0.2107  3.4456  1.5633
  103OSM   H14C10411   3.379   4.513  11.003 -0.7300  0.2893  0.2114
  103OSM    C1310412   3.481   4.414  10.693 -0.6794  0.2689  0.2996
  103OSM   H13A10413   3.456   4.513  10.658  0.7336 -0.1744 -2.2275
  103OSM   H13B10414   3.439   4.349  10.618  0.5345 -1.2629  0.8944
  103OSM   H13C10415   3.588   4.408  10.708 -0.8136 -0.6252  1.0044
  103OSM    C1210416   3.262   4.387  10.798  0.0453 -0.3576  0.8688
  103OSM   H12A10417   3.234   4.306  10.731  0.0031 -0.3196  0.8407
  103OSM   H12B10418   3.241   4.471  10.734  0.1593  0.0079  1.3109
  103OSM    C1110419   3.170   4.375  10.919  0.1585 -0.7995  0.1949
  103OSM   H11A10420   3.067   4.407  10.894 -0.2559 -2.5270 -0.4254
  103OSM   H11B10421   3.205   4.447  10.997  0.3870  1.0017 -1.4670
  103OSM      P10422   3.083   4.126  10.909  0.0070  0.3014 -0.5865
  103OSM    O1310423   3.164   3.998  10.919 -0.0505  0.3941 -0.5065
  103OSM    O1410424   2.952   4.130  10.967 -0.2515 -0.1272  0.8664
  103OSM    O1110425   3.076   4.164  10.757 -0.3249 -0.7138  0.6115
  103OSM    O1210426   3.171   4.241  10.973 -0.0627  0.2985  0.1565
  103OSM    C1S10427   2.959   4.203  10.681  0.0061 -0.3105 -0.2281
  103OSM    H1S10428   2.927   4.304  10.713  4.0377  1.1910 -0.3273
  103OSM    H1T10429   2.874   4.136  10.706  0.1124  0.6103  3.0953
  103OSM     NF10430   2.866   4.225  10.437 -0.1377 -0.2639 -0.8740
  103OSM    HNF10431   2.824   4.140  10.405 -0.1521 -1.0754  1.1299
  103OSM    C2S10432   2.984   4.204  10.524  1.1813 -0.0898  0.0989
  103OSM    H2S10433   3.056   4.288  10.514 -0.7813  1.7438  0.6591
  103OSM    C3S10434   3.052   4.071  10.480  0.0852 -0.3555 -0.2177
  103OSM    H3S10435   2.977   3.989  10.482  0.3901 -0.6248  0.9759
  103OSM     O310436   3.155   4.025  10.564 -0.0701 -0.4797 -0.1220
  103OSM    HO310437   3.125   4.076  10.641  0.8953 -1.8264  1.1917
  103OSM    C4S10438   3.113   4.080  10.342 -0.1666 -0.2168  0.0447
  103OSM    H4S10439   3.185   4.162  10.329  0.6187 -0.9901 -0.5576
  103OSM    C5S10440   3.113   3.981  10.246  0.0678 -0.7189 -0.8600
  103OSM    H5S10441   3.062   3.885  10.266 -3.5881  1.3197  0.6194
  103OSM    C6S10442   3.183   3.997  10.115 -0.1380  0.3591  0.2293
  103OSM    H6S10443   3.246   3.911  10.084  1.8805  2.0309 -0.5058
  103OSM    H6T10444   3.258   4.077  10.128  0.9252 -0.7396  1.0660
  103OSM    C7S10445   3.075   4.033  10.013  0.1569  0.1812 -0.1355
  103OSM    H7S10446   3.015   4.118  10.053 -0.1050  0.0136 -0.1673
  103OSM    H7T10447   3.010   3.943  10.017  0.9983 -0.3913  2.1058
  103OSM    C8S10448   3.126   4.055   9.872 -0.2005 -0.7379  0.1861
  103OSM    H8S10449   3.215   4.121   9.869  0.5598 -1.7669 -2.6359
  103OSM    H8T10450   3.045   4.111   9.821  0.7336  0.0560 -0.4361
  103OSM    C9S10451   3.150   3.920   9.802  0.5928 -0.0034  0.8042
  103OSM    H9S10452   3.056   3.886   9.754  1.1308  0.6776 -0.8032
  103OSM    H9T10453   3.193   3.840   9.865 -0.1744 -0.9823  0.1041
  103OSM   C10S10454   3.252   3.942   9.683 -0.0027  0.7329 -0.2203
  103OSM   H10S10455   3.265   3.851   9.621 -2.1823  0.1049  0.1669
  103OSM   H10T10456   3.349   3.972   9.729  0.6429 -0.2318 -0.9250
  103OSM   C11S10457   3.212   4.061   9.596 -0.2517 -0.0973 -0.2767
  103OSM   H11S10458   3.225   4.156   9.652  1.7489 -0.7980  0.5382
  103OSM   H11T10459   3.114   4.040   9.547 -0.9786  0.7408  0.7804
  103OSM   C12S10460   3.315   4.079   9.480  0.0695 -0.6889 -0.9148
  103OSM   H12S10461   3.332   3.976   9.441  1.3503 -0.5146 -0.8678
  103OSM   H12T10462   3.414   4.109   9.521 -0.7513 -1.0094  1.4215
  103OSM   C13S10463   3.263   4.178   9.366 -0.2045  1.2491  0.0950
  103OSM   H13S10464   3.255   4.286   9.389  0.5610  1.0269  1.5046
  103OSM   H13T10465   3.162   4.146   9.331  1.5248 -1.5630 -2.9012
  103OSM   C14S10466   3.351   4.176   9.240  0.3530  0.8017  0.1307
  103OSM   H14S10467   3.342   4.076   9.193 -0.3862  1.3264 -0.8993
  103OSM   H14T10468   3.456   4.185   9.274 -0.0327  0.0375  1.5921
  103OSM   C15S10469   3.306   4.273   9.128  0.0727 -1.0024 -0.6299
  103OSM   H15S10470   3.362   4.257   9.034 -1.3527 -0.2663 -1.6431
  103OSM   H15T10471   3.302   4.381   9.156 -1.6969 -0.7247 -1.7563
  103OSM   C16S10472   3.158   4.252   9.088  0.0775 -0.8749 -0.3903
  103OSM   H16S10473   3.111   4.299   9.177  3.1020  1.1221  0.3047
  103OSM   H16T10474   3.130   4.145   9.078  0.7462 -0.8552 -3.4224
  103OSM   C17S10475   3.118   4.327   8.965 -0.4911 -0.5585  0.9411
  103OSM   H17S10476   3.160   4.430   8.970 -0.2686 -0.6881  4.6713
  103OSM   H17T10477   3.007   4.328   8.959 -0.4560 -0.6143  0.2602
  103OSM   C18S10478   3.147   4.259   8.829  0.2020 -0.2894  0.1296
  103OSM   H18S10479   3.074   4.177   8.808 -2.2056  1.8558 -0.4069
  103OSM   H18T10480   3.251   4.222   8.841 -0.6621 -2.9096  0.3348
  103OSM   H18U10481   3.150   4.337   8.751 -1.6002 -0.3888 -0.0949
  103OSM    C1F10482   2.798   4.339  10.444 -0.1198 -0.6361 -0.6366
  103OSM     OF10483   2.858   4.433  10.500  0.1350  0.5693  0.1889
  103OSM    C2F10484   2.658   4.353  10.384 -0.2695  0.6122  0.1579
  103OSM    H2F10485   2.597   4.398  10.465  1.8074  0.2638  2.0228
  103OSM    H2G10486   2.614   4.255  10.359  0.0492  0.5323 -0.0972
  103OSM    C3F10487   2.649   4.460  10.273 -0.5261  0.7787  1.0663
  103OSM    H3F10488   2.712   4.543  10.310  0.2599  0.3036  0.8463
  103OSM    H3G10489   2.548   4.503  10.263  0.1614  2.0432 -1.1183
  103OSM    C4F10490   2.720   4.416  10.146  0.5425 -0.5083  0.4589
  103OSM    H4F10491   2.643   4.360  10.089 -0.7999  1.0922  0.6458
  103OSM    H4G10492   2.799   4.339  10.160  1.2130 -0.6898 -3.2019
  103OSM    C5F10493   2.780   4.519  10.057 -0.8385 -0.9496  0.5059
  103OSM    H5F10494   2.827   4.592  10.127 -0.1253 -1.8025  0.9469
  103OSM    H5G10495   2.704   4.578  10.001  1.5642  0.5144 -1.4254
  103OSM    C6F10496   2.892   4.473   9.964  0.5573  0.6268 -0.2777
  103OSM    H6F10497   2.849   4.377   9.930 -1.5197  0.6862  1.8956
  103OSM    H6G10498   2.979   4.441  10.026  1.1630 -0.2502 -1.5421
  103OSM    C7F10499   2.933   4.571   9.853  0.3794  0.4647  0.1231
  103OSM    H7F10500   2.969   4.668   9.892  1.5900  0.2976 -0.5518
  103OSM    H7G10501   2.843   4.599   9.795 -0.4398 -1.9977  0.0565
  103OSM    C8F10502   3.041   4.514   9.771 -0.5023  0.5616  0.6368
  103OSM    H8F10503   3.114   4.471   9.842 -0.0028  0.2747 -0.0319
  103OSM    H8G10504   3.087   4.602   9.721 -0.4104 -0.0129 -0.3276
  103OSM    C9F10505   2.995   4.422   9.658  0.6667  0.1422 -0.0258
  103OSM    H9F10506   2.946   4.334   9.702  1.7803  0.7177  2.5837
  103OSM   C10F10507   2.986   4.443   9.527  0.8088 -0.2139 -0.4563
  103OSM   H10F10508   2.943   4.363   9.464 -0.0466 -1.5302  1.6666
  103OSM   C11F10509   3.018   4.563   9.444  0.3085  0.4837 -0.1648
  103OSM   H11F10510   3.106   4.534   9.383  0.7002  1.0099  0.1486
  103OSM   H11G10511   3.045   4.653   9.503 -0.7685  1.9321 -1.7588
  103OSM   C12F10512   2.906   4.613   9.351 -0.4878  0.5787 -0.1093
  103OSM   H12F10513   2.825   4.659   9.411  1.1843  2.0080  1.1939
  103OSM   H12G10514   2.872   4.532   9.285 -2.1824  0.7115  0.5482
  103OSM   C13F10515   2.949   4.728   9.257 -0.6473 -0.0183 -0.3794
  103OSM   H13F10516   2.984   4.813   9.319 -2.7276  0.4862  0.1521
  103OSM   H13G10517   3.047   4.702   9.210 -0.0173 -0.3770  1.0693
  103OSM   C14F10518   2.852   4.775   9.146  0.5201 -0.1206  0.0061
  103OSM   H14F10519   2.885   4.876   9.115 -1.9887  2.1250  3.8499
  103OSM   H14G10520   2.746   4.779   9.179 -1.4915 -3.9210 -4.7099
  103OSM   C15F10521   2.835   4.682   9.025 -0.4629  0.0451  0.1876
  103OSM   H15F10522   2.748   4.718   8.966  1.2854 -0.3176 -2.8108
  103OSM   H15G10523   2.805   4.584   9.066 -2.6019  0.9698  0.9857
  103OSM   C16F10524   2.957   4.678   8.926 -0.2160  0.2220  0.6342
  103OSM   H16F10525   3.038   4.623   8.978 -0.6670 -1.3165 -0.2417
  103OSM   H16G10526   2.992   4.784   8.919  2.4517 -0.7089 -2.4985
  103OSM   C17F10527   2.937   4.612   8.790  0.0014 -0.5774  0.0790
  103OSM   H17F10528   2.844   4.648   8.740 -0.0428 -1.6097 -0.6054
  103OSM   H17G10529   2.916   4.504   8.804 -0.0158 -0.5796  0.0367
  103OSM   C18F10530   3.052   4.620   8.690  0.0206 -0.1183  0.0206
  103OSM   H18F10531   3.077   4.726   8.667  1.1663 -0.0835  1.2690
  103OSM   H18G10532   3.013   4.586   8.592 -1.3326  1.1432  0.0858
  103OSM   H18H10533   3.144   4.574   8.731  1.7732  2.4208 -0.7850
  104OSM      N10534   0.503   2.833  10.935  0.1638 -0.1277 -0.1711
  104OSM    C1510535   0.363   2.857  10.984 -0.4079 -0.2359 -0.7870
  104OSM   H15A10536   0.302   2.916  10.918  0.6018 -0.1864 -1.7177
  104OSM   H15B10537   0.353   2.896  11.084 -2.2545 -0.0558 -1.0077
  104OSM   H15C10538   0.312   2.766  10.959  2.3982 -1.3801 -2.9551
  104OSM    C1410539   0.585   2.956  10.935  0.0149 -0.2928 -0.1535
  104OSM   H14A10540   0.557   3.021  11.017 -1.2448  1.5935 -1.9611
  104OSM   H14B10541   0.568   3.022  10.851 -1.0202 -0.4172 -0.0550
  104OSM   H14C10542   0.689   2.933  10.952 -0.4133 -1.9914  0.3904
  104OSM    C1310543   0.564   2.740  11.029 -0.6372  0.1666 -0.8408
  104OSM   H13A10544   0.505   2.649  11.033  0.0935 -0.3015 -0.3465
  104OSM   H13B10545   0.574   2.787  11.126  0.9562 -0.1826 -0.7997
  104OSM   H13C10546   0.668   2.719  11.008 -0.2331  1.6475 -0.4139
  104OSM    C1210547   0.487   2.773  10.795 -0.5320  0.7693  0.0858
  104OSM   H12A10548   0.447   2.673  10.799 -0.2752  0.7033  1.6781
  104OSM   H12B10549   0.587   2.779  10.753 -0.9895  1.5649 -0.9458
  104OSM    C1110550   0.400   2.864  10.703 -0.2244 -0.4860 -0.2863
  104OSM   H11A10551   0.413   2.817  10.604 -0.9381 -0.7921 -0.2395
  104OSM   H11B10552   0.454   2.961  10.708  1.1141 -1.2628  2.4473
  104OSM      P10553   0.167   2.978  10.677  0.1792  0.0480  0.2578
  104OSM    O1310554   0.042   2.926  10.610 -0.1194  0.1969 -0.7369
  104OSM    O1410555   0.147   3.079  10.782  0.2360  0.0812 -0.3880
  104OSM    O1110556   0.257   3.030  10.556 -0.1038 -0.3692  0.2930
  104OSM    O1210557   0.257   2.866  10.734  0.2836  0.0402 -0.3030
  104OSM    C1S10558   0.233   3.156  10.484 -0.3146 -0.5437  0.1228
  104OSM    H1S10559   0.245   3.250  10.540  0.9627 -0.3013 -0.4978
  104OSM    H1T10560   0.127   3.160  10.450 -0.6801  1.9032  1.3959
  104OSM     NF10561   0.288   3.282  10.276 -0.8852 -0.0319  0.3167
  104OSM    HNF10562   0.211   3.265  10.215 -1.2813  0.3969  0.6906
  104OSM    C2S10563   0.325   3.159  10.351 -0.0016  0.1350 -0.0982
  104OSM    H2S10564   0.430   3.168  10.388 -0.0960 -0.6260  0.3763
  104OSM    C3S10565   0.307   3.036  10.263  0.3741  0.4589 -0.7460
  104OSM    H3S10566   0.202   3.044  10.228 -0.2442 -1.1392  0.6241
  104OSM     O310567   0.297   2.909  10.338 -0.0268 -0.2133 -0.8154
  104OSM    HO310568   0.288   2.935  10.430 -0.0831  1.3440 -1.2483
  104OSM    C4S10569   0.412   3.021  10.151 -0.3528 -0.1456 -0.5069
  104OSM    H4S10570   0.368   3.061  10.059  1.4077  0.4671 -1.1344
  104OSM    C5S10571   0.524   2.956  10.145  0.9103 -0.3835  0.6129
  104OSM    H5S10572   0.545   2.888  10.229 -0.1940 -1.6789 -0.1178
  104OSM    C6S10573   0.603   2.944  10.019 -0.1892 -0.0155  0.6105
  104OSM    H6S10574   0.634   2.840   9.997  1.0670  0.3837  0.4430
  104OSM    H6T10575   0.690   3.012  10.023 -1.7487  1.9945  2.2513
  104OSM    C7S10576   0.541   2.986   9.884  0.2587  1.3810  0.7683
  104OSM    H7S10577   0.498   3.088   9.884 -0.9005  0.9196  1.6645
  104OSM    H7T10578   0.461   2.912   9.863  0.7764  0.5553  1.6324
  104OSM    C8S10579   0.629   2.975   9.754  0.5204 -0.4092  0.0460
  104OSM    H8S10580   0.653   2.866   9.748  0.2555 -0.6084  2.0666
  104OSM    H8T10581   0.721   3.035   9.769 -0.0828  0.5613 -0.0673
  104OSM    C9S10582   0.554   3.027   9.628 -0.3466 -0.4785  0.1986
  104OSM    H9S10583   0.547   3.137   9.642  1.7336 -0.3933  0.9090
  104OSM    H9T10584   0.453   2.982   9.615 -0.3810 -0.7740  1.3466
  104OSM   C10S10585   0.631   3.011   9.498  0.4850  0.1127  0.2315
  104OSM   H10S10586   0.686   2.914   9.488  1.6606  0.8060 -0.2476
  104OSM   H10T10587   0.697   3.100   9.493  1.4198 -0.5859 -0.3890
  104OSM   C11S10588   0.542   3.024   9.374  0.8544  1.0557 -0.7308
  104OSM   H11S10589   0.484   3.116   9.394  1.4366  1.5497 -1.2811
  104OSM   H11T10590   0.469   2.941   9.376 -1.7454  3.2331 -0.4892
  104OSM   C12S10591   0.603   3.031   9.237  0.8293 -0.1172 -0.0409
  104OSM   H12S10592   0.663   2.938   9.222 -2.2313 -2.2037 -0.2550
  104OSM   H12T10593   0.660   3.126   9.240 -1.3512  1.3039 -1.0446
  104OSM   C13S10594   0.495   3.029   9.129 -0.1285 -0.4946  0.1282
  104OSM   H13S10595   0.433   3.120   9.122 -1.8180 -1.6681 -1.2505
  104OSM   H13T10596   0.427   2.942   9.143 -0.4346 -0.2135  0.4105
  104OSM   C14S10597   0.543   3.014   8.981  0.3385 -0.1184 -0.0525
  104OSM   H14S10598   0.463   2.986   8.909  0.6070 -2.6245  0.5196
  104OSM   H14T10599   0.623   2.937   8.982  0.8684  0.4303  0.1685
  104OSM   C15S10600   0.610   3.142   8.924 -0.0949 -0.0256  0.9222
  104OSM   H15S10601   0.683   3.184   8.997  1.7677 -1.4987  0.0058
  104OSM   H15T10602   0.534   3.221   8.912 -1.4869 -1.5800 -1.3500
  104OSM   C16S10603   0.674   3.127   8.786 -0.3699 -0.7211  0.0655
  104OSM   H16S10604   0.619   3.057   8.720 -0.9033  0.8856 -1.2769
  104OSM   H16T10605   0.773   3.078   8.792 -1.3855 -2.8365  0.3308
  104OSM   C17S10606   0.685   3.263   8.703  0.5604  0.0626 -0.3049
  104OSM   H17S10607   0.773   3.317   8.743  1.2581 -1.3979  0.2099
  104OSM   H17T10608   0.598   3.328   8.726 -0.7351 -2.0848  1.2989
  104OSM   C18S10609   0.705   3.237   8.549  0.8423  0.2193  0.0466
  104OSM   H18S10610   0.751   3.333   8.516 -1.8427  1.3649 -0.5899
  104OSM   H18T10611   0.617   3.206   8.489  0.0907 -1.1082  1.7539
  104OSM   H18U10612   0.790   3.172   8.520 -0.8602 -1.4556 -1.4822
  104OSM    C1F10613   0.308   3.400  10.322  0.2808 -0.5969 -0.5666
  104OSM     OF10614   0.381   3.425  10.417 -0.2033  0.1273  0.3592
  104OSM    C2F10615   0.226   3.513  10.266 -0.4068  0.4699  0.2549
  104OSM    H2F10616   0.124   3.499  10.305 -0.3716  3.0954  1.4611
  104OSM    H2G10617   0.231   3.493  10.156  1.3172 -0.3622  0.4387
  104OSM    C3F10618   0.272   3.656  10.293  0.5454  0.1877 -0.2866
  104OSM    H3F10619   0.383   3.664  10.285  0.5856  0.7900  0.7994
  104OSM    H3G10620   0.256   3.675  10.401 -0.8566 -1.6244 -0.1379
  104OSM    C4F10621   0.193   3.764  10.216 -0.1401 -1.0290  0.0165
  104OSM    H4F10622   0.222   3.865  10.254  1.7011 -0.4692 -2.6251
  104OSM    H4G10623   0.085   3.742  10.231 -0.0489 -0.6531  1.4291
  104OSM    C5F10624   0.217   3.774  10.061 -0.5432  0.0397 -0.4174
  104OSM    H5F10625   0.147   3.853  10.026 -0.4621  0.7531  0.9680
  104OSM    H5G10626   0.182   3.676  10.023 -0.3955 -1.1788  2.3148
  104OSM    C6F10627   0.351   3.815  10.013  0.2525  0.5040  0.0746
  104OSM    H6F10628   0.428   3.735  10.020  0.3533  0.3338 -2.2594
  104OSM    H6G10629   0.380   3.896  10.083  1.5105  0.5774 -0.5128
  104OSM    C7F10630   0.342   3.857   9.868  0.4146  0.3519 -0.0030
  104OSM    H7F10631   0.273   3.944   9.862  0.7745  0.7531  1.3165
  104OSM    H7G10632   0.300   3.775   9.806  1.1709 -0.0048 -0.0477
  104OSM    C8F10633   0.476   3.888   9.806 -0.5954  0.0740 -1.0335
  104OSM    H8F10634   0.460   3.912   9.699 -3.1755 -0.1484 -0.7587
  104OSM    H8G10635   0.546   3.802   9.804  0.1639  0.4816  2.1468
  104OSM    C9F10636   0.549   4.005   9.876 -0.0698  0.6412  0.0974
  104OSM    H9F10637   0.572   3.983   9.981  1.6682 -1.7113 -0.6715
  104OSM   C10F10638   0.568   4.131   9.824 -0.3668 -0.3786 -0.1574
  104OSM   H10F10639   0.618   4.209   9.883  0.4740 -1.3711  0.5022
  104OSM   C11F10640   0.526   4.170   9.691 -0.1865 -0.3899  0.2215
  104OSM   H11F10641   0.418   4.157   9.672  0.1151 -0.1104 -1.9198
  104OSM   H11G10642   0.579   4.108   9.615 -2.7014  0.5167 -2.4865
  104OSM   C12F10643   0.559   4.322   9.673  0.9629  0.2007  0.3239
  104OSM   H12F10644   0.670   4.326   9.665  0.9840  1.7771  1.0933
  104OSM   H12G10645   0.516   4.393   9.747 -1.8083 -0.2776 -0.7159
  104OSM   C13F10646   0.507   4.374   9.532 -0.4831 -0.8061 -0.2640
  104OSM   H13F10647   0.493   4.484   9.539  0.0310 -0.8053  1.0951
  104OSM   H13G10648   0.406   4.329   9.513 -0.6292 -0.3311 -0.6317
  104OSM   C14F10649   0.606   4.352   9.421 -0.3124  0.9187 -0.0899
  104OSM   H14F10650   0.625   4.244   9.403 -0.7506  0.8872 -0.3914
  104OSM   H14G10651   0.705   4.395   9.446  0.7858 -0.4298 -1.8739
  104OSM   C15F10652   0.563   4.405   9.281 -0.3329 -0.9464 -0.4282
  104OSM   H15F10653   0.565   4.516   9.294  2.5171 -1.1105  1.4021
  104OSM   H15G10654   0.456   4.377   9.269 -0.1620 -1.7453 -0.1617
  104OSM   C16F10655   0.659   4.380   9.164  0.5318  0.2100 -0.2885
  104OSM   H16F10656   0.756   4.412   9.209  0.2160 -1.9765  2.1902
  104OSM   H16G10657   0.635   4.448   9.080  0.6548 -0.2105 -0.6719
  104OSM   C17F10658   0.646   4.232   9.125  0.5121 -0.9467  0.3533
  104OSM   H17F10659   0.669   4.174   9.217  1.4956  0.5944  1.1402
  104OSM   H17G10660   0.718   4.216   9.043 -0.5791  1.4975 -1.2146
  104OSM   C18F10661   0.511   4.189   9.063  0.3138 -0.3291  0.8663
  104OSM   H18F10662   0.423   4.186   9.131  0.4362  2.1526  1.2408
  104OSM   H18G10663   0.524   4.089   9.018 -1.1015 -1.3223  2.5276
  104OSM   H18H10664   0.497   4.249   8.971 -0.2916 -1.4230  0.2243
  105OSM      N10665   0.069   2.023  10.735 -0.5818 -0.0567  0.0170
  105OSM    C1510666   0.183   1.931  10.753  0.3594 -0.1182  0.2871
  105OSM   H15A10667   0.163   1.831  10.718 -0.9184  0.3404 -0.3255
  105OSM   H15B10668   0.203   1.915  10.858 -1.0171 -0.9474  0.4499
  105OSM   H15C10669   0.276   1.958  10.705 -0.5298  1.1316 -0.7731
  105OSM    C1410670   0.054   2.057  10.591 -0.6080 -0.4369 -0.1943
  105OSM   H14A10671   0.143   2.103  10.553 -1.5272  1.6352  0.0425
  105OSM   H14B10672  -0.021   2.133  10.574 -0.4621 -0.6743 -2.1452
  105OSM   H14C10673   0.020   1.979  10.523 -0.0251  0.1483 -1.1916
  105OSM    C1310674  -0.060   1.982  10.790 -0.2084  0.2454 -0.2660
  105OSM   H13A10675  -0.135   2.058  10.775 -0.8496 -0.1470  0.8943
  105OSM   H13B10676  -0.052   1.970  10.897  1.1235  0.9366 -0.2636
  105OSM   H13C10677  -0.094   1.886  10.754 -0.4789  0.2708 -0.0739
  105OSM    C1210678   0.117   2.146  10.812 -0.1617 -0.9584 -0.2999
  105OSM   H12A10679   0.215   2.173  10.777 -1.1044  0.3320 -2.1452
  105OSM   H12B10680   0.135   2.112  10.913  0.5159  1.5511  0.5102
  105OSM    C1110681   0.030   2.277  10.810 -0.8572  0.3903 -0.0574
  105OSM   H11A10682   0.077   2.347  10.882 -1.3619  1.3949 -0.6752
  105OSM   H11B10683  -0.074   2.259  10.846 -0.1585  1.3840  2.7047
  105OSM      P10684  -0.066   2.454  10.662  0.1588 -0.0787 -0.0119
  105OSM    O1310685  -0.203   2.396  10.652 -0.0111  0.1007 -0.2733
  105OSM    O1410686  -0.062   2.553  10.775  0.5181 -0.6355  0.0210
  105OSM    O1110687  -0.030   2.527  10.533  0.5028  0.4796 -0.1955
  105OSM    O1210688   0.041   2.335  10.685  0.2572  0.2036  0.6368
  105OSM    C1S10689   0.107   2.543  10.508  0.5948  0.2681  0.6709
  105OSM    H1S10690   0.179   2.459  10.522  1.8345  1.1594 -0.1173
  105OSM    H1T10691   0.149   2.625  10.570  1.2115 -0.7230  1.5989
  105OSM     NF10692   0.272   2.622  10.332  0.5539 -0.1353  0.7603
  105OSM    HNF10693   0.296   2.718  10.315  0.9415 -0.3317  0.1738
  105OSM    C2S10694   0.128   2.582  10.355  0.1701 -0.6235 -0.1328
  105OSM    H2S10695   0.124   2.498  10.283  1.9518  0.4532 -1.5774
  105OSM    C3S10696   0.023   2.690  10.302 -0.3820 -0.5307  0.4355
  105OSM    H3S10697   0.050   2.786  10.350  1.1116 -1.0475  0.6846
  105OSM     O310698  -0.116   2.672  10.337 -0.0079 -0.0754 -0.6713
  105OSM    HO310699  -0.113   2.598  10.398  1.4428  1.0443  0.6884
  105OSM    C4S10700   0.043   2.726  10.146 -0.3906  0.0647  0.0692
  105OSM    H4S10701   0.054   2.639  10.080 -0.0973  0.5663 -0.5563
  105OSM    C5S10702   0.047   2.849  10.092 -0.1043  0.3823  0.1833
  105OSM    H5S10703   0.036   2.935  10.159  0.1303 -0.7226  1.6841
  105OSM    C6S10704   0.051   2.876   9.941  0.7592  0.2192 -0.8162
  105OSM    H6S10705   0.093   2.973   9.906  1.7960 -0.3256 -1.0937
  105OSM    H6T10706  -0.054   2.897   9.909 -0.4486 -1.7063  1.5191
  105OSM    C7S10707   0.112   2.764   9.864 -0.4434 -0.3262 -0.1892
  105OSM    H7S10708   0.069   2.663   9.884 -1.6234  0.1759 -0.1088
  105OSM    H7T10709   0.219   2.754   9.894 -0.7091 -1.8177  0.3612
  105OSM    C8S10710   0.094   2.794   9.713 -0.1384  0.0265  0.1716
  105OSM    H8S10711   0.185   2.761   9.659 -0.5829 -0.2532 -0.4258
  105OSM    H8T10712   0.081   2.903   9.700 -2.1170  0.2804  3.1650
  105OSM    C9S10713  -0.019   2.719   9.653 -0.0147  0.4429 -0.2538
  105OSM    H9S10714  -0.109   2.770   9.694  0.9091  0.3806  1.9512
  105OSM    H9T10715  -0.034   2.611   9.670 -1.1968  0.3880 -1.4289
  105OSM   C10S10716  -0.032   2.741   9.500 -0.2561 -0.3199  0.1879
  105OSM   H10S10717  -0.016   2.849   9.475  2.3540 -1.5246 -4.6920
  105OSM   H10T10718  -0.129   2.713   9.453 -0.6744  0.0661  0.8049
  105OSM   C11S10719   0.070   2.668   9.406  0.6085  0.0940 -0.3578
  105OSM   H11S10720   0.056   2.560   9.429 -0.0938  0.1710 -0.3827
  105OSM   H11T10721   0.174   2.695   9.434  0.1632  2.0857 -0.4704
  105OSM   C12S10722   0.049   2.696   9.252 -0.4150 -0.5001 -0.8932
  105OSM   H12S10723  -0.059   2.680   9.229 -1.4717 -1.8033  3.8033
  105OSM   H12T10724   0.106   2.615   9.202  0.2039 -2.5579  2.8292
  105OSM   C13S10725   0.102   2.834   9.209 -0.3050 -0.2428  0.3985
  105OSM   H13S10726   0.203   2.845   9.254  0.8373  1.3754 -2.2870
  105OSM   H13T10727   0.030   2.909   9.248  1.2851  3.0313 -2.4617
  105OSM   C14S10728   0.114   2.861   9.056  0.4455  0.2505  0.4027
  105OSM   H14S10729   0.170   2.784   8.998  0.5442  0.2508  0.4981
  105OSM   H14T10730   0.174   2.953   9.050  1.2821 -0.3250 -0.2220
  105OSM   C15S10731  -0.026   2.892   9.005 -0.3689 -0.2546  0.1618
  105OSM   H15S10732  -0.073   2.980   9.054 -0.0095  0.9064 -1.4808
  105OSM   H15T10733  -0.099   2.809   9.011  0.7508 -1.3535 -0.8347
  105OSM   C16S10734  -0.015   2.926   8.857 -1.0608 -0.5257  1.0863
  105OSM   H16S10735   0.057   2.858   8.806 -1.4342 -0.4780  0.4923
  105OSM   H16T10736   0.028   3.028   8.855  0.4389 -1.1370  0.4748
  105OSM   C17S10737  -0.146   2.909   8.778  0.5400 -1.1582  1.1171
  105OSM   H17S10738  -0.135   2.945   8.674 -2.6810 -0.9900  0.7334
  105OSM   H17T10739  -0.220   2.980   8.821  1.2984 -1.3467  2.8142
  105OSM   C18S10740  -0.223   2.779   8.772 -0.4804  0.7352  0.6553
  105OSM   H18S10741  -0.249   2.735   8.870  0.2656 -1.2801  0.0003
  105OSM   H18T10742  -0.159   2.701   8.724  0.4920  0.8873  1.6624
  105OSM   H18U10743  -0.314   2.786   8.709 -0.5489 -3.2330  0.0736
  105OSM    C1F10744   0.367   2.532  10.343 -0.2961  0.4911 -0.2791
  105OSM     OF10745   0.338   2.411  10.358 -0.6984 -0.2607  0.3473
  105OSM    C2F10746   0.514   2.591  10.336  1.2149  0.2552  0.2388
  105OSM    H2F10747   0.544   2.588  10.442 -1.3994 -1.6714  1.0245
  105OSM    H2G10748   0.508   2.697  10.301  0.1492  0.5342  1.1919
  105OSM    C3F10749   0.623   2.524  10.253 -0.1143 -0.1750 -0.0515
  105OSM    H3F10750   0.635   2.421  10.292  1.6026 -0.1099 -0.3629
  105OSM    H3G10751   0.722   2.574  10.254  0.6474 -1.6559  0.9176
  105OSM    C4F10752   0.574   2.503  10.105 -0.0353 -0.0567  0.1449
  105OSM    H4F10753   0.549   2.600  10.056 -1.1800 -0.6647 -0.5462
  105OSM    H4G10754   0.483   2.440  10.094  0.3267 -0.2327 -2.8045
  105OSM    C5F10755   0.663   2.417  10.017  0.5888 -0.3335 -0.0803
  105OSM    H5F10756   0.681   2.319  10.066  1.6512  0.6404  1.5834
  105OSM    H5G10757   0.765   2.460  10.010  0.5496  0.7880  3.8238
  105OSM    C6F10758   0.595   2.394   9.884  0.0424 -0.4663 -0.4908
  105OSM    H6F10759   0.499   2.339   9.895 -0.3435 -0.1625 -2.1146
  105OSM    H6G10760   0.651   2.314   9.830  2.1995 -0.0004  0.9131
  105OSM    C7F10761   0.583   2.517   9.792  0.1268  0.3172 -0.1389
  105OSM    H7F10762   0.683   2.553   9.759 -0.0044 -1.3047 -2.5424
  105OSM    H7G10763   0.536   2.597   9.853 -2.7782 -2.2275  1.1980
  105OSM    C8F10764   0.485   2.500   9.671 -0.1592 -0.0162  0.1988
  105OSM    H8F10765   0.392   2.446   9.700 -0.3608 -0.7907 -1.7261
  105OSM    H8G10766   0.518   2.426   9.595  0.1525  0.1498  0.1699
  105OSM    C9F10767   0.444   2.635   9.616 -0.0196  0.2475 -0.0711
  105OSM    H9F10768   0.402   2.704   9.690 -1.7442 -0.4030 -0.3790
  105OSM   C10F10769   0.440   2.664   9.481  0.8022  0.4279 -0.0229
  105OSM   H10F10770   0.395   2.759   9.448  1.2577  0.1023 -1.6586
  105OSM   C11F10771   0.485   2.579   9.364 -0.5723  0.5913 -0.2074
  105OSM   H11F10772   0.569   2.512   9.393  0.4510  1.7521 -0.4623
  105OSM   H11G10773   0.519   2.633   9.273 -1.3358  1.3384 -0.0611
  105OSM   C12F10774   0.370   2.487   9.318  0.5118 -1.0518  0.8435
  105OSM   H12F10775   0.322   2.556   9.245  3.0098 -1.0009 -0.8785
  105OSM   H12G10776   0.295   2.468   9.397 -1.9301 -1.1502 -1.3689
  105OSM   C13F10777   0.398   2.364   9.240  0.7256 -0.3350  0.9177
  105OSM   H13F10778   0.303   2.307   9.232 -0.4004  1.7440 -3.4861
  105OSM   H13G10779   0.486   2.310   9.282  2.5163  2.7223  1.4358
  105OSM   C14F10780   0.421   2.408   9.086 -0.7515  0.5235  0.0431
  105OSM   H14F10781   0.464   2.317   9.040  0.4695  1.1995 -0.1896
  105OSM   H14G10782   0.498   2.488   9.083 -1.0753  0.8280 -0.1185
  105OSM   C15F10783   0.297   2.452   9.019  0.4974  0.0040  0.3048
  105OSM   H15F10784   0.250   2.542   9.064 -1.6778 -2.2153  2.7797
  105OSM   H15G10785   0.213   2.382   9.040  0.2673  0.1471 -0.1245
  105OSM   C16F10786   0.290   2.467   8.866  0.0658  0.9861  0.0330
  105OSM   H16F10787   0.184   2.474   8.833 -0.1490 -0.2694  0.4126
  105OSM   H16G10788   0.320   2.368   8.826 -0.9437  0.7578 -0.1905
  105OSM   C17F10789   0.352   2.601   8.817 -0.2378  0.2625  0.0840
  105OSM   H17F10790   0.461   2.615   8.833 -0.0960  0.4230 -0.9653
  105OSM   H17G10791   0.300   2.674   8.882  0.0345  0.2268  0.3459
  105OSM   C18F10792   0.326   2.632   8.665  0.9630  0.4022 -0.0881
  105OSM   H18F10793   0.353   2.549   8.596  0.3161 -0.0482  0.1884
  105OSM   H18G10794   0.371   2.729   8.635 -0.2401  1.1233  0.3533
  105OSM   H18H10795   0.216   2.642   8.655  1.0644  1.3080 -0.3818
  106OSM      N10796   1.345   1.152  10.810  0.6973  0.5077 -0.4755
  106OSM    C1510797   1.451   1.120  10.708  0.1272  0.5700 -0.3107
  106OSM   H15A10798   1.478   1.016  10.702 -0.6603  0.3377 -0.0115
  106OSM   H15B10799   1.544   1.166  10.738 -0.3906  1.4543 -0.0082
  106OSM   H15C10800   1.424   1.150  10.608 -0.5385 -0.5607 -0.4857
  106OSM    C1410801   1.396   1.104  10.943  0.7120 -0.1658  0.1613
  106OSM   H14A10802   1.493   1.144  10.966 -0.6347  2.4477  1.7488
  106OSM   H14B10803   1.402   0.996  10.950  4.7727 -0.0471  0.9033
  106OSM   H14C10804   1.319   1.126  11.016 -0.2811 -2.7030  0.0228
  106OSM    C1310805   1.315   1.304  10.805  0.0376 -0.5773  0.0523
  106OSM   H13A10806   1.396   1.352  10.751 -0.1265  0.0269  0.3393
  106OSM   H13B10807   1.316   1.342  10.906  2.8645 -0.6985  0.1683
  106OSM   H13C10808   1.230   1.329  10.743 -1.4191 -1.9316  1.4043
  106OSM    C1210809   1.217   1.073  10.776 -0.4903  0.2629 -0.7602
  106OSM   H12A10810   1.142   1.101  10.849  0.1505  0.0155  0.0060
  106OSM   H12B10811   1.223   0.966  10.791 -1.6044 -0.0076 -1.9730
  106OSM    C1110812   1.147   1.088  10.637  0.0400  0.4064 -0.3405
  106OSM   H11A10813   1.061   1.018  10.641  0.7876 -0.5063  0.0857
  106OSM   H11B10814   1.218   1.062  10.556  0.2909  0.5677 -0.1709
  106OSM      P10815   0.973   1.269  10.731  0.3171 -0.0683 -0.0052
  106OSM    O1310816   0.957   1.176  10.839  0.0826  0.5351 -0.3731
  106OSM    O1410817   0.999   1.410  10.762  0.1643  0.4551 -0.2795
  106OSM    O1110818   0.834   1.274  10.651  0.1088  0.1823 -0.1957
  106OSM    O1210819   1.078   1.215  10.627 -0.9463  0.1330  0.7829
  106OSM    C1S10820   0.838   1.340  10.525  0.6257  0.4900  0.3506
  106OSM    H1S10821   0.886   1.440  10.527 -0.8789  1.2487 -0.0210
  106OSM    H1T10822   0.730   1.352  10.502  0.7877  0.5253 -0.4180
  106OSM     NF10823   0.890   1.345  10.283  0.5071 -0.1793  0.3091
  106OSM    HNF10824   0.811   1.336  10.224  0.6102 -2.3215  0.4210
  106OSM    C2S10825   0.894   1.255  10.400  0.2507 -0.3003  0.2062
  106OSM    H2S10826   0.997   1.226  10.431  0.8162 -1.0502 -2.2237
  106OSM    C3S10827   0.817   1.121  10.383 -0.2823  0.3633  0.4991
  106OSM    H3S10828   0.713   1.131  10.347  0.8731  3.0105 -2.5795
  106OSM     O310829   0.795   1.050  10.505 -0.0096 -0.2549  0.0528
  106OSM    HO310830   0.817   1.118  10.569  2.1649  0.9489 -1.8541
  106OSM    C4S10831   0.883   1.039  10.273 -0.0447  0.4465 -0.0672
  106OSM    H4S10832   0.837   1.046  10.174  0.7160 -0.4679 -0.5008
  106OSM    C5S10833   0.989   0.961  10.289 -0.4980  0.3620 -0.3237
  106OSM    H5S10834   1.033   0.959  10.390 -0.1246  0.4894 -0.4801
  106OSM    C6S10835   1.066   0.876  10.186  0.3301 -0.0841  0.0820
  106OSM    H6S10836   1.050   0.771  10.216  0.0980 -0.1390 -0.2247
  106OSM    H6T10837   1.175   0.881  10.203  0.3570 -1.3477  0.3491
  106OSM    C7S10838   1.045   0.877  10.034 -0.5530 -0.2405  0.0903
  106OSM    H7S10839   1.053   0.982   9.999  0.1542 -0.4613 -0.4496
  106OSM    H7T10840   0.941   0.847  10.008 -1.0201 -0.2637  1.8835
  106OSM    C8S10841   1.153   0.792   9.964  0.6132  0.1751 -0.7142
  106OSM    H8S10842   1.147   0.686   9.995  2.3788  0.2725  0.1053
  106OSM    H8T10843   1.248   0.849   9.973  1.4894 -1.3897  0.4799
  106OSM    C9S10844   1.116   0.792   9.812 -0.0056 -0.5320 -0.8306
  106OSM    H9S10845   1.148   0.892   9.778  3.0381 -1.2959 -0.5209
  106OSM    H9T10846   1.006   0.785   9.801  0.0175 -1.9210 -0.3856
  106OSM   C10S10847   1.179   0.681   9.731  0.1814  0.4934 -0.0433
  106OSM   H10S10848   1.142   0.581   9.763 -2.2960  1.3187 -0.1536
  106OSM   H10T10849   1.289   0.686   9.748  0.1249 -0.4369  0.6542
  106OSM   C11S10850   1.142   0.700   9.582 -0.6362  0.0378 -0.6394
  106OSM   H11S10851   1.192   0.792   9.546  1.1972 -1.3048 -1.7261
  106OSM   H11T10852   1.032   0.702   9.571 -0.6843 -0.1872 -0.2226
  106OSM   C12S10853   1.209   0.588   9.495  0.4779  0.3957  0.1959
  106OSM   H12S10854   1.186   0.482   9.519  0.5740  0.5057  0.7902
  106OSM   H12T10855   1.320   0.590   9.498  0.5203  0.2024 -0.7927
  106OSM   C13S10856   1.172   0.619   9.345  0.6303 -0.1271 -0.6496
  106OSM   H13S10857   1.209   0.721   9.324 -0.2987  0.0894 -1.2589
  106OSM   H13T10858   1.063   0.628   9.328  0.4712  0.0388  0.4115
  106OSM   C14S10859   1.247   0.515   9.253  0.3639  0.1594 -0.1646
  106OSM   H14S10860   1.204   0.413   9.258  1.0062 -0.0739  0.9620
  106OSM   H14T10861   1.350   0.503   9.294 -0.5216  0.1446  2.1905
  106OSM   C15S10862   1.253   0.563   9.115 -0.7333 -0.1491 -0.4583
  106OSM   H15S10863   1.294   0.666   9.109  1.7100 -1.0878 -1.4079
  106OSM   H15T10864   1.146   0.563   9.086 -0.6614  1.7259 -0.8407
  106OSM   C16S10865   1.333   0.482   9.020  0.0522  0.7928  0.3999
  106OSM   H16S10866   1.440   0.478   9.048 -0.3934 -0.8983  2.0858
  106OSM   H16T10867   1.332   0.525   8.917  0.5278 -1.2798 -0.5360
  106OSM   C17S10868   1.289   0.330   9.016  0.2190 -1.2677  0.6358
  106OSM   H17S10869   1.178   0.324   9.020  0.1965 -3.6112 -1.3238
  106OSM   H17T10870   1.329   0.283   9.108 -2.6428  0.8183  3.1388
  106OSM   C18S10871   1.342   0.252   8.890  0.1237  0.3961 -0.0251
  106OSM   H18S10872   1.452   0.244   8.903 -0.1279 -1.3440  1.4367
  106OSM   H18T10873   1.320   0.304   8.794 -0.0744 -0.9294 -0.7157
  106OSM   H18U10874   1.299   0.150   8.889  1.7288 -0.3180  0.8631
  106OSM    C1F10875   0.971   1.447  10.277  0.2586  0.1205 -0.4440
  106OSM     OF10876   1.064   1.474  10.352 -0.7369  0.1744  0.5151
  106OSM    C2F10877   0.950   1.555  10.168  0.1586 -0.4265 -0.1636
  106OSM    H2F10878   0.987   1.646  10.220  1.4107  0.1111 -1.9111
  106OSM    H2G10879   0.844   1.559  10.133  0.5099 -0.2936 -1.2429
  106OSM    C3F10880   1.034   1.521  10.046 -0.4700  0.4215  0.6163
  106OSM    H3F10881   1.140   1.506  10.075 -0.9898  0.7645  2.9210
  106OSM    H3G10882   1.032   1.612   9.982  1.9058 -0.5743 -0.9839
  106OSM    C4F10883   0.990   1.406   9.957  0.7646  1.1338  0.1971
  106OSM    H4F10884   1.015   1.314  10.014  2.1083  1.2583 -0.1589
  106OSM    H4G10885   1.052   1.413   9.865  1.3636 -0.9347  0.3899
  106OSM    C5F10886   0.840   1.394   9.912  0.0094  0.8150 -0.2885
  106OSM    H5F10887   0.770   1.369   9.994  2.2544 -2.5104  0.8056
  106OSM    H5G10888   0.835   1.305   9.845 -0.3010 -0.3506  1.2350
  106OSM    C6F10889   0.803   1.526   9.843  0.6698  1.2876 -0.2158
  106OSM    H6F10890   0.890   1.573   9.792  0.9374  0.0136 -0.9729
  106OSM    H6G10891   0.770   1.593   9.925 -0.8940  0.0814  0.1779
  106OSM    C7F10892   0.687   1.508   9.746 -0.1923  0.4137  0.9027
  106OSM    H7F10893   0.640   1.608   9.731  1.8079  1.1151 -1.4205
  106OSM    H7G10894   0.607   1.447   9.793 -1.3925  1.2683  0.0377
  106OSM    C8F10895   0.729   1.453   9.599 -0.5063  0.0004 -0.7153
  106OSM    H8F10896   0.637   1.416   9.549 -0.8995  2.0956 -1.6192
  106OSM    H8G10897   0.791   1.365   9.628  0.1414  0.5371 -0.4181
  106OSM    C9F10898   0.804   1.553   9.512 -0.1750 -0.2244  0.4896
  106OSM    H9F10899   0.901   1.581   9.554 -0.1038 -0.7024  0.6500
  106OSM   C10F10900   0.760   1.608   9.397  0.0801  0.4732  0.2552
  106OSM   H10F10901   0.811   1.680   9.332 -1.3781  0.7976 -0.5837
  106OSM   C11F10902   0.618   1.594   9.338  0.5338 -0.4202  0.0709
  106OSM   H11F10903   0.582   1.489   9.343 -0.8939  0.0527  0.3399
  106OSM   H11G10904   0.611   1.614   9.229 -3.9234  1.1256  0.4324
  106OSM   C12F10905   0.515   1.681   9.401  0.2049 -0.5087 -1.0218
  106OSM   H12F10906   0.546   1.788   9.406 -0.7263 -0.2872  0.6970
  106OSM   H12G10907   0.512   1.650   9.508  1.2504 -1.1060 -1.1571
  106OSM   C13F10908   0.374   1.666   9.336 -0.1077  0.0121 -0.0766
  106OSM   H13F10909   0.350   1.557   9.338  1.0332 -0.2849 -1.3248
  106OSM   H13G10910   0.369   1.695   9.229  1.2158 -1.1691 -0.4986
  106OSM   C14F10911   0.260   1.740   9.406  0.5017  0.4517  0.7559
  106OSM   H14F10912   0.247   1.722   9.515  0.1630  0.2517  0.6852
  106OSM   H14G10913   0.164   1.721   9.353  1.3645 -0.5012 -0.5239
  106OSM   C15F10914   0.279   1.898   9.396 -0.2604 -0.3523 -0.2075
  106OSM   H15F10915   0.282   1.930   9.290 -0.2083 -1.0746 -0.4292
  106OSM   H15G10916   0.370   1.928   9.451  0.2998 -0.4428 -1.0667
  106OSM   C16F10917   0.156   1.974   9.461 -0.0264 -0.2238 -0.1484
  106OSM   H16F10918   0.144   1.933   9.564  3.3712 -0.6544  0.1808
  106OSM   H16G10919   0.067   1.952   9.399  1.3534 -4.9277 -0.8141
  106OSM   C17F10920   0.177   2.125   9.472 -0.2645 -0.3152  0.0276
  106OSM   H17F10921   0.189   2.171   9.371 -0.3761  2.6277  1.2528
  106OSM   H17G10922   0.257   2.159   9.541  0.7265 -1.3362 -0.5851
  106OSM   C18F10923   0.052   2.196   9.515  0.0725  0.4590  0.2602
  106OSM   H18F10924  -0.039   2.147   9.474  2.3518 -3.6073 -0.3954
  106OSM   H18G10925   0.061   2.303   9.488 -1.0736  0.9084  1.5177
  106OSM   H18H10926   0.039   2.201   9.626  0.8117  1.0901  0.3274
  107OSM      N10927   2.111   5.571  11.324  0.4866  0.4962 -0.3450
  107OSM    C1510928   2.012   5.686  11.312  0.0324  0.3726  0.0938
  107OSM   H15A10929   2.049   5.775  11.360 -0.5182  2.0466 -2.4252
  107OSM   H15B10930   1.909   5.664  11.336 -0.3973  2.4569  0.3310
  107OSM   H15C10931   2.013   5.723  11.211  2.0538  0.8449  0.2375
  107OSM    C1410932   2.252   5.618  11.301 -0.3195  0.1027  0.2008
  107OSM   H14A10933   2.269   5.714  11.347  1.4408 -0.2458  0.3382
  107OSM   H14B10934   2.278   5.628  11.197  3.1361 -0.5069  0.9045
  107OSM   H14C10935   2.312   5.544  11.351 -1.7786 -0.3578  1.3490
  107OSM    C1310936   2.096   5.515  11.464 -0.1584  0.1367  0.0534
  107OSM   H13A10937   2.160   5.430  11.479 -1.0602 -0.0643  3.5940
  107OSM   H13B10938   2.001   5.474  11.497  0.3110 -1.5247 -0.5765
  107OSM   H13C10939   2.116   5.590  11.539 -0.8622  0.7739 -0.3709
  107OSM    C1210940   2.079   5.467  11.223  0.7258 -0.7060 -0.9117
  107OSM   H12A10941   1.984   5.420  11.244 -0.0049  1.4240  0.8997
  107OSM   H12B10942   2.163   5.399  11.229  1.9051  0.6817 -1.1880
  107OSM    C1110943   2.079   5.516  11.076 -0.1287 -0.3103 -0.3489
  107OSM   H11A10944   2.087   5.431  11.005 -0.9648 -0.2859 -0.4834
  107OSM   H11B10945   2.170   5.576  11.058 -0.3358  0.0512 -0.2075
  107OSM      P10946   1.836   5.547  11.024 -0.1841  0.1859 -0.0856
  107OSM    O1310947   1.847   5.399  11.006 -0.2191 -0.5475  0.2672
  107OSM    O1410948   1.750   5.585  11.138 -0.1544  0.0035  0.5012
  107OSM    O1110949   1.775   5.611  10.893  0.0478  0.8012 -0.0287
  107OSM    O1210950   1.981   5.610  11.036  0.0286  0.0560  0.5228
  107OSM    C1S10951   1.848   5.609  10.771 -0.1192 -0.1690  0.3859
  107OSM    H1S10952   1.933   5.538  10.773 -0.2738 -0.3662 -0.0131
  107OSM    H1T10953   1.886   5.711  10.748 -0.7886 -0.0047 -0.0223
  107OSM     NF10954   1.849   5.544  10.542  0.2625 -0.7440  0.2079
  107OSM    HNF10955   1.871   5.611  10.472 -0.8180 -0.4326  0.1496
  107OSM    C2S10956   1.757   5.566  10.650 -0.4731  0.2906 -0.6745
  107OSM    H2S10957   1.712   5.472  10.687 -0.6756  0.8279  0.5139
  107OSM    C3S10958   1.645   5.669  10.626 -0.4900 -0.3410  0.3249
  107OSM    H3S10959   1.686   5.759  10.574  0.6082 -1.8516 -1.5738
  107OSM     O310960   1.570   5.713  10.746  0.1359 -0.1173  0.0739
  107OSM    HO310961   1.623   5.697  10.824 -0.6135 -1.1546  0.3983
  107OSM    C4S10962   1.554   5.628  10.512  0.4608 -0.3964  0.4506
  107OSM    H4S10963   1.591   5.669  10.417 -1.2054 -1.2191 -0.6076
  107OSM    C5S10964   1.428   5.574  10.514 -0.9703  0.3847 -0.5286
  107OSM    H5S10965   1.383   5.546  10.611  0.7169  1.9815  0.8015
  107OSM    C6S10966   1.344   5.540  10.399  0.1538  0.2479  0.3399
  107OSM    H6S10967   1.238   5.559  10.426 -0.4416 -3.1528  0.9198
  107OSM    H6T10968   1.342   5.429  10.386 -0.1034  0.0897  1.6439
  107OSM    C7S10969   1.407   5.577  10.262  0.3318 -0.2562  0.0212
  107OSM    H7S10970   1.510   5.539  10.242  1.1966  2.4572 -1.2044
  107OSM    H7T10971   1.417   5.688  10.264  1.2854 -0.2903 -1.1623
  107OSM    C8S10972   1.311   5.550  10.147  0.3379 -0.2130 -0.2718
  107OSM    H8S10973   1.226   5.621  10.154  1.5132  1.0791  2.3812
  107OSM    H8T10974   1.266   5.449  10.151 -0.3256  0.0292 -1.2369
  107OSM    C9S10975   1.394   5.569  10.017  0.4197 -0.8217 -0.8632
  107OSM    H9S10976   1.465   5.484  10.009  2.0408  0.3609  0.3006
  107OSM    H9T10977   1.458   5.659  10.028  0.0721 -0.4841 -1.5318
  107OSM   C10S10978   1.317   5.574   9.889 -0.1759  0.3283 -0.6794
  107OSM   H10S10979   1.245   5.659   9.888 -0.4891  0.0733 -2.7461
  107OSM   H10T10980   1.254   5.486   9.867  1.6577 -1.3944  0.6077
  107OSM   C11S10981   1.412   5.591   9.764  0.1068 -0.1308  0.0939
  107OSM   H11S10982   1.462   5.494   9.746 -0.4025 -0.5206  0.7260
  107OSM   H11T10983   1.481   5.669   9.804 -0.6490  0.6348 -0.0775
  107OSM   C12S10984   1.323   5.643   9.649 -0.9217  0.3766 -0.5350
  107OSM   H12S10985   1.322   5.754   9.651 -2.2622  0.3760 -0.4976
  107OSM   H12T10986   1.221   5.600   9.654 -0.3489 -1.2494 -2.1477
  107OSM   C13S10987   1.385   5.593   9.515 -0.1698  0.2231 -0.0704
  107OSM   H13S10988   1.376   5.483   9.511 -1.1717  0.2532  0.7407
  107OSM   H13T10989   1.493   5.618   9.519  0.1393 -1.0510 -0.2036
  107OSM   C14S10990   1.318   5.660   9.396 -0.6412  0.1967  0.4026
  107OSM   H14S10991   1.337   5.768   9.413  0.5992  0.7221 -3.4447
  107OSM   H14T10992   1.207   5.651   9.394 -0.5988 -0.2816 -1.4954
  107OSM   C15S10993   1.376   5.630   9.269  0.4408 -0.1782  0.5031
  107OSM   H15S10994   1.315   5.545   9.233 -1.4415  0.5995  1.6731
  107OSM   H15T10995   1.482   5.599   9.272  0.7728  0.8035 -0.3696
  107OSM   C16S10996   1.359   5.737   9.162 -0.2306 -0.2573 -0.2618
  107OSM   H16S10997   1.447   5.798   9.131 -0.5606 -0.4586 -1.6406
  107OSM   H16T10998   1.270   5.800   9.179 -0.5881 -0.8715  0.1873
  107OSM   C17S10999   1.323   5.667   9.027  0.4030  0.4016  0.2778
  107OSM   H17S11000   1.224   5.616   9.032  0.9794 -0.6549  3.0800
  107OSM   H17T11001   1.399   5.588   9.007  0.6441  0.4620  0.9394
  107OSM   C18S11002   1.310   5.762   8.906  0.8126  0.9462 -0.1111
  107OSM   H18S11003   1.229   5.832   8.934  0.4810 -0.0082  1.4842
  107OSM   H18T11004   1.267   5.696   8.828 -0.2921 -1.0846  2.1082
  107OSM   H18U11005   1.405   5.815   8.882  0.0293  1.5082 -2.1154
  107OSM    C1F11006   1.921   5.436  10.534  0.0982  0.3009 -0.0173
  107OSM     OF11007   1.927   5.347  10.616  0.1883 -0.1840  0.2540
  107OSM    C2F11008   2.006   5.418  10.404  0.1599 -0.2452  0.5518
  107OSM    H2F11009   2.043   5.520  10.379  1.1200 -1.0815 -1.6524
  107OSM    H2G11010   1.938   5.391  10.321  0.2197 -0.1063  0.4565
  107OSM    C3F11011   2.111   5.301  10.413  0.0831  0.7096  0.1561
  107OSM    H3F11012   2.073   5.199  10.433  0.2533  0.6846  0.3520
  107OSM    H3G11013   2.176   5.327  10.499 -0.5194 -1.3454  1.2902
  107OSM    C4F11014   2.190   5.291  10.280 -0.5421 -0.3727  0.0904
  107OSM    H4F11015   2.278   5.228  10.306 -1.3667 -1.2310  0.8633
  107OSM    H4G11016   2.225   5.393  10.252 -2.5213 -0.1762 -1.9550
  107OSM    C5F11017   2.113   5.219  10.171 -0.2085 -0.0188  0.5648
  107OSM    H5F11018   2.016   5.270  10.151 -0.3299 -0.9300 -1.3808
  107OSM    H5G11019   2.105   5.110  10.192 -1.4564 -0.2596 -0.9715
  107OSM    C6F11020   2.187   5.224  10.032 -0.0662 -0.3480  0.0987
  107OSM    H6F11021   2.116   5.167   9.967 -0.4037 -1.0076  1.0237
  107OSM    H6G11022   2.279   5.162  10.036 -1.1354 -1.9762  0.2558
  107OSM    C7F11023   2.207   5.361   9.965  0.0120  0.5760 -0.0744
  107OSM    H7F11024   2.252   5.435  10.034  0.1819  1.4888 -1.1379
  107OSM    H7G11025   2.110   5.396   9.924  0.1195  1.7833  0.6641
  107OSM    C8F11026   2.308   5.349   9.844 -0.5327  0.1145 -0.1084
  107OSM    H8F11027   2.407   5.333   9.891 -0.5276 -3.0089 -0.9269
  107OSM    H8G11028   2.314   5.444   9.786  3.2427 -0.3940 -0.7946
  107OSM    C9F11029   2.286   5.228   9.753  0.7132 -0.3225 -0.1389
  107OSM    H9F11030   2.359   5.146   9.767 -1.8742 -2.3273  3.1851
  107OSM   C10F11031   2.196   5.218   9.657  0.5677 -0.4164  0.3678
  107OSM   H10F11032   2.202   5.129   9.593  0.7455  0.7074 -1.2402
  107OSM   C11F11033   2.091   5.319   9.621 -1.1152  0.2156 -1.6331
  107OSM   H11F11034   2.130   5.419   9.649  0.4085 -0.8390  0.3126
  107OSM   H11G11035   2.006   5.278   9.680 -1.6688  1.2124 -1.7169
  107OSM   C12F11036   2.057   5.315   9.475  0.0059 -0.3678 -0.1148
  107OSM   H12F11037   1.971   5.383   9.455  0.0454 -0.7441 -1.7408
  107OSM   H12G11038   2.038   5.210   9.442 -0.8529 -0.2301 -0.0963
  107OSM   C13F11039   2.167   5.374   9.378 -0.2278 -0.1006 -0.4014
  107OSM   H13F11040   2.264   5.321   9.389 -0.0897 -0.1621 -1.7339
  107OSM   H13G11041   2.184   5.482   9.397 -0.1275 -0.0082 -0.9808
  107OSM   C14F11042   2.123   5.380   9.226  0.3624  0.1295 -0.0154
  107OSM   H14F11043   2.026   5.434   9.212  0.7870  0.3537 -2.7330
  107OSM   H14G11044   2.112   5.276   9.187 -1.7010 -0.1545  1.1710
  107OSM   C15F11045   2.223   5.454   9.140  0.4788 -0.1692 -0.0509
  107OSM   H15F11046   2.313   5.399   9.104  0.8119  1.5806 -2.0768
  107OSM   H15G11047   2.279   5.531   9.198  0.4788  1.8146 -2.5043
  107OSM   C16F11048   2.166   5.512   9.017  0.2920  0.2160 -0.0235
  107OSM   H16F11049   2.076   5.575   9.036 -1.6039 -1.6412 -2.2787
  107OSM   H16G11050   2.138   5.432   8.946  1.8774 -1.5602  1.2445
  107OSM   C17F11051   2.267   5.610   8.958  0.3404  0.5911 -1.1024
  107OSM   H17F11052   2.362   5.560   8.930 -0.8284 -1.6722 -1.2061
  107OSM   H17G11053   2.292   5.673   9.046 -2.0025 -1.0040  0.8252
  107OSM   C18F11054   2.218   5.674   8.833  0.5918 -0.3786 -0.1005
  107OSM   H18F11055   2.120   5.724   8.852  0.8259 -0.0470  0.2348
  107OSM   H18G11056   2.188   5.601   8.755 -0.4064 -1.5797  1.3401
  107OSM   H18H11057   2.269   5.766   8.798 -1.2524  1.0258  0.7273
  108OSM      N11058   5.945   1.595  10.732 -0.3940 -0.0361  0.4706
  108OSM    C1511059   5.815   1.525  10.746  0.1608  0.1501  0.0073
  108OSM   H15A11060   5.777   1.511  10.645  1.1884  0.4886 -0.4351
  108OSM   H15B11061   5.746   1.586  10.802 -1.9121 -1.1625 -0.9632
  108OSM   H15C11062   5.821   1.430  10.796 -1.7795 -0.7630 -1.3546
  108OSM    C1411063   5.999   1.671  10.854 -0.1121 -0.0398  0.5679
  108OSM   H14A11064   5.993   1.607  10.942  0.4405  0.0325  0.6636
  108OSM   H14B11065   5.937   1.758  10.871 -1.5069 -0.7488 -0.6325
  108OSM   H14C11066   6.102   1.702  10.845 -0.5882  1.4096 -0.1784
  108OSM    C1311067   6.054   1.486  10.703  0.5322 -0.8498 -0.3238
  108OSM   H13A11068   6.047   1.429  10.611 -0.3656  1.9312 -2.0864
  108OSM   H13B11069   6.055   1.417  10.786  1.0182 -0.6950 -0.2017
  108OSM   H13C11070   6.149   1.536  10.707  0.6602 -1.1536  3.6156
  108OSM    C1211071   5.930   1.693  10.617  0.1018  0.0604  0.1968
  108OSM   H12A11072   5.905   1.638  10.527  3.5014  0.1880 -0.9845
  108OSM   H12B11073   6.025   1.740  10.595 -1.3378  2.3524 -1.5952
  108OSM    C1111074   5.837   1.808  10.636  0.2596 -0.6990 -0.5528
  108OSM   H11A11075   5.754   1.773  10.700  1.8848  0.1532  2.2037
  108OSM   H11B11076   5.799   1.845  10.539  0.0492 -1.3341 -0.7152
  108OSM      P11077   6.005   2.000  10.668  0.2554 -0.1357  0.0463
  108OSM    O1311078   5.992   2.124  10.736 -0.7502 -0.3236  0.4357
  108OSM    O1411079   6.135   1.937  10.686  0.9299  0.2522 -0.2320
  108OSM    O1111080   5.977   2.013  10.508 -0.3298 -0.1409 -0.3633
  108OSM    O1211081   5.895   1.907  10.718 -0.1942  0.0312  0.1466
  108OSM    C1S11082   5.884   2.098  10.451  0.1387  0.3014 -0.3968
  108OSM    H1S11083   5.896   2.201  10.490 -0.3218  0.0884  0.3294
  108OSM    H1T11084   5.780   2.072  10.479 -0.4597  1.4682 -1.4503
  108OSM     NF11085   5.839   2.231  10.243 -0.3081  0.3680 -0.0803
  108OSM    HNF11086   5.740   2.239  10.235 -0.2988 -1.1949 -2.4973
  108OSM    C2S11087   5.898   2.106  10.299 -0.6344 -0.3651  0.0504
  108OSM    H2S11088   6.006   2.108  10.275 -0.8865  1.0689 -1.1355
  108OSM    C3S11089   5.840   1.972  10.240 -0.5589  0.0606 -0.2381
  108OSM    H3S11090   5.738   1.962  10.284 -0.8483 -2.2612 -1.3139
  108OSM     O311091   5.915   1.852  10.273  0.3199 -0.5910 -0.2574
  108OSM    HO311092   5.971   1.870  10.349 -3.0507 -1.3613  2.6987
  108OSM    C4S11093   5.823   1.978  10.096 -0.4498  0.5853  0.4854
  108OSM    H4S11094   5.919   1.975  10.042  0.2287  2.1950  1.5042
  108OSM    C5S11095   5.705   1.976  10.026 -0.4216  0.1820  0.2790
  108OSM    H5S11096   5.611   1.980  10.084 -1.7562  0.4718 -1.7960
  108OSM    C6S11097   5.691   1.980   9.882 -0.0241 -0.0514  0.0534
  108OSM    H6S11098   5.609   2.051   9.861 -1.0377 -1.8176 -2.4591
  108OSM    H6T11099   5.657   1.882   9.842 -1.2504  1.0216 -1.6861
  108OSM    C7S11100   5.803   2.033   9.788  0.1088 -0.4495 -0.7137
  108OSM    H7S11101   5.885   1.959   9.791 -1.5113 -2.4189  4.1478
  108OSM    H7T11102   5.844   2.121   9.842 -0.3011 -1.8829  2.1171
  108OSM    C8S11103   5.749   2.044   9.648  0.2280  0.1810  0.4318
  108OSM    H8S11104   5.669   2.121   9.642 -0.3669 -0.4401  0.3284
  108OSM    H8T11105   5.707   1.947   9.615 -1.5371  0.7829  0.8274
  108OSM    C9S11106   5.855   2.092   9.545 -0.3934 -0.2549 -0.3488
  108OSM    H9S11107   5.944   2.032   9.573 -0.5100  0.5870  2.1094
  108OSM    H9T11108   5.882   2.198   9.563  3.1285 -1.4910  3.0599
  108OSM   C10S11109   5.809   2.079   9.401 -0.3295  0.5520 -0.0689
  108OSM   H10S11110   5.711   2.130   9.384  0.1052  1.3653 -0.1669
  108OSM   H10T11111   5.797   1.970   9.385 -3.0277  0.5232  1.4045
  108OSM   C11S11112   5.903   2.132   9.288  0.4092  0.0179 -0.0807
  108OSM   H11S11113   6.007   2.095   9.300  0.0151 -1.2548 -0.4185
  108OSM   H11T11114   5.924   2.241   9.282 -2.9020  0.7107 -1.5128
  108OSM   C12S11115   5.842   2.094   9.148  0.2681  0.0771 -0.5108
  108OSM   H12S11116   5.752   2.158   9.136  1.1500  1.5101  0.1851
  108OSM   H12T11117   5.811   1.988   9.138  0.4434  0.0240 -0.5011
  108OSM   C13S11118   5.936   2.125   9.028 -0.4866  0.5265 -0.0801
  108OSM   H13S11119   6.026   2.061   9.032 -1.1459 -0.3754  1.1205
  108OSM   H13T11120   5.978   2.228   9.031  1.6872 -0.3063 -0.2909
  108OSM   C14S11121   5.886   2.097   8.882  0.3101  0.0907 -0.3348
  108OSM   H14S11122   5.836   1.998   8.870  0.9116 -0.2588 -0.0295
  108OSM   H14T11123   5.977   2.095   8.819  1.5983 -1.3471  1.4453
  108OSM   C15S11124   5.792   2.209   8.829 -0.1799  0.4456  0.2681
  108OSM   H15S11125   5.844   2.307   8.828 -2.3031  1.6303 -0.6896
  108OSM   H15T11126   5.716   2.235   8.905  1.0217 -0.9417  2.0342
  108OSM   C16S11127   5.756   2.182   8.685  0.3067  0.7772  0.1557
  108OSM   H16S11128   5.706   2.083   8.678  1.9277 -0.0995  0.5623
  108OSM   H16T11129   5.846   2.167   8.622 -0.2829 -1.0594 -0.3110
  108OSM   C17S11130   5.678   2.292   8.613  0.3721  0.2843  0.0267
  108OSM   H17S11131   5.739   2.384   8.603 -0.6001  1.1182  1.3752
  108OSM   H17T11132   5.592   2.315   8.679  0.4031  1.6306 -0.3713
  108OSM   C18S11133   5.634   2.245   8.472 -0.0273 -0.0628 -0.9976
  108OSM   H18S11134   5.569   2.154   8.477  0.0504 -0.0756 -0.0102
  108OSM   H18T11135   5.725   2.222   8.413  2.5259  4.5118  0.6649
  108OSM   H18U11136   5.586   2.334   8.425 -0.5188 -0.5318 -1.4030
  108OSM    C1F11137   5.909   2.348  10.239  0.9322  0.0006  0.2938
  108OSM     OF11138   6.025   2.350  10.286 -0.6930 -0.4803 -0.1780
  108OSM    C2F11139   5.838   2.471  10.178 -0.7099 -0.3234  0.1564
  108OSM    H2F11140   5.869   2.563  10.231 -0.3350  1.6221 -3.1312
  108OSM    H2G11141   5.731   2.466  10.204 -0.4110 -1.9238  1.2355
  108OSM    C3F11142   5.866   2.494  10.029 -0.0992 -0.3719  0.0177
  108OSM    H3F11143   5.837   2.402   9.973 -0.6480 -0.8783  1.1071
  108OSM    H3G11144   5.975   2.503  10.010 -0.5930  0.6751 -2.7974
  108OSM    C4F11145   5.795   2.619   9.972 -0.3163  0.6403  0.2216
  108OSM    H4F11146   5.822   2.705  10.037  0.7620  0.0597  0.5737
  108OSM    H4G11147   5.689   2.590   9.984 -0.2261  1.0699  2.6883
  108OSM    C5F11148   5.826   2.656   9.824 -0.1167 -0.1561 -0.4385
  108OSM    H5F11149   5.932   2.687   9.811  0.1229 -0.4775  0.6446
  108OSM    H5G11150   5.764   2.743   9.795  1.5876  1.1564 -0.3277
  108OSM    C6F11151   5.807   2.543   9.726 -0.1720  0.0359 -0.0108
  108OSM    H6F11152   5.717   2.484   9.754 -0.3562  0.0549 -0.5465
  108OSM    H6G11153   5.891   2.471   9.734  0.2422  0.5018 -0.1453
  108OSM    C7F11154   5.770   2.587   9.577 -0.0361  0.7954  0.0813
  108OSM    H7F11155   5.675   2.644   9.571 -1.0287 -0.8182 -0.2211
  108OSM    H7G11156   5.769   2.501   9.507  2.0723  1.6317 -1.0570
  108OSM    C8F11157   5.893   2.670   9.522 -0.2710  0.2119  0.6964
  108OSM    H8F11158   5.967   2.590   9.499 -1.6791 -0.8482 -0.3601
  108OSM    H8G11159   5.926   2.734   9.606  0.8454 -1.2604  1.4209
  108OSM    C9F11160   5.865   2.754   9.402  0.2667 -0.4491  0.5467
  108OSM    H9F11161   5.853   2.859   9.431 -1.4589 -0.4436 -0.0601
  108OSM   C10F11162   5.849   2.725   9.268 -0.4988 -0.1124 -0.2571
  108OSM   H10F11163   5.847   2.801   9.188 -3.6652  0.9718  0.7161
  108OSM   C11F11164   5.857   2.574   9.224  0.4003 -0.8795 -0.1611
  108OSM   H11F11165   5.777   2.541   9.155 -2.2245  2.4469  0.9790
  108OSM   H11G11166   5.838   2.497   9.301 -0.3231 -0.7908 -0.2437
  108OSM   C12F11167   5.997   2.552   9.154  0.0945 -0.3326 -0.0842
  108OSM   H12F11168   6.000   2.445   9.122 -1.7094 -0.6993  0.8089
  108OSM   H12G11169   6.081   2.572   9.223  0.5611 -1.1092 -0.4136
  108OSM   C13F11170   6.015   2.630   9.024  0.1607 -0.3353 -0.1660
  108OSM   H13F11171   6.006   2.737   9.053 -2.8315  0.0380 -2.0407
  108OSM   H13G11172   5.936   2.617   8.947 -0.2928  1.6715 -0.0871
  108OSM   C14F11173   6.161   2.602   8.971 -0.4455  0.3298 -0.1830
  108OSM   H14F11174   6.163   2.495   8.940  1.0862 -0.0914  1.2477
  108OSM   H14G11175   6.231   2.607   9.056 -0.8278 -0.1661  0.1724
  108OSM   C15F11176   6.206   2.702   8.865  0.2147  0.3616 -0.3456
  108OSM   H15F11177   6.304   2.661   8.831 -0.0568  0.1468 -0.8836
  108OSM   H15G11178   6.220   2.803   8.909 -1.3175 -0.7065  2.9272
  108OSM   C16F11179   6.124   2.705   8.745 -0.5402 -0.5392 -0.1150
  108OSM   H16F11180   6.069   2.801   8.735  0.8184  0.2756  0.0564
  108OSM   H16G11181   6.053   2.620   8.732  0.6618 -1.6361  0.2740
  108OSM   C17F11182   6.209   2.711   8.613  0.4708  0.1786 -0.6859
  108OSM   H17F11183   6.297   2.649   8.638  1.0835  0.7416 -1.4189
  108OSM   H17G11184   6.260   2.809   8.600  1.6582 -0.5145 -1.3939
  108OSM   C18F11185   6.136   2.679   8.481 -0.1152 -0.0029 -0.1512
  108OSM   H18F11186   6.206   2.676   8.395  0.6148 -0.7627  0.4426
  108OSM   H18G11187   6.060   2.758   8.464 -0.5016  0.0292  1.4797
  108OSM   H18H11188   6.086   2.581   8.503 -0.3520  0.1318 -0.0862
  109OSM      N11189   6.348   3.838  10.876 -0.6336 -0.1705 -0.7829
  109OSM    C1511190   6.318   3.751  10.996  0.9531 -0.1392 -0.0738
  109OSM   H15A11191   6.296   3.648  10.974 -1.8239  0.9287 -2.9789
  109OSM   H15B11192   6.234   3.788  11.054 -1.0836 -3.3373 -0.7155
  109OSM   H15C11193   6.404   3.768  11.059  1.1014 -0.5204 -0.1747
  109OSM    C1411194   6.370   3.984  10.901 -0.2005 -0.9492 -0.5667
  109OSM   H14A11195   6.288   4.029  10.955  0.8773 -0.1844  0.5131
  109OSM   H14B11196   6.372   4.042  10.811  0.2497  0.8919  0.5848
  109OSM   H14C11197   6.459   4.008  10.958 -1.2596  0.7882  0.4292
  109OSM    C1311198   6.477   3.795  10.819 -0.4471  0.9150  0.7742
  109OSM   H13A11199   6.562   3.787  10.885  1.2655  0.4074 -1.3828
  109OSM   H13B11200   6.504   3.854  10.733  3.3328 -0.8518  0.5343
  109OSM   H13C11201   6.471   3.696  10.776  0.2140  1.3004 -0.2467
  109OSM    C1211202   6.238   3.818  10.770  0.2647  0.5033 -1.0124
  109OSM   H12A11203   6.258   3.879  10.683 -2.9076  2.3508 -0.6333
  109OSM   H12B11204   6.153   3.865  10.819  0.7391 -1.6699  2.2014
  109OSM    C1111205   6.203   3.675  10.724 -0.1507  0.2843  0.0796
  109OSM   H11A11206   6.123   3.688  10.648 -1.6933  0.1281  1.6161
  109OSM   H11B11207   6.159   3.611  10.803 -0.9777 -1.2149 -1.5253
  109OSM      P11208   6.352   3.462  10.659 -0.1884 -0.2482  0.2267
  109OSM    O1311209   6.493   3.455  10.617 -0.6070  0.2949 -0.8351
  109OSM    O1411210   6.309   3.397  10.782  0.4125 -0.2788 -0.0520
  109OSM    O1111211   6.259   3.413  10.540 -0.0536  0.1627  0.3571
  109OSM    O1211212   6.320   3.615  10.667 -0.5744 -0.0516 -0.5552
  109OSM    C1S11213   6.267   3.460  10.410  1.6940  0.3690 -0.8966
  109OSM    H1S11214   6.368   3.455  10.363  1.3525 -0.1180 -1.5974
  109OSM    H1T11215   6.234   3.566  10.411  1.6861  0.3749  0.2539
  109OSM     NF11216   6.167   3.442  10.190  0.4889  0.2613  0.1048
  109OSM    HNF11217   6.078   3.481  10.167 -0.3455 -2.2788 -1.3921
  109OSM    C2S11218   6.175   3.373  10.315  0.4698  0.4859  0.6664
  109OSM    H2S11219   6.219   3.271  10.304 -1.7191 -0.6475  1.7202
  109OSM    C3S11220   6.033   3.343  10.374  0.2828  0.0121  0.1301
  109OSM    H3S11221   5.969   3.433  10.384 -0.5564 -0.6564  1.0412
  109OSM     O311222   6.037   3.287  10.509 -0.2160  0.6593 -0.1561
  109OSM    HO311223   6.124   3.305  10.543 -1.0241  0.5919  2.1188
  109OSM    C4S11224   5.956   3.252  10.285 -0.2283 -0.5631  0.1784
  109OSM    H4S11225   5.890   3.310  10.220 -0.7084  0.4019  1.4779
  109OSM    C5S11226   5.955   3.113  10.287  0.6661 -0.3311  0.4098
  109OSM    H5S11227   6.015   3.064  10.365  0.7548  0.5991  0.9310
  109OSM    C6S11228   5.875   3.028  10.190  0.3815  0.4255  0.5601
  109OSM    H6S11229   5.787   2.984  10.241  0.6072  0.7422  1.2261
  109OSM    H6T11230   5.932   2.936  10.164  0.3555  0.5912 -0.1122
  109OSM    C7S11231   5.826   3.093  10.061  0.1781 -0.1440 -0.4368
  109OSM    H7S11232   5.917   3.142  10.019  0.6634 -0.1526  0.5865
  109OSM    H7T11233   5.750   3.170  10.088  1.6883  0.4005  2.8072
  109OSM    C8S11234   5.764   3.005   9.951 -0.0464  0.5624  0.5198
  109OSM    H8S11235   5.664   2.967   9.978  0.0533 -0.7262 -0.8157
  109OSM    H8T11236   5.824   2.912   9.956 -2.2002 -0.9276  0.0825
  109OSM    C9S11237   5.778   3.081   9.811  0.6572  0.4445 -0.5514
  109OSM    H9S11238   5.885   3.105   9.797  1.6643 -1.5534  2.6936
  109OSM    H9T11239   5.727   3.180   9.817  0.5329  0.3071  0.8078
  109OSM   C10S11240   5.720   3.001   9.690 -0.6941  0.3275 -0.4943
  109OSM   H10S11241   5.624   2.954   9.719 -0.6926  1.1127  0.8609
  109OSM   H10T11242   5.783   2.912   9.671 -1.8947 -0.2879 -1.8699
  109OSM   C11S11243   5.708   3.081   9.566  0.6337  0.0716 -0.1682
  109OSM   H11S11244   5.660   3.179   9.586  1.3715  0.5862 -0.8338
  109OSM   H11T11245   5.660   3.020   9.488 -0.1980  0.0559  0.3463
  109OSM   C12S11246   5.849   3.122   9.517 -0.4372  0.1835 -0.0288
  109OSM   H12S11247   5.914   3.033   9.530 -0.9913  0.1172  3.0314
  109OSM   H12T11248   5.889   3.196   9.591  0.3585 -0.0113 -0.2521
  109OSM   C13S11249   5.841   3.188   9.371  0.5859 -0.4938  0.0151
  109OSM   H13S11250   5.913   3.272   9.376  0.5759 -0.5107  0.5715
  109OSM   H13T11251   5.741   3.236   9.359  1.3147  0.8100 -1.1359
  109OSM   C14S11252   5.863   3.091   9.260  0.3700 -0.0653  0.4063
  109OSM   H14S11253   5.791   3.007   9.267 -0.2493  0.5431  1.6094
  109OSM   H14T11254   5.961   3.043   9.281  0.6772 -0.6379 -1.9842
  109OSM   C15S11255   5.850   3.147   9.122  0.1096 -0.5635  0.6193
  109OSM   H15S11256   5.925   3.230   9.118  1.0677 -1.4015  0.7354
  109OSM   H15T11257   5.754   3.201   9.109  0.9610  0.6935 -0.7668
  109OSM   C16S11258   5.892   3.061   9.005  0.7152  0.0328  0.9984
  109OSM   H16S11259   5.827   2.971   8.998 -1.7906  1.8358 -0.0209
  109OSM   H16T11260   5.998   3.031   9.024  0.7495 -1.7402 -1.5490
  109OSM   C17S11261   5.895   3.136   8.876  0.1054 -0.0141  0.7593
  109OSM   H17S11262   5.963   3.224   8.886 -1.1557  0.9963  0.7842
  109OSM   H17T11263   5.798   3.184   8.850  1.3369  2.2280 -0.0339
  109OSM   C18S11264   5.951   3.059   8.759 -0.6535 -0.1961 -0.2997
  109OSM   H18S11265   6.056   3.029   8.778 -0.0770  0.9244 -1.5060
  109OSM   H18T11266   5.962   3.125   8.670 -0.6409  1.3885  0.8393
  109OSM   H18U11267   5.879   2.980   8.727 -0.3262 -0.2739 -0.8523
  109OSM    C1F11268   6.268   3.468  10.109  0.3181 -0.2185  0.1150
  109OSM     OF11269   6.371   3.405  10.124  0.0728 -0.0463  0.1465
  109OSM    C2F11270   6.250   3.574  10.004  0.4130 -0.2610  0.6568
  109OSM    H2F11271   6.288   3.671  10.042 -1.3427  0.7395  0.0284
  109OSM    H2G11272   6.143   3.596   9.983  0.9040  1.0945 -0.6159
  109OSM    C3F11273   6.310   3.536   9.865 -0.2525  0.3747  0.5167
  109OSM    H3F11274   6.251   3.444   9.845 -1.4291  0.6709  2.4279
  109OSM    H3G11275   6.416   3.504   9.873 -0.7656 -2.1969 -1.5876
  109OSM    C4F11276   6.291   3.644   9.757 -0.4922  0.6911  0.1197
  109OSM    H4F11277   6.339   3.737   9.794 -2.1069  2.1015 -1.1961
  109OSM    H4G11278   6.183   3.666   9.743 -1.0005 -0.0888  2.4064
  109OSM    C5F11279   6.351   3.606   9.617 -0.1405  1.1248 -0.6064
  109OSM    H5F11280   6.318   3.503   9.593  0.9768  0.5925  0.0731
  109OSM    H5G11281   6.461   3.595   9.630 -0.2304 -0.0561 -0.8180
  109OSM    C6F11282   6.320   3.696   9.500 -0.4271 -0.5967 -0.3625
  109OSM    H6F11283   6.355   3.801   9.516 -3.3316  0.5836 -1.0263
  109OSM    H6G11284   6.210   3.713   9.495 -0.3661  0.7446  1.7761
  109OSM    C7F11285   6.390   3.633   9.375  0.0965 -0.4908  0.5149
  109OSM    H7F11286   6.328   3.544   9.350 -0.3546 -0.0730  0.1143
  109OSM    H7G11287   6.489   3.592   9.403  0.6090 -1.5305 -2.4559
  109OSM    C8F11288   6.409   3.719   9.246  0.2297  0.2855  0.4292
  109OSM    H8F11289   6.432   3.661   9.154  0.2478 -0.0639  0.6486
  109OSM    H8G11290   6.503   3.775   9.262  0.4790  0.0084 -0.0406
  109OSM    C9F11291   6.300   3.821   9.223  0.0274  0.0154 -0.2532
  109OSM    H9F11292   6.298   3.907   9.291 -2.0737  0.8470 -1.2729
  109OSM   C10F11293   6.242   3.833   9.098  0.1531 -0.0782 -0.1280
  109OSM   H10F11294   6.172   3.916   9.082 -0.9090 -0.3098  2.7779
  109OSM   C11F11295   6.252   3.744   8.975 -0.7460 -0.3141 -0.3771
  109OSM   H11F11296   6.163   3.746   8.908  0.1017 -1.4673 -1.5882
  109OSM   H11G11297   6.286   3.641   8.995 -1.2173 -0.2636  0.7580
  109OSM   C12F11298   6.358   3.805   8.882  0.0349  0.1521  0.3843
  109OSM   H12F11299   6.448   3.836   8.939 -0.2368  3.0128 -0.5910
  109OSM   H12G11300   6.318   3.898   8.837  0.9685  0.6984  0.6571
  109OSM   C13F11301   6.401   3.700   8.777  1.0492  0.4583 -0.7032
  109OSM   H13F11302   6.319   3.627   8.764  0.5898  0.7591  0.4085
  109OSM   H13G11303   6.474   3.632   8.826  0.5789 -0.2175 -0.9208
  109OSM   C14F11304   6.439   3.765   8.647 -0.0326  0.0661  0.1823
  109OSM   H14F11305   6.406   3.871   8.647 -0.7881 -0.1605  0.8915
  109OSM   H14G11306   6.392   3.716   8.559  1.3847 -0.1944 -0.4563
  109OSM   C15F11307   6.596   3.757   8.629 -0.5949 -0.5201 -0.3490
  109OSM   H15F11308   6.630   3.652   8.640  0.6188 -0.1515 -0.4833
  109OSM   H15G11309   6.634   3.818   8.715 -4.2750  1.2016  0.2805
  109OSM   C16F11310   6.641   3.796   8.486  0.4582  0.1429 -0.3086
  109OSM   H16F11311   6.580   3.739   8.412  1.1190 -1.3829  0.2664
  109OSM   H16G11312   6.744   3.755   8.477 -0.9132 -3.7027 -0.6571
  109OSM   C17F11313   6.640   3.951   8.458  0.0000  0.0903  0.5692
  109OSM   H17F11314   6.689   3.997   8.547  2.6980  1.3936 -1.4315
  109OSM   H17G11315   6.536   3.986   8.444  0.1527  0.9655  1.5058
  109OSM   C18F11316   6.727   3.971   8.334 -0.4719  0.2547  0.2952
  109OSM   H18F11317   6.837   3.965   8.348 -0.3313 -0.8624 -1.0882
  109OSM   H18G11318   6.716   4.071   8.285  1.2569  0.1304 -0.4269
  109OSM   H18H11319   6.715   3.893   8.256  0.2832 -0.0900  0.5179
  110OSM      N11320   6.383   5.138  10.681  0.2993 -0.0782  0.0867
  110OSM    C1511321   6.246   5.132  10.731  0.3867  0.2840  0.0179
  110OSM   H15A11322   6.246   5.108  10.836 -0.9578 -1.2605 -0.3017
  110OSM   H15B11323   6.193   5.050  10.687 -0.2010 -0.5364  2.1271
  110OSM   H15C11324   6.196   5.226  10.711  0.4201  0.5760  1.2008
  110OSM    C1411325   6.374   5.193  10.542  0.2493 -0.4332 -0.2014
  110OSM   H14A11326   6.464   5.184  10.484  1.6156 -1.0043  1.9131
  110OSM   H14B11327   6.337   5.295  10.543  2.2585  0.3459  1.4592
  110OSM   H14C11328   6.309   5.131  10.482  0.4428 -0.4601 -0.3848
  110OSM    C1311329   6.467   5.223  10.767  0.4270 -0.1922 -0.8555
  110OSM   H13A11330   6.428   5.324  10.766 -0.3502 -0.4693  0.3687
  110OSM   H13B11331   6.570   5.236  10.736  0.1166  2.1327 -1.1553
  110OSM   H13C11332   6.459   5.200  10.872  0.8914  4.1148  0.3182
  110OSM    C1211333   6.444   5.000  10.678  0.4587  0.0106  0.3311
  110OSM   H12A11334   6.452   4.950  10.774 -0.3246  0.7446  0.7944
  110OSM   H12B11335   6.547   5.006  10.645 -0.6575  0.3670 -3.5840
  110OSM    C1111336   6.380   4.884  10.593 -0.5239 -0.0443  0.0372
  110OSM   H11A11337   6.454   4.803  10.610  1.0391  1.6146  1.4734
  110OSM   H11B11338   6.389   4.915  10.486  4.0183  0.0099  0.2213
  110OSM      P11339   6.209   4.788  10.764 -0.0009 -0.0945  0.0313
  110OSM    O1311340   6.295   4.834  10.873  0.2721  0.9071  0.0031
  110OSM    O1411341   6.065   4.791  10.795 -0.1256  0.4133 -0.2215
  110OSM    O1111342   6.248   4.640  10.714 -0.5446  0.4827  0.5658
  110OSM    O1211343   6.249   4.868  10.631 -0.3153 -0.1385 -0.5480
  110OSM    C1S11344   6.166   4.588  10.606  0.3368  0.4037 -0.5564
  110OSM    H1S11345   6.085   4.658  10.577 -1.0668 -0.5350  0.9765
  110OSM    H1T11346   6.114   4.498  10.643  1.8175 -0.2653 -0.0259
  110OSM     NF11347   6.176   4.500  10.368  0.1560  0.2193  0.5364
  110OSM    HNF11348   6.161   4.403  10.352  0.1618  0.6043 -2.4741
  110OSM    C2S11349   6.255   4.538  10.485  0.4662  0.0087 -0.7564
  110OSM    H2S11350   6.313   4.624  10.444  1.0133 -0.8247 -1.7745
  110OSM    C3S11351   6.363   4.430  10.526 -0.8535 -0.2956 -0.4893
  110OSM    H3S11352   6.326   4.355  10.599 -0.0239 -0.2309  0.0119
  110OSM     O311353   6.477   4.476  10.597 -0.0136  0.5238 -0.4362
  110OSM    HO311354   6.440   4.542  10.656  1.7265  0.3591  0.9478
  110OSM    C4S11355   6.403   4.352  10.399 -0.3484  0.0907  0.2134
  110OSM    H4S11356   6.342   4.273  10.355 -1.6169  1.1278  0.0588
  110OSM    C5S11357   6.515   4.383  10.328 -0.0281 -0.4584 -0.4756
  110OSM    H5S11358   6.586   4.453  10.375  0.6056 -0.5057 -1.3323
  110OSM    C6S11359   6.563   4.315  10.198  0.2243 -0.3916 -0.0866
  110OSM    H6S11360   6.674   4.316  10.199  0.3278  1.1142 -2.8074
  110OSM    H6T11361   6.536   4.382  10.113  1.2628 -0.3063 -0.3544
  110OSM    C7S11362   6.504   4.171  10.157  1.0584 -0.4344 -0.3577
  110OSM    H7S11363   6.396   4.161  10.130  0.7087  1.9444 -0.0044
  110OSM    H7T11364   6.504   4.110  10.250 -0.1941 -0.6581 -0.4747
  110OSM    C8S11365   6.595   4.104  10.057 -0.0814 -0.2745  0.2443
  110OSM    H8S11366   6.702   4.114  10.086  0.4418 -0.5088 -1.4717
  110OSM    H8T11367   6.578   4.162   9.963 -1.1939 -0.2997  0.4181
  110OSM    C9S11368   6.555   3.958  10.030  0.0289 -0.7306 -0.9450
  110OSM    H9S11369   6.447   3.953  10.004  0.1046  0.4696 -1.5763
  110OSM    H9T11370   6.566   3.907  10.128 -1.3151  0.2678 -0.2329
  110OSM   C10S11371   6.647   3.889   9.927 -0.3933  0.5944 -0.7393
  110OSM   H10S11372   6.633   3.781   9.949 -3.1271  0.8613 -0.8848
  110OSM   H10T11373   6.750   3.915   9.961 -0.0707  0.6533 -1.7513
  110OSM   C11S11374   6.608   3.918   9.782  0.3880 -0.2805  0.1183
  110OSM   H11S11375   6.564   4.020   9.779 -0.2554 -0.5727 -0.6869
  110OSM   H11T11376   6.524   3.853   9.750 -1.2208  1.3820  0.7840
  110OSM   C12S11377   6.730   3.912   9.693 -0.2337 -1.0403  0.1947
  110OSM   H12S11378   6.770   3.809   9.691 -0.0016 -0.9671  0.8607
  110OSM   H12T11379   6.812   3.976   9.731 -0.1195 -1.7100  1.1026
  110OSM   C13S11380   6.702   3.956   9.546 -0.0428  0.4688 -0.4475
  110OSM   H13S11381   6.701   4.067   9.541 -0.0028  0.4629 -0.5715
  110OSM   H13T11382   6.607   3.910   9.511 -0.9799  1.1538  1.0891
  110OSM   C14S11383   6.811   3.889   9.459  0.2553 -0.0243 -0.9451
  110OSM   H14S11384   6.771   3.909   9.357 -1.3725  0.7020 -0.2060
  110OSM   H14T11385   6.817   3.778   9.462 -1.0354 -0.1321 -1.5120
  110OSM   C15S11386   6.944   3.972   9.469 -0.0857  0.7953 -0.4964
  110OSM   H15S11387   6.977   3.984   9.574 -3.7586 -1.4976  1.1478
  110OSM   H15T11388   6.919   4.067   9.417 -1.7100  0.6870  0.0349
  110OSM   C16S11389   7.056   3.889   9.392  0.4538 -0.7372 -0.0419
  110OSM   H16S11390   7.025   3.862   9.289  1.0773  2.9008 -1.3409
  110OSM   H16T11391   7.059   3.794   9.450 -1.3445  0.1155  1.5822
  110OSM   C17S11392   7.191   3.952   9.407  0.6487 -0.0789  0.3696
  110OSM   H17S11393   7.234   3.959   9.509  2.7268 -1.1647 -0.3590
  110OSM   H17T11394   7.173   4.059   9.383  1.3306  0.4123  1.9257
  110OSM   C18S11395   7.295   3.891   9.312 -0.3840  0.7847 -0.2114
  110OSM   H18S11396   7.257   3.895   9.207 -0.2192 -0.4433 -0.3311
  110OSM   H18T11397   7.322   3.784   9.319 -2.3308  0.3243  1.1067
  110OSM   H18U11398   7.384   3.957   9.308 -0.7544  1.2841 -0.3706
  110OSM    C1F11399   6.101   4.590  10.308  0.1233 -0.0147 -0.6334
  110OSM     OF11400   6.109   4.713  10.329 -0.3960  0.6144  0.5212
  110OSM    C2F11401   6.014   4.539  10.208 -0.1027  0.0544  0.3045
  110OSM    H2F11402   5.915   4.591  10.203  0.4379  1.0892  0.1541
  110OSM    H2G11403   5.988   4.432  10.221  2.2860 -1.0887 -3.0480
  110OSM    C3F11404   6.091   4.574  10.071  0.5457 -0.5883  0.3759
  110OSM    H3F11405   6.193   4.530  10.070  0.6662 -0.3457  1.0200
  110OSM    H3G11406   6.107   4.684  10.065 -1.9112 -0.1914 -0.0101
  110OSM    C4F11407   6.018   4.551   9.945  0.6646  0.5502  0.2605
  110OSM    H4F11408   5.928   4.615   9.947 -0.2500 -0.5996 -1.5410
  110OSM    H4G11409   5.974   4.449   9.940 -0.4797  1.1007 -2.3434
  110OSM    C5F11410   6.093   4.571   9.819  0.2107 -0.3172  0.5069
  110OSM    H5F11411   6.172   4.492   9.822 -0.0245 -0.7232 -2.0221
  110OSM    H5G11412   6.133   4.672   9.798  0.4564 -0.4353  0.4016
  110OSM    C6F11413   6.012   4.542   9.692 -0.8848  0.4351 -0.5280
  110OSM    H6F11414   5.926   4.609   9.671 -1.4739 -0.0084  0.3906
  110OSM    H6G11415   5.971   4.439   9.696 -1.3590  0.6115 -0.7528
  110OSM    C7F11416   6.112   4.541   9.577 -0.1741  0.0173  0.4286
  110OSM    H7F11417   6.205   4.481   9.591  0.1064  0.4910  0.6395
  110OSM    H7G11418   6.145   4.644   9.552 -3.2706  0.2560 -3.4959
  110OSM    C8F11419   6.045   4.504   9.438  0.5081  0.4784 -0.9477
  110OSM    H8F11420   5.961   4.576   9.425  1.4678  1.9632  0.5949
  110OSM    H8G11421   5.992   4.407   9.448 -2.8348  2.3100  0.8350
  110OSM    C9F11422   6.146   4.507   9.325 -0.0618 -0.4193 -0.4298
  110OSM    H9F11423   6.220   4.588   9.325  1.0442 -1.4021 -0.2019
  110OSM   C10F11424   6.159   4.415   9.230 -0.6039  0.3375 -0.5067
  110OSM   H10F11425   6.229   4.447   9.151  0.3344 -3.4648 -1.3898
  110OSM   C11F11426   6.086   4.289   9.200 -0.7750 -0.3459  0.4646
  110OSM   H11F11427   6.049   4.246   9.296  0.5497  1.1480  1.7131
  110OSM   H11G11428   6.156   4.220   9.148 -1.8419 -1.5061  0.5329
  110OSM   C12F11429   5.977   4.293   9.102  0.2541 -0.1895 -0.1028
  110OSM   H12F11430   5.906   4.372   9.134  0.3715 -0.1332  0.0198
  110OSM   H12G11431   5.915   4.201   9.096 -0.0222 -0.0381  0.3851
  110OSM   C13F11432   6.023   4.311   8.954 -0.3625 -0.7134  0.3431
  110OSM   H13F11433   6.060   4.214   8.915  1.5280 -0.4503  1.3939
  110OSM   H13G11434   6.104   4.386   8.940 -0.6900 -0.4014  0.0872
  110OSM   C14F11435   5.909   4.354   8.860  0.2073 -0.2171 -0.0411
  110OSM   H14F11436   5.853   4.441   8.900  1.2734  0.0412  0.9560
  110OSM   H14G11437   5.831   4.274   8.868 -1.9375  1.5099 -2.1735
  110OSM   C15F11438   5.951   4.377   8.715 -0.1798 -0.6575  0.9304
  110OSM   H15F11439   5.870   4.364   8.641  0.9364  0.9507 -0.6656
  110OSM   H15G11440   6.028   4.303   8.686  0.9440  2.2158 -4.8189
  110OSM   C16F11441   6.003   4.519   8.704  0.0843 -0.1134  0.5218
  110OSM   H16F11442   6.065   4.545   8.793 -1.2264 -1.3724  1.8577
  110OSM   H16G11443   5.914   4.585   8.696  0.2064  0.1138  1.0216
  110OSM   C17F11444   6.097   4.537   8.583  0.5097  0.6339  0.1660
  110OSM   H17F11445   6.027   4.531   8.498  0.5476  0.8118  0.1220
  110OSM   H17G11446   6.181   4.466   8.567 -0.0240  0.0562 -0.1278
  110OSM   C18F11447   6.158   4.675   8.582 -0.4733  0.0290 -0.6747
  110OSM   H18F11448   6.073   4.744   8.603 -2.1954 -2.4623  1.1340
  110OSM   H18G11449   6.209   4.714   8.491 -0.2496  0.3546 -0.4105
  110OSM   H18H11450   6.230   4.695   8.664  0.6837 -0.0637 -1.6501
  111OSM      N11451   1.217   0.409  10.942  0.1071  0.6704 -0.4668
  111OSM    C1511452   1.195   0.257  10.918 -0.5216  0.0991  0.6379
  111OSM   H15A11453   1.280   0.205  10.962 -2.2305 -0.9149  2.9752
  111OSM   H15B11454   1.189   0.225  10.815 -3.0113  1.9631  0.1200
  111OSM   H15C11455   1.102   0.217  10.955 -1.1859 -0.5358 -1.5677
  111OSM    C1411456   1.263   0.435  11.082  0.2420  0.0350 -0.0606
  111OSM   H14A11457   1.293   0.537  11.101  0.6979 -0.4164  1.8608
  111OSM   H14B11458   1.348   0.374  11.107 -0.7055 -2.1942 -1.9386
  111OSM   H14C11459   1.184   0.438  11.156  0.3125  1.7915 -0.0034
  111OSM    C1311460   1.321   0.467  10.856  0.7574  0.5256  0.5359
  111OSM   H13A11461   1.314   0.439  10.752  1.1899  0.5869  0.4887
  111OSM   H13B11462   1.420   0.433  10.884  0.4848 -2.2187 -1.4354
  111OSM   H13C11463   1.316   0.573  10.873  0.1238  0.5271  0.3402
  111OSM    C1211464   1.076   0.472  10.914 -0.4374 -0.1481  0.2990
  111OSM   H12A11465   1.045   0.452  10.813 -1.5097  2.0823  0.1163
  111OSM   H12B11466   1.079   0.580  10.917 -0.9317 -0.1149 -0.3128
  111OSM    C1111467   0.960   0.415  11.004  0.2673 -0.0151 -0.0686
  111OSM   H11A11468   0.874   0.486  10.997 -1.0281 -1.5872 -0.7233
  111OSM   H11B11469   1.003   0.408  11.106 -1.4917  0.7758  0.7811
  111OSM      P11470   0.832   0.265  10.833  0.3326 -0.1513  0.0350
  111OSM    O1311471   0.815   0.123  10.810  0.2578 -0.0437  0.1272
  111OSM    O1411472   0.714   0.356  10.847 -0.1507 -0.1782  0.4273
  111OSM    O1111473   0.930   0.312  10.724  0.4839 -0.4183 -0.2967
  111OSM    O1211474   0.918   0.289  10.965  0.1157  0.2293  0.2711
  111OSM    C1S11475   0.887   0.303  10.587 -0.5372 -0.3271 -0.4953
  111OSM    H1S11476   0.783   0.334  10.563 -0.1564  1.7289  0.3007
  111OSM    H1T11477   0.899   0.200  10.548  2.0956 -0.0394 -0.6584
  111OSM     NF11478   0.894   0.395  10.364  0.5884 -0.2442  0.5012
  111OSM    HNF11479   0.915   0.341  10.283  1.5550  1.4863 -0.4643
  111OSM    C2S11480   0.974   0.387  10.482  0.2070  0.0419  0.0089
  111OSM    H2S11481   0.979   0.490  10.525 -1.8251 -0.2219  0.9913
  111OSM    C3S11482   1.118   0.334  10.479 -0.1658  0.5541  0.4159
  111OSM    H3S11483   1.106   0.227  10.452 -0.2566  0.2221  1.7470
  111OSM     O311484   1.185   0.347  10.603 -0.7687  0.4502  0.3029
  111OSM    HO311485   1.116   0.355  10.670  1.3437 -1.0993  2.8641
  111OSM    C4S11486   1.192   0.389  10.360  0.1953  0.4101 -0.3195
  111OSM    H4S11487   1.151   0.356  10.264  1.5266  1.1011 -1.1419
  111OSM    C5S11488   1.309   0.468  10.359  0.8906  0.3354  0.5913
  111OSM    H5S11489   1.362   0.491  10.453 -0.1917  0.4686  1.1938
  111OSM    C6S11490   1.386   0.509  10.237  0.1371 -0.4945 -0.3025
  111OSM    H6S11491   1.487   0.470  10.263  0.0635  0.4138  1.5269
  111OSM    H6T11492   1.401   0.619  10.230  0.4260 -0.5159 -0.0168
  111OSM    C7S11493   1.327   0.451  10.105 -0.0894 -0.0502  0.0862
  111OSM    H7S11494   1.234   0.505  10.080 -0.1195 -0.5264 -0.9018
  111OSM    H7T11495   1.306   0.345  10.130 -2.2762 -0.2196 -2.0844
  111OSM    C8S11496   1.424   0.457   9.989  0.1631 -0.0804 -0.1510
  111OSM    H8S11497   1.479   0.553   9.988 -0.7599  0.4996  1.1597
  111OSM    H8T11498   1.366   0.445   9.895 -2.2840 -2.1901  1.4841
  111OSM    C9S11499   1.524   0.334   9.993 -0.8020  0.1347  0.5403
  111OSM    H9S11500   1.471   0.237   9.979  0.7564 -0.5608 -0.7868
  111OSM    H9T11501   1.582   0.322  10.087  0.4164  1.5622  0.0061
  111OSM   C10S11502   1.617   0.327   9.875 -0.7321  0.0987  0.5225
  111OSM   H10S11503   1.702   0.263   9.907 -0.1182  0.2210 -0.8250
  111OSM   H10T11504   1.657   0.427   9.849  0.8534 -0.4441  0.7993
  111OSM   C11S11505   1.553   0.264   9.748  0.6522 -0.2531  0.0839
  111OSM   H11S11506   1.465   0.324   9.721  1.1524  0.0728 -0.8618
  111OSM   H11T11507   1.515   0.165   9.782 -0.8083  0.5435  0.8317
  111OSM   C12S11508   1.649   0.254   9.627 -0.6148  0.0560 -0.6431
  111OSM   H12S11509   1.747   0.208   9.652 -1.1622 -0.1342  1.2944
  111OSM   H12T11510   1.673   0.359   9.600 -0.6957  0.4414  0.7510
  111OSM   C13S11511   1.593   0.170   9.510  0.4954 -0.4152  0.4022
  111OSM   H13S11512   1.510   0.234   9.473  1.9231  0.6740 -1.0979
  111OSM   H13T11513   1.556   0.072   9.544 -3.7526  1.5727  2.2630
  111OSM   C14S11514   1.686   0.151   9.384  0.8034 -0.0117 -0.5367
  111OSM   H14S11515   1.783   0.106   9.414  1.6008  0.5824 -2.1140
  111OSM   H14T11516   1.703   0.250   9.337 -0.6196  1.2734  1.4635
  111OSM   C15S11517   1.625   0.061   9.282  0.1734 -0.0055 -0.0016
  111OSM   H15S11518   1.542   0.120   9.236  0.8134  0.6386 -0.3640
  111OSM   H15T11519   1.590  -0.036   9.322  0.4663  0.8490  2.4923
  111OSM   C16S11520   1.720   0.044   9.162 -0.1301  0.0969 -0.4741
  111OSM   H16S11521   1.809  -0.007   9.203  0.1587  0.8427 -0.1474
  111OSM   H16T11522   1.769   0.133   9.117  0.1249 -0.1693 -0.7277
  111OSM   C17S11523   1.657  -0.050   9.062 -0.7579  0.1059  0.3503
  111OSM   H17S11524   1.579   0.002   9.001 -0.5130 -1.7305 -1.6587
  111OSM   H17T11525   1.600  -0.121   9.125 -0.4520 -0.4222  0.0332
  111OSM   C18S11526   1.746  -0.125   8.959  0.6941 -0.4197  0.2802
  111OSM   H18S11527   1.675  -0.168   8.885  0.2264  0.4264  0.2265
  111OSM   H18T11528   1.790  -0.217   9.003  0.0142 -0.7336  0.3195
  111OSM   H18U11529   1.821  -0.063   8.906  1.2284 -1.9644 -0.8361
  111OSM    C1F11530   0.791   0.482  10.353  0.0702 -0.5160 -0.8670
  111OSM     OF11531   0.754   0.545  10.456  0.1970  0.7767 -0.1260
  111OSM    C2F11532   0.721   0.487  10.220 -0.7805 -0.0319  0.0011
  111OSM    H2F11533   0.612   0.480  10.243 -0.9091  0.5897 -0.4084
  111OSM    H2G11534   0.744   0.397  10.160  0.9220 -0.9909  1.9818
  111OSM    C3F11535   0.759   0.619  10.151  0.1899 -0.2662  0.9374
  111OSM    H3F11536   0.868   0.638  10.140 -0.1646  0.8885 -1.1663
  111OSM    H3G11537   0.718   0.702  10.212 -2.2733  0.2062 -1.1830
  111OSM    C4F11538   0.699   0.623  10.008  0.9216 -0.1532  0.2637
  111OSM    H4F11539   0.669   0.723   9.972  0.9150  0.0625  0.8542
  111OSM    H4G11540   0.600   0.572  10.004  1.8224 -2.1182  1.5254
  111OSM    C5F11541   0.781   0.544   9.902 -0.1004 -0.0940  0.1858
  111OSM    H5F11542   0.758   0.436   9.911  1.7386 -0.6830 -1.5549
  111OSM    H5G11543   0.892   0.554   9.908  0.2494 -2.3028 -1.5247
  111OSM    C6F11544   0.740   0.577   9.759  0.1015 -0.1619  0.1132
  111OSM    H6F11545   0.729   0.683   9.726 -4.5226 -0.7226 -0.7740
  111OSM    H6G11546   0.637   0.537   9.749 -0.4594  1.0272  0.8572
  111OSM    C7F11547   0.832   0.502   9.658  0.4235 -0.1869  1.1787
  111OSM    H7F11548   0.831   0.396   9.691  0.8030 -0.7747 -0.5875
  111OSM    H7G11549   0.935   0.537   9.679 -0.2038  2.1118  0.7039
  111OSM    C8F11550   0.787   0.513   9.512 -0.1547 -0.5143 -0.2890
  111OSM    H8F11551   0.875   0.487   9.450 -1.1917  2.7978 -3.5664
  111OSM    H8G11552   0.765   0.619   9.486 -0.3177 -0.4457  0.1211
  111OSM    C9F11553   0.673   0.415   9.481  0.3488  0.3314 -0.1052
  111OSM    H9F11554   0.587   0.431   9.547  0.7892 -1.2482  0.9233
  111OSM   C10F11555   0.675   0.320   9.387 -0.0547  0.0469 -0.4451
  111OSM   H10F11556   0.580   0.265   9.373  0.0926 -0.3826  0.1706
  111OSM   C11F11557   0.790   0.287   9.297 -0.2538  0.0188  0.1860
  111OSM   H11F11558   0.850   0.199   9.330 -0.5441 -1.3010 -2.5194
  111OSM   H11G11559   0.863   0.369   9.283 -0.1829  0.0808  0.9110
  111OSM   C12F11560   0.736   0.263   9.157 -0.4042 -0.0620  0.3335
  111OSM   H12F11561   0.672   0.348   9.126  0.8341  1.4654  1.8186
  111OSM   H12G11562   0.669   0.175   9.144  1.3926 -1.5834  0.9632
  111OSM   C13F11563   0.855   0.243   9.065 -0.4560  0.3963 -0.1712
  111OSM   H13F11564   0.924   0.179   9.123  0.9800  1.7337 -0.3348
  111OSM   H13G11565   0.923   0.331   9.071  0.7803 -0.3783 -1.9112
  111OSM   C14F11566   0.826   0.199   8.929 -0.6912  0.2200  0.4138
  111OSM   H14F11567   0.779   0.099   8.923  2.2070 -1.2298 -4.7321
  111OSM   H14G11568   0.918   0.191   8.867 -1.8593 -1.1533 -1.2373
  111OSM   C15F11569   0.738   0.292   8.845  0.5647  0.5683  0.4564
  111OSM   H15F11570   0.765   0.394   8.881  2.0142  0.0434  0.9149
  111OSM   H15G11571   0.632   0.268   8.867  0.4115  0.9867  0.1767
  111OSM   C16F11572   0.760   0.275   8.689  0.6669 -0.1512 -0.0291
  111OSM   H16F11573   0.862   0.314   8.669  1.5457 -2.3660 -0.0426
  111OSM   H16G11574   0.685   0.341   8.641  0.2313  0.2480  1.1520
  111OSM   C17F11575   0.741   0.125   8.633 -0.3415 -0.1998  0.4770
  111OSM   H17F11576   0.655   0.085   8.690 -1.2937  0.5753 -0.4011
  111OSM   H17G11577   0.819   0.060   8.681  1.3132  2.4805  1.6454
  111OSM   C18F11578   0.742   0.107   8.484 -0.0265  0.4929  0.4813
  111OSM   H18F11579   0.845   0.127   8.446  0.0215 -1.0939 -0.3011
  111OSM   H18G11580   0.676   0.183   8.436  0.9137  1.5088  0.7462
  111OSM   H18H11581   0.720   0.002   8.458  0.1308 -0.5116  3.9075
  112OSM      N11582   2.018   4.460  11.287  0.2318 -0.5799  0.6685
  112OSM    C1511583   2.070   4.578  11.351  0.2161  1.0285  0.8240
  112OSM   H15A11584   1.990   4.648  11.367  1.6091  3.0796 -0.5702
  112OSM   H15B11585   2.141   4.627  11.285  2.3803 -2.0526  0.6542
  112OSM   H15C11586   2.118   4.546  11.442 -0.3322 -1.6694  0.2533
  112OSM    C1411587   2.129   4.359  11.274 -0.3845 -0.4034 -0.0807
  112OSM   H14A11588   2.176   4.340  11.369  1.9770 -0.6231 -1.2109
  112OSM   H14B11589   2.204   4.401  11.209  0.6626 -1.6317  0.2959
  112OSM   H14C11590   2.096   4.265  11.232 -0.1151 -1.6674  2.3709
  112OSM    C1311591   1.903   4.404  11.367  0.2606 -0.2829  0.2089
  112OSM   H13A11592   1.918   4.400  11.473 -2.5675  2.6931  0.8855
  112OSM   H13B11593   1.878   4.308  11.325  0.8124 -0.0619 -0.6556
  112OSM   H13C11594   1.824   4.477  11.355  1.7018  1.2019 -0.7743
  112OSM    C1211595   1.951   4.503  11.152  0.0429 -0.0414 -0.5127
  112OSM   H12A11596   1.864   4.562  11.176  1.8474  1.9894  1.5088
  112OSM   H12B11597   1.917   4.416  11.099  2.4023 -1.6079  0.3806
  112OSM    C1111598   2.039   4.580  11.050 -0.9325 -0.1190  0.1524
  112OSM   H11A11599   2.002   4.573  10.946 -0.0824 -0.5279 -0.1366
  112OSM   H11B11600   2.131   4.518  11.056 -0.6354  0.3763  0.9420
  112OSM      P11601   1.939   4.816  11.092  0.1311  0.0215 -0.2215
  112OSM    O1311602   1.866   4.808  11.223  0.1200  1.0446  0.0928
  112OSM    O1411603   1.994   4.953  11.058  0.3331  0.3566 -0.1275
  112OSM    O1111604   1.849   4.765  10.968 -0.3718 -0.2460 -0.3810
  112OSM    O1211605   2.060   4.719  11.098 -0.4053  0.2994  0.2700
  112OSM    C1S11606   1.890   4.809  10.837  0.5680  0.1447 -0.1492
  112OSM    H1S11607   1.994   4.777  10.816  0.1499 -1.4493  0.0708
  112OSM    H1T11608   1.869   4.917  10.822 -1.5355 -0.2829 -0.5700
  112OSM     NF11609   1.810   4.830  10.604 -0.3644  0.0246 -0.5938
  112OSM    HNF11610   1.734   4.881  10.565 -0.8289 -1.9585 -2.5114
  112OSM    C2S11611   1.790   4.762  10.727  0.3055  0.0856 -0.5033
  112OSM    H2S11612   1.815   4.655  10.711 -1.4220 -0.4779  0.3037
  112OSM    C3S11613   1.636   4.765  10.776 -0.5026 -0.3852  0.6280
  112OSM    H3S11614   1.603   4.869  10.800 -1.1637 -0.1968 -0.9258
  112OSM     O311615   1.625   4.691  10.892  0.3221  0.3197  0.5220
  112OSM    HO311616   1.714   4.691  10.927  0.3372  1.0395  0.4873
  112OSM    C4S11617   1.543   4.718  10.675  0.3920 -0.1961 -0.0906
  112OSM    H4S11618   1.537   4.609  10.658  1.8670 -0.7191  2.2415
  112OSM    C5S11619   1.457   4.795  10.598  0.1586 -0.0549 -0.6543
  112OSM    H5S11620   1.441   4.901  10.625 -0.4442 -0.5920  1.2974
  112OSM    C6S11621   1.378   4.741  10.489  0.9397 -0.2736 -0.6349
  112OSM    H6S11622   1.277   4.787  10.494  1.2059  0.1573  1.6653
  112OSM    H6T11623   1.365   4.631  10.487 -1.5324 -0.0399 -1.1596
  112OSM    C7S11624   1.433   4.771  10.350 -0.2799  0.5036 -0.5630
  112OSM    H7S11625   1.540   4.745  10.340 -0.1146  1.1689 -0.6258
  112OSM    H7T11626   1.421   4.879  10.323 -0.0887  0.4334 -0.9339
  112OSM    C8S11627   1.343   4.697  10.245  0.2756  0.6340 -0.2136
  112OSM    H8S11628   1.240   4.713  10.280 -0.8806 -2.4765 -1.7858
  112OSM    H8T11629   1.353   4.587  10.258  0.5386  0.6513 -0.2460
  112OSM    C9S11630   1.365   4.742  10.101  0.3247  0.3849  0.0558
  112OSM    H9S11631   1.469   4.776  10.085  1.4700 -2.1344  1.5545
  112OSM    H9T11632   1.301   4.828  10.072 -0.6785 -0.9600 -1.9318
  112OSM   C10S11633   1.337   4.630  10.006  0.2935  0.4339  0.2257
  112OSM   H10S11634   1.238   4.586  10.032  1.8856 -1.7621  3.2845
  112OSM   H10T11635   1.406   4.544  10.021 -0.6644 -0.2006  1.1508
  112OSM   C11S11636   1.343   4.675   9.859  0.0936 -0.5326  0.1373
  112OSM   H11S11637   1.251   4.734   9.837 -1.1227 -2.0650  0.9246
  112OSM   H11T11638   1.343   4.585   9.795  2.4458  0.2969 -1.1514
  112OSM   C12S11639   1.475   4.732   9.812  0.0851 -0.8263 -0.9929
  112OSM   H12S11640   1.558   4.664   9.841 -0.4229 -1.3721 -0.8083
  112OSM   H12T11641   1.491   4.825   9.870  0.8469 -0.1747 -2.2068
  112OSM   C13S11642   1.487   4.789   9.671  0.1568  0.4578 -0.0731
  112OSM   H13S11643   1.577   4.853   9.662  0.2171  0.3478 -0.2638
  112OSM   H13T11644   1.404   4.862   9.660  0.5602  0.7604 -1.2193
  112OSM   C14S11645   1.478   4.692   9.560 -0.1400 -0.4381  1.0441
  112OSM   H14S11646   1.375   4.649   9.558 -0.5343  0.4738  0.7824
  112OSM   H14T11647   1.548   4.608   9.576  3.1366  2.0542  0.8484
  112OSM   C15S11648   1.506   4.759   9.422  0.2023 -0.6387 -0.0427
  112OSM   H15S11649   1.613   4.785   9.415  0.5924 -2.3587 -1.2319
  112OSM   H15T11650   1.432   4.840   9.405  0.1676 -0.8426 -0.8938
  112OSM   C16S11651   1.481   4.665   9.300  0.6626 -0.5095 -0.1277
  112OSM   H16S11652   1.378   4.624   9.311 -0.3910  2.4288  2.5395
  112OSM   H16T11653   1.560   4.587   9.300  1.5667  0.3861 -0.3320
  112OSM   C17S11654   1.485   4.750   9.174  0.0122 -0.0279 -0.2093
  112OSM   H17S11655   1.556   4.836   9.177 -0.0790  0.0654 -0.6766
  112OSM   H17T11656   1.385   4.797   9.169  0.4656  0.8504 -2.4152
  112OSM   C18S11657   1.491   4.666   9.053 -0.3635  0.4246 -0.5337
  112OSM   H18S11658   1.420   4.584   9.074  1.1681 -1.2449 -1.5681
  112OSM   H18T11659   1.595   4.627   9.046  0.3352  2.0825 -0.0079
  112OSM   H18U11660   1.472   4.724   8.959  0.6399  0.3453 -0.7960
  112OSM    C1F11661   1.928   4.832  10.537 -0.6452 -0.8289 -0.3759
  112OSM     OF11662   2.030   4.788  10.591 -0.0123  0.5893 -0.3674
  112OSM    C2F11663   1.918   4.883  10.399  0.1952  0.8355 -0.3659
  112OSM    H2F11664   1.934   4.993  10.392 -1.2565  1.2206  1.4166
  112OSM    H2G11665   1.819   4.864  10.351 -0.3391  1.8595  0.2713
  112OSM    C3F11666   2.012   4.804  10.300  0.6430 -0.4777  0.2534
  112OSM    H3F11667   1.986   4.697  10.291  0.9090 -0.4292 -1.3900
  112OSM    H3G11668   2.118   4.824  10.327  0.6369  0.5168 -0.3999
  112OSM    C4F11669   1.978   4.858  10.159 -0.2371  0.3997  0.0313
  112OSM    H4F11670   1.958   4.967  10.171 -1.3089  0.2434 -0.2787
  112OSM    H4G11671   1.879   4.816  10.133 -1.5985  2.4548  1.5739
  112OSM    C5F11672   2.070   4.819  10.050  0.6394  0.5845  0.2214
  112OSM    H5F11673   2.070   4.709  10.055  1.8690  0.6449  2.0710
  112OSM    H5G11674   2.171   4.861  10.066  1.4271 -1.0206 -0.4048
  112OSM    C6F11675   2.018   4.878   9.916 -0.1969  0.4649 -0.1364
  112OSM    H6F11676   1.980   4.982   9.927  0.8782  0.7763  0.8066
  112OSM    H6G11677   1.930   4.815   9.890  0.0430 -1.2967  2.8335
  112OSM    C7F11678   2.130   4.864   9.803  0.5232 -0.3833  0.0804
  112OSM    H7F11679   2.157   4.757   9.817  2.9683  0.3436  1.6173
  112OSM    H7G11680   2.214   4.933   9.824 -0.2662  0.1364  1.7086
  112OSM    C8F11681   2.077   4.872   9.655  0.1821  0.3268 -0.6240
  112OSM    H8F11682   2.040   4.975   9.633  0.2263  0.9792  2.0808
  112OSM    H8G11683   1.989   4.804   9.656  1.1644 -0.9743 -0.8131
  112OSM    C9F11684   2.188   4.832   9.557  0.1729  0.0172 -0.4279
  112OSM    H9F11685   2.280   4.786   9.596  1.0021  1.3159 -0.7749
  112OSM   C10F11686   2.170   4.829   9.425  0.8786  0.1116 -0.0474
  112OSM   H10F11687   2.257   4.796   9.367  1.6706 -0.1019  1.2243
  112OSM   C11F11688   2.034   4.867   9.363  0.1032 -0.6096  0.0274
  112OSM   H11F11689   1.969   4.924   9.433 -0.2871  0.5057 -1.2109
  112OSM   H11G11690   1.962   4.786   9.338 -1.5679 -0.4827  3.7597
  112OSM   C12F11691   2.065   4.959   9.246 -0.5401  0.0375 -0.0147
  112OSM   H12F11692   2.105   4.899   9.162 -0.0681  1.0328 -0.5204
  112OSM   H12G11693   2.131   5.037   9.290 -2.3253  0.1907  2.6448
  112OSM   C13F11694   1.946   5.041   9.179 -0.4066 -0.0813 -0.0417
  112OSM   H13F11695   1.995   5.127   9.128  0.5926  0.2778  1.4645
  112OSM   H13G11696   1.880   5.071   9.263  1.2572  1.5961  0.7245
  112OSM   C14F11697   1.882   4.961   9.061 -0.0373 -0.3710 -0.3153
  112OSM   H14F11698   1.874   4.857   9.100  2.6850 -1.0514 -1.3177
  112OSM   H14G11699   1.959   4.952   8.981 -0.0072 -0.5875 -0.2640
  112OSM   C15F11700   1.754   5.028   9.011 -0.5281  0.2696 -0.4966
  112OSM   H15F11701   1.787   5.132   8.990  0.4134  0.6570  2.4054
  112OSM   H15G11702   1.679   5.025   9.092 -0.2162 -1.2360 -0.2319
  112OSM   C16F11703   1.694   4.963   8.882  0.1260 -0.0234  0.3169
  112OSM   H16F11704   1.693   4.852   8.887  0.0310 -0.0452 -0.1683
  112OSM   H16G11705   1.768   5.004   8.810  0.2802 -1.4045 -0.3332
  112OSM   C17F11706   1.561   5.015   8.851 -0.2756 -0.3394 -0.0214
  112OSM   H17F11707   1.567   5.126   8.849  1.4241 -0.3322 -3.9099
  112OSM   H17G11708   1.493   4.992   8.936 -0.0365 -0.1945  0.2133
  112OSM   C18F11709   1.501   4.979   8.712 -0.1499 -0.3237 -0.3134
  112OSM   H18F11710   1.483   4.870   8.707 -0.6183 -0.3073  0.8058
  112OSM   H18G11711   1.572   5.004   8.630 -1.5488  0.7442 -1.2440
  112OSM   H18H11712   1.407   5.036   8.700  0.9091  1.2164 -1.9397
  113OSM      N11713   4.431   1.168  11.114 -0.7866 -0.3657  0.8845
  113OSM    C1511714   4.487   1.119  11.244  0.1318 -0.5217 -0.3274
  113OSM   H15A11715   4.436   1.150  11.333  1.4218  1.0871 -0.0970
  113OSM   H15B11716   4.592   1.141  11.255  0.4176 -2.5609  1.8169
  113OSM   H15C11717   4.481   1.011  11.245 -1.0606 -0.5176 -1.9022
  113OSM    C1411718   4.299   1.105  11.111  0.3037  0.2532  0.0346
  113OSM   H14A11719   4.227   1.136  11.186 -1.8018 -3.5949 -0.1264
  113OSM   H14B11720   4.302   0.998  11.124 -1.3691  0.2005  0.2604
  113OSM   H14C11721   4.262   1.124  11.012 -1.8760 -2.3214  0.2464
  113OSM    C1311722   4.411   1.315  11.104  0.4004 -0.2678 -0.2198
  113OSM   H13A11723   4.352   1.361  11.182  1.5420 -0.2722  0.6618
  113OSM   H13B11724   4.364   1.329  11.007 -0.8029 -2.8301 -0.0794
  113OSM   H13C11725   4.507   1.363  11.110 -0.5120  1.9042 -1.6539
  113OSM    C1211726   4.523   1.127  10.992  0.6035 -0.0902  0.2090
  113OSM   H12A11727   4.627   1.155  10.998  0.7952 -0.5314 -0.7306
  113OSM   H12B11728   4.477   1.184  10.912 -1.9970 -1.1350  0.8368
  113OSM    C1111729   4.522   0.983  10.944 -0.5845 -0.6771 -0.1741
  113OSM   H11A11730   4.584   0.985  10.852  2.7960  1.9631  1.9417
  113OSM   H11B11731   4.420   0.951  10.911 -1.6878  2.3634  0.0222
  113OSM      P11732   4.488   0.770  11.095  0.2195  0.1941  0.4068
  113OSM    O1311733   4.564   0.704  11.200 -0.2787  0.3552 -0.0509
  113OSM    O1411734   4.339   0.803  11.120 -0.6224  0.1506  0.0149
  113OSM    O1111735   4.497   0.682  10.959 -0.2525 -0.1077  0.2038
  113OSM    O1211736   4.579   0.891  11.041  0.2381 -0.3444 -0.3981
  113OSM    C1S11737   4.620   0.621  10.914 -0.5719  0.4395 -0.4171
  113OSM    H1S11738   4.640   0.528  10.972  0.0359  2.3778  2.7641
  113OSM    H1T11739   4.712   0.684  10.924 -0.0674  0.2172 -3.0761
  113OSM     NF11740   4.713   0.511  10.715  0.2899  0.0630  0.0314
  113OSM    HNF11741   4.778   0.566  10.661  0.8559 -0.5094  0.1176
  113OSM    C2S11742   4.597   0.576  10.770  0.2774  0.3750  0.4940
  113OSM    H2S11743   4.511   0.506  10.768  0.4507  0.1639 -0.8874
  113OSM    C3S11744   4.549   0.695  10.682 -0.3783  0.2681  0.3770
  113OSM    H3S11745   4.626   0.773  10.663  0.0580 -0.9071 -3.9420
  113OSM     O311746   4.424   0.751  10.724 -0.9245  0.0678 -0.0576
  113OSM    HO311747   4.421   0.742  10.820  1.1441  2.8627  0.3812
  113OSM    C4S11748   4.529   0.649  10.543  1.0376  0.1640  0.7712
  113OSM    H4S11749   4.468   0.560  10.521  2.7704 -1.1470  1.1497
  113OSM    C5S11750   4.608   0.683  10.442  0.3805 -1.1933  0.8671
  113OSM    H5S11751   4.678   0.766  10.459  0.5345 -1.0365 -0.4178
  113OSM    C6S11752   4.614   0.634  10.303 -0.3323 -0.2671  0.1586
  113OSM    H6S11753   4.719   0.609  10.278 -1.0547 -1.0150 -2.4535
  113OSM    H6T11754   4.591   0.723  10.240  1.2268  1.1810  1.5327
  113OSM    C7S11755   4.526   0.512  10.268 -0.1473 -0.0440 -0.0462
  113OSM    H7S11756   4.418   0.536  10.262 -0.3838 -1.3030 -1.3807
  113OSM    H7T11757   4.527   0.427  10.340 -1.2375  0.8846  1.1121
  113OSM    C8S11758   4.554   0.459  10.125  0.1446 -0.1780  0.5130
  113OSM    H8S11759   4.488   0.373  10.101 -1.1127  0.6112  0.9832
  113OSM    H8T11760   4.658   0.422  10.119  0.0015 -0.3919 -1.0292
  113OSM    C9S11761   4.532   0.556  10.006  0.4358  0.0774 -0.3188
  113OSM    H9S11762   4.532   0.665  10.027  2.9107 -0.0286  0.5760
  113OSM    H9T11763   4.432   0.518   9.976  1.6457 -3.5262 -0.3008
  113OSM   C10S11764   4.625   0.536   9.882  0.0325  0.1038 -0.0427
  113OSM   H10S11765   4.657   0.430   9.881 -1.9734 -0.5543  0.3506
  113OSM   H10T11766   4.709   0.605   9.905  0.4285 -0.7215  1.0743
  113OSM   C11S11767   4.559   0.572   9.759  0.8746  0.2488 -0.7702
  113OSM   H11S11768   4.532   0.680   9.770  1.4876  0.2968  0.3612
  113OSM   H11T11769   4.471   0.508   9.738  1.3950 -0.4062 -0.9881
  113OSM   C12S11770   4.651   0.560   9.636 -0.0876  0.6006  0.7927
  113OSM   H12S11771   4.674   0.451   9.628  1.0850  0.9632 -1.9347
  113OSM   H12T11772   4.753   0.604   9.642 -0.1412  1.0171 -0.8284
  113OSM   C13S11773   4.585   0.590   9.499 -0.8382 -0.1434  0.1946
  113OSM   H13S11774   4.588   0.700   9.487 -0.3297 -0.2505 -0.7087
  113OSM   H13T11775   4.480   0.557   9.485 -0.7619 -1.0998  1.6034
  113OSM   C14S11776   4.671   0.529   9.389 -0.4107  0.5568 -0.4477
  113OSM   H14S11777   4.639   0.423   9.374  0.6489  0.4166 -1.9569
  113OSM   H14T11778   4.777   0.523   9.422 -0.7436 -1.1996  0.4500
  113OSM   C15S11779   4.647   0.615   9.263  0.0766  0.2871  0.4563
  113OSM   H15S11780   4.650   0.725   9.282 -1.1666  0.5947 -0.9221
  113OSM   H15T11781   4.543   0.596   9.230  0.1856  0.0174  0.2711
  113OSM   C16S11782   4.743   0.587   9.144 -0.7092 -0.3836  0.7018
  113OSM   H16S11783   4.731   0.479   9.120 -0.2642 -0.1251 -0.7708
  113OSM   H16T11784   4.848   0.607   9.177 -1.0418 -1.4731  2.5786
  113OSM   C17S11785   4.703   0.678   9.028 -0.0273  0.1505  0.6156
  113OSM   H17S11786   4.671   0.774   9.074 -0.7418 -0.0975  0.6593
  113OSM   H17T11787   4.614   0.635   8.977  1.1100  0.0201 -1.3482
  113OSM   C18S11788   4.815   0.693   8.926 -0.0928 -0.8465  0.4507
  113OSM   H18S11789   4.804   0.781   8.859  1.2947  1.0757  2.5899
  113OSM   H18T11790   4.829   0.601   8.865 -4.1219  0.7939 -3.5067
  113OSM   H18U11791   4.912   0.705   8.980  0.4737 -0.8814 -0.5371
  113OSM    C1F11792   4.746   0.389  10.746 -0.5456  0.0082  1.0183
  113OSM     OF11793   4.670   0.313  10.802  0.5935 -0.2338 -0.2716
  113OSM    C2F11794   4.891   0.341  10.724 -0.1222 -0.1164 -0.3658
  113OSM    H2F11795   4.932   0.307  10.822 -0.7503  2.3378  0.8521
  113OSM    H2G11796   4.943   0.436  10.696  0.1721 -0.3948 -0.7748
  113OSM    C3F11797   4.903   0.228  10.611 -0.3097  0.3596  0.3685
  113OSM    H3F11798   4.858   0.135  10.651 -2.4984  1.1149 -0.2178
  113OSM    H3G11799   5.014   0.215  10.611 -0.1697  1.4458  0.9447
  113OSM    C4F11800   4.857   0.275  10.474 -0.4032 -0.2932 -0.6803
  113OSM    H4F11801   4.915   0.367  10.453  0.5858 -0.9384 -0.8068
  113OSM    H4G11802   4.746   0.287  10.475 -0.5796 -1.6503  0.7295
  113OSM    C5F11803   4.901   0.169  10.369  0.7653  0.1501 -0.8481
  113OSM    H5F11804   4.891   0.070  10.419 -1.5534  0.1190 -1.2572
  113OSM    H5G11805   5.010   0.175  10.347  1.6971 -1.0714  2.7354
  113OSM    C6F11806   4.806   0.159  10.252 -0.2544 -0.4283 -0.7302
  113OSM    H6F11807   4.810   0.252  10.191  0.4482 -1.8404 -3.0026
  113OSM    H6G11808   4.708   0.143  10.302  0.0416 -0.7370 -0.2449
  113OSM    C7F11809   4.837   0.035  10.163  0.2055 -0.3245  0.8181
  113OSM    H7F11810   4.853  -0.056  10.225  1.3661 -0.8122 -0.1545
  113OSM    H7G11811   4.924   0.053  10.097 -0.2419 -2.1475 -0.3378
  113OSM    C8F11812   4.723  -0.006  10.073  0.2312  0.4748 -0.4253
  113OSM    H8F11813   4.643  -0.053  10.134 -0.6475  2.3591 -0.0238
  113OSM    H8G11814   4.757  -0.092  10.012  0.9948  0.3171  0.2099
  113OSM    C9F11815   4.670   0.106   9.988 -0.0942  0.3736 -0.0470
  113OSM    H9F11816   4.627   0.172  10.065 -1.2072 -0.7377  0.3220
  113OSM   C10F11817   4.672   0.123   9.854  0.2191 -0.1483 -0.0917
  113OSM   H10F11818   4.635   0.220   9.818 -1.4250 -0.4321  0.7244
  113OSM   C11F11819   4.730   0.026   9.757  0.3830 -0.2195  0.0221
  113OSM   H11F11820   4.648  -0.043   9.727 -0.1839  0.5090 -0.1398
  113OSM   H11G11821   4.825  -0.021   9.788  2.0517  3.1319  0.4215
  113OSM   C12F11822   4.758   0.110   9.628  0.0731 -0.9075 -0.4312
  113OSM   H12F11823   4.845   0.177   9.648  0.8028 -1.7169 -0.8465
  113OSM   H12G11824   4.671   0.175   9.603 -0.6926 -0.9395  1.9007
  113OSM   C13F11825   4.798   0.029   9.503 -0.1026  0.2575 -0.7252
  113OSM   H13F11826   4.704  -0.023   9.477  0.4647 -1.4239  0.4439
  113OSM   H13G11827   4.880  -0.042   9.526  0.1618  0.7167 -0.2304
  113OSM   C14F11828   4.840   0.113   9.381  0.7616  0.0572 -0.4599
  113OSM   H14F11829   4.944   0.149   9.399  1.2616 -2.3424  2.1424
  113OSM   H14G11830   4.776   0.202   9.367  0.6036  0.1362  0.6582
  113OSM   C15F11831   4.849   0.026   9.246  0.8519 -0.7653 -0.0127
  113OSM   H15F11832   4.757  -0.034   9.261 -1.3017  1.7177 -2.0165
  113OSM   H15G11833   4.941  -0.036   9.250  0.1710 -1.7122  2.3532
  113OSM   C16F11834   4.834   0.111   9.120 -0.4210 -1.2765 -0.5756
  113OSM   H16F11835   4.742   0.172   9.133 -0.5432 -1.0739 -2.2544
  113OSM   H16G11836   4.827   0.051   9.027 -0.3468  0.2081 -1.5818
  113OSM   C17F11837   4.955   0.201   9.079  0.3929  0.2927 -0.2788
  113OSM   H17F11838   5.042   0.135   9.057  0.2386  0.3677 -1.1437
  113OSM   H17G11839   4.982   0.262   9.168  1.3557  0.4920 -0.6877
  113OSM   C18F11840   4.917   0.291   8.960  0.1669 -0.4862 -0.3067
  113OSM   H18F11841   4.829   0.357   8.978  1.0773  1.1504 -1.5655
  113OSM   H18G11842   4.904   0.237   8.863  0.4709 -2.0124  0.4830
  113OSM   H18H11843   4.994   0.371   8.952 -0.7814  0.6918  1.5815
  114OSM      N11844   0.927   3.864  11.325  0.5154  0.1315  1.1843
  114OSM    C1511845   1.023   3.754  11.327  0.5054  0.1957  0.3939
  114OSM   H15A11846   1.044   3.715  11.425  0.3736  2.1496  1.2256
  114OSM   H15B11847   1.116   3.789  11.285 -0.0173  2.4454  1.0084
  114OSM   H15C11848   0.999   3.677  11.254  4.4108  1.1299 -2.1850
  114OSM    C1411849   0.803   3.789  11.352 -0.3130  0.1420  0.0544
  114OSM   H14A11850   0.721   3.854  11.379 -0.3764  1.1214 -2.2774
  114OSM   H14B11851   0.816   3.718  11.432 -0.9344 -1.3013 -1.0797
  114OSM   H14C11852   0.779   3.729  11.266 -0.3174 -0.0330  0.1758
  114OSM    C1311853   0.955   3.969  11.432  0.0862  0.2228  0.0270
  114OSM   H13A11854   0.876   4.040  11.450 -2.4076 -2.6746  1.4237
  114OSM   H13B11855   1.054   4.006  11.410 -0.0159  0.3545 -0.2171
  114OSM   H13C11856   0.968   3.918  11.526  1.3564 -1.2430 -0.8892
  114OSM    C1211857   0.932   3.935  11.190  0.3996  0.3235  0.1624
  114OSM   H12A11858   0.850   4.005  11.179  1.2893  1.8065  2.4303
  114OSM   H12B11859   0.913   3.861  11.113  1.1698 -1.7007  1.8012
  114OSM    C1111860   1.057   4.032  11.164  0.0332  0.1947 -0.1199
  114OSM   H11A11861   1.052   4.111  11.243 -1.7830 -1.4897  1.5737
  114OSM   H11B11862   1.041   4.085  11.068  2.8600 -2.2936 -2.1666
  114OSM      P11863   1.200   3.845  11.046  0.2214  0.2658 -0.3741
  114OSM    O1311864   1.270   3.735  11.109  0.0492  0.0184 -0.2541
  114OSM    O1411865   1.074   3.814  10.968 -0.0293 -0.2902  0.2287
  114OSM    O1111866   1.298   3.916  10.940  0.1398 -0.3648  0.0294
  114OSM    O1211867   1.180   3.959  11.152 -0.0352 -0.4711  0.2188
  114OSM    C1S11868   1.329   3.845  10.819  0.3036 -0.5016 -0.0614
  114OSM    H1S11869   1.283   3.745  10.810  1.3774 -1.2444  1.9544
  114OSM    H1T11870   1.438   3.830  10.805  0.7302 -1.0058  3.0580
  114OSM     NF11871   1.285   3.836  10.583 -0.2081  0.7826  0.1137
  114OSM    HNF11872   1.363   3.853  10.524  2.4587 -1.1797  2.7884
  114OSM    C2S11873   1.268   3.921  10.698 -0.4416 -0.3451 -0.2708
  114OSM    H2S11874   1.160   3.936  10.718 -0.5354  0.6120 -1.3731
  114OSM    C3S11875   1.316   4.068  10.670 -0.1203  0.2443 -0.9641
  114OSM    H3S11876   1.420   4.059  10.632  0.3696 -0.6665  0.5148
  114OSM     O311877   1.323   4.154  10.791 -0.0843  0.3306  0.0168
  114OSM    HO311878   1.321   4.090  10.862 -0.6457 -0.5595 -0.7694
  114OSM    C4S11879   1.239   4.134  10.556 -0.0346 -0.3732 -0.3162
  114OSM    H4S11880   1.301   4.135  10.465 -0.6567  0.4568 -0.7449
  114OSM    C5S11881   1.130   4.203  10.548 -0.2407 -0.5629 -0.3871
  114OSM    H5S11882   1.061   4.212  10.633 -1.9219  0.8882 -1.8173
  114OSM    C6S11883   1.075   4.286  10.431  0.1537  0.1306  0.0112
  114OSM    H6S11884   1.092   4.395  10.445  2.4628  0.1532 -2.2779
  114OSM    H6T11885   0.969   4.256  10.416  0.2635 -1.3625  1.7947
  114OSM    C7S11886   1.142   4.265  10.290 -0.1393  0.7882 -0.3941
  114OSM    H7S11887   1.137   4.157  10.265  5.8027 -0.2292  1.3570
  114OSM    H7T11888   1.251   4.287  10.294 -0.1212  0.5585  2.4675
  114OSM    C8S11889   1.067   4.342  10.175  0.5026  0.3005  0.2870
  114OSM    H8S11890   1.132   4.316  10.088 -0.7256 -1.1588 -0.2382
  114OSM    H8T11891   1.088   4.445  10.208 -2.5334  0.9054  0.6406
  114OSM    C9S11892   0.920   4.295  10.141 -0.2107 -0.0850  0.0281
  114OSM    H9S11893   0.864   4.391  10.132 -0.7885 -0.5158 -1.2239
  114OSM    H9T11894   0.877   4.244  10.230  0.7369 -1.0622 -0.0640
  114OSM   C10S11895   0.901   4.201  10.023  0.0129 -0.5369  0.1881
  114OSM   H10S11896   0.798   4.160  10.020  0.7858 -2.6390  0.5119
  114OSM   H10T11897   0.965   4.110  10.033 -1.2425 -1.3358  1.2379
  114OSM   C11S11898   0.935   4.275   9.892 -0.0463 -0.5261  0.2061
  114OSM   H11S11899   1.041   4.305   9.905 -0.4886  0.2358  2.3657
  114OSM   H11T11900   0.868   4.358   9.858 -0.0770 -1.0629 -1.1160
  114OSM   C12S11901   0.934   4.185   9.769  0.3001 -0.4363 -0.3219
  114OSM   H12S11902   0.832   4.141   9.759  0.4695 -0.8994 -0.0250
  114OSM   H12T11903   0.987   4.090   9.788 -0.8537 -1.2000 -0.8061
  114OSM   C13S11904   0.967   4.247   9.632  0.5716 -0.1574 -0.4070
  114OSM   H13S11905   1.068   4.294   9.636  0.1775  0.7564 -0.9634
  114OSM   H13T11906   0.892   4.323   9.601 -1.5596 -1.3658  1.5208
  114OSM   C14S11907   0.962   4.131   9.524  0.3023 -0.0584  0.0035
  114OSM   H14S11908   0.869   4.073   9.543 -0.6800  1.3939 -0.2109
  114OSM   H14T11909   1.049   4.066   9.549  0.1816 -0.2325 -0.0235
  114OSM   C15S11910   0.958   4.182   9.378 -0.0048  0.6357  0.7911
  114OSM   H15S11911   1.055   4.226   9.347  0.6106 -0.0736  1.6564
  114OSM   H15T11912   0.881   4.259   9.360  0.5130  0.5699 -2.2457
  114OSM   C16S11913   0.938   4.066   9.272  0.2753 -0.0860 -0.2852
  114OSM   H16S11914   0.910   4.112   9.175  0.4040 -0.3752 -0.4598
  114OSM   H16T11915   0.857   3.997   9.304  0.4867 -1.2421 -2.1158
  114OSM   C17S11916   1.060   3.969   9.257 -0.4000 -1.2899  0.7544
  114OSM   H17S11917   1.076   3.921   9.356 -1.0973 -0.4019  1.3189
  114OSM   H17T11918   1.150   4.025   9.225 -0.9863 -2.3797 -3.3293
  114OSM   C18S11919   1.032   3.855   9.150 -0.1210 -0.0589  0.4156
  114OSM   H18S11920   0.950   3.797   9.196 -0.2163  0.1844  0.5553
  114OSM   H18T11921   1.120   3.792   9.126  1.3842  2.7680 -2.2144
  114OSM   H18U11922   0.988   3.888   9.054  0.8160 -1.5608 -0.5616
  114OSM    C1F11923   1.223   3.717  10.562 -0.4182 -0.5832  0.1430
  114OSM     OF11924   1.120   3.699  10.629  0.0400  0.1627 -0.7569
  114OSM    C2F11925   1.276   3.626  10.454  0.3939 -0.0233 -0.0973
  114OSM    H2F11926   1.385   3.615  10.473  0.7819  3.5468  0.5734
  114OSM    H2G11927   1.258   3.684  10.361 -2.2733 -0.6424 -0.0577
  114OSM    C3F11928   1.192   3.499  10.451 -0.9591 -1.0129  0.3497
  114OSM    H3F11929   1.085   3.530  10.439 -0.0114  2.0564 -1.3949
  114OSM    H3G11930   1.202   3.448  10.549 -1.7405 -0.2784  0.8326
  114OSM    C4F11931   1.223   3.411  10.326  0.2272 -0.6367 -0.8132
  114OSM    H4F11932   1.176   3.311  10.338 -0.8719 -0.2812 -1.8996
  114OSM    H4G11933   1.330   3.393  10.348 -0.2413 -0.0771  2.3558
  114OSM    C5F11934   1.185   3.479  10.194  0.4264  0.3774  0.5297
  114OSM    H5F11935   1.213   3.587  10.195 -0.6355  0.7116  3.0457
  114OSM    H5G11936   1.075   3.468  10.183  0.5094 -0.9584  0.8846
  114OSM    C6F11937   1.252   3.402  10.076  0.2566 -0.1528 -0.9480
  114OSM    H6F11938   1.221   3.297  10.093 -0.7672 -0.0770 -2.2404
  114OSM    H6G11939   1.362   3.402  10.089  0.4521  2.3041 -2.1094
  114OSM    C7F11940   1.191   3.434   9.945  0.2592 -0.0363  0.0957
  114OSM    H7F11941   1.272   3.423   9.870  1.2385  0.4094  1.0564
  114OSM    H7G11942   1.160   3.540   9.939  0.3778 -0.0395 -0.7179
  114OSM    C8F11943   1.078   3.340   9.898  0.2970  0.0826 -0.4523
  114OSM    H8F11944   1.053   3.377   9.797 -0.9654 -0.6366 -0.4160
  114OSM    H8G11945   0.998   3.346   9.975  0.0042  0.0578 -0.7545
  114OSM    C9F11946   1.105   3.192   9.879  0.4423 -0.7882 -0.2764
  114OSM    H9F11947   1.150   3.140   9.965 -0.2262 -0.4684  0.2789
  114OSM   C10F11948   1.067   3.115   9.778 -0.6274  0.4096 -0.2028
  114OSM   H10F11949   1.102   3.010   9.781  0.6117  0.8237  1.1359
  114OSM   C11F11950   0.992   3.143   9.648  0.1686  0.2529 -0.0085
  114OSM   H11F11951   0.946   3.244   9.650 -1.4040 -0.4316  0.0975
  114OSM   H11G11952   0.904   3.074   9.642 -0.3789  0.7812  1.4307
  114OSM   C12F11953   1.069   3.130   9.522 -0.3167  0.2358  0.7896
  114OSM   H12F11954   1.104   3.025   9.516 -0.3414  0.2759 -0.3291
  114OSM   H12G11955   1.153   3.200   9.500 -0.9599 -0.1851 -4.2571
  114OSM   C13F11956   0.988   3.162   9.394  0.4881 -0.6446 -0.0690
  114OSM   H13F11957   0.949   3.266   9.402 -0.2508 -0.9131 -0.1379
  114OSM   H13G11958   0.893   3.106   9.401  0.3610 -0.3761  0.4172
  114OSM   C14F11959   1.067   3.165   9.264 -0.3921  0.5762  0.1141
  114OSM   H14F11960   1.103   3.061   9.255  1.8703  1.4423 -1.6715
  114OSM   H14G11961   1.163   3.218   9.282  0.2866 -1.1200  1.7626
  114OSM   C15F11962   0.989   3.233   9.158  0.1157 -0.2522 -0.1018
  114OSM   H15F11963   0.977   3.335   9.199 -0.1791  0.9468 -2.9715
  114OSM   H15G11964   0.889   3.193   9.133  0.4497 -0.5211 -1.0461
  114OSM   C16F11965   1.060   3.248   9.023 -0.6958  0.4435 -0.3285
  114OSM   H16F11966   1.151   3.310   9.034  0.8368 -1.6708 -0.5912
  114OSM   H16G11967   0.990   3.302   8.955 -2.0503 -0.6947  0.1196
  114OSM   C17F11968   1.108   3.107   8.966 -0.0604 -0.6570  0.6120
  114OSM   H17F11969   1.022   3.037   8.968 -0.5091 -0.0974  1.6949
  114OSM   H17G11970   1.166   3.064   9.051 -0.5745  0.1966  1.4233
  114OSM   C18F11971   1.180   3.108   8.833 -0.4677 -0.3976 -0.1129
  114OSM   H18F11972   1.220   3.008   8.810 -0.7665 -1.5719  3.7330
  114OSM   H18G11973   1.265   3.180   8.836 -0.9005  0.1501 -0.5401
  114OSM   H18H11974   1.104   3.153   8.765 -0.9368  0.5280  0.9822
  115OSM      N11975   4.791   2.177  10.951  0.3633 -0.3845 -0.3107
  115OSM    C1511976   4.846   2.102  11.069  0.0458 -0.3361 -0.5484
  115OSM   H15A11977   4.952   2.088  11.055 -0.0841 -0.4693 -1.4857
  115OSM   H15B11978   4.798   2.007  11.081 -2.4396  1.0272  1.0222
  115OSM   H15C11979   4.820   2.155  11.160  1.4535 -0.1082 -0.2506
  115OSM    C1411980   4.808   2.099  10.827 -0.3428 -0.1433  0.7370
  115OSM   H14A11981   4.780   2.160  10.742  2.6530  0.3936  0.0163
  115OSM   H14B11982   4.749   2.008  10.832 -2.2765  1.0092  0.0448
  115OSM   H14C11983   4.913   2.078  10.814 -0.1978  0.1856  1.3600
  115OSM    C1311984   4.644   2.201  10.973  0.3697 -0.0698  0.2292
  115OSM   H13A11985   4.603   2.263  10.895  1.7139 -0.3184 -0.7033
  115OSM   H13B11986   4.634   2.262  11.062  1.1301  1.5795 -0.7738
  115OSM   H13C11987   4.582   2.112  10.972 -0.9649  0.8314 -1.0175
  115OSM    C1211988   4.867   2.309  10.939 -0.6904  0.6846  0.3829
  115OSM   H12A11989   4.837   2.347  10.843  0.6835 -0.2363 -0.4519
  115OSM   H12B11990   4.974   2.293  10.938 -0.6002  1.3167 -0.6490
  115OSM    C1111991   4.848   2.423  11.043 -0.2631 -0.2822 -0.3202
  115OSM   H11A11992   4.925   2.503  11.044  0.8744 -1.2908 -1.7482
  115OSM   H11B11993   4.863   2.388  11.147  0.2922  1.0040  0.0509
  115OSM      P11994   4.689   2.584  10.917 -0.2043  0.4714 -0.0797
  115OSM    O1311995   4.640   2.707  10.976 -0.1640  0.2361 -0.1972
  115OSM    O1411996   4.805   2.598  10.826  0.0484  0.6498 -0.4985
  115OSM    O1111997   4.580   2.509  10.835  0.2772 -0.7728  0.2402
  115OSM    O1211998   4.721   2.485  11.036 -0.1029 -0.1116 -0.0383
  115OSM    C1S11999   4.503   2.571  10.734  0.4719  0.2041  0.4789
  115OSM    H1S12000   4.483   2.677  10.761 -0.3759  0.7131 -1.9116
  115OSM    H1T12001   4.404   2.523  10.725 -0.1515  1.5671 -0.3235
  115OSM     NF12002   4.500   2.648  10.497 -0.1991  0.5095  0.4441
  115OSM    HNF12003   4.441   2.602  10.431 -0.0719  0.1795  0.5615
  115OSM    C2S12004   4.576   2.572  10.592 -0.5561 -0.0433 -0.3010
  115OSM    H2S12005   4.670   2.629  10.614 -1.2415  1.9446 -2.1657
  115OSM    C3S12006   4.618   2.429  10.550  0.1112  1.0399  0.1099
  115OSM    H3S12007   4.537   2.353  10.552  0.7096  0.3960  1.6532
  115OSM     O312008   4.726   2.381  10.632  0.6245  0.2385 -0.4319
  115OSM    HO312009   4.744   2.445  10.702 -0.5469  1.6930 -1.3903
  115OSM    C4S12010   4.669   2.425  10.407 -0.1307 -0.1156 -0.1998
  115OSM    H4S12011   4.765   2.479  10.405  0.6532 -1.2398  2.3099
  115OSM    C5S12012   4.622   2.351  10.308  0.7213  0.0398 -0.9232
  115OSM    H5S12013   4.541   2.279  10.328  3.6530 -3.1868  0.5310
  115OSM    C6S12014   4.681   2.347  10.164  0.0999 -0.4885  0.3422
  115OSM    H6S12015   4.767   2.417  10.158 -1.7115  2.0488  1.5576
  115OSM    H6T12016   4.598   2.391  10.103 -0.0405 -0.5175  0.5116
  115OSM    C7S12017   4.709   2.206  10.125  0.2392  0.7634 -0.6211
  115OSM    H7S12018   4.619   2.141  10.119  1.8442 -1.5368 -1.7879
  115OSM    H7T12019   4.766   2.163  10.209 -2.2219 -1.8956 -0.1458
  115OSM    C8S12020   4.797   2.183   9.997 -0.0218  1.0699  0.3740
  115OSM    H8S12021   4.834   2.078   9.993  1.9439  1.7548 -0.7276
  115OSM    H8T12022   4.889   2.241  10.017  0.9816 -0.7062  1.1117
  115OSM    C9S12023   4.737   2.217   9.858  0.2672 -0.4896 -0.0351
  115OSM    H9S12024   4.702   2.322   9.870 -0.1646 -0.7072  0.6736
  115OSM    H9T12025   4.649   2.159   9.823 -0.3343  0.7158 -0.5785
  115OSM   C10S12026   4.836   2.207   9.742  0.2150  0.0539 -0.0438
  115OSM   H10S12027   4.882   2.107   9.750 -0.2388 -0.1455  0.0978
  115OSM   H10T12028   4.913   2.286   9.757 -1.0410  1.4503 -0.6166
  115OSM   C11S12029   4.768   2.227   9.607  0.6343  0.6278  0.2820
  115OSM   H11S12030   4.695   2.145   9.586  1.0629  0.4964 -0.7643
  115OSM   H11T12031   4.847   2.211   9.530  0.5498 -0.8253  0.4752
  115OSM   C12S12032   4.715   2.363   9.575  0.1408  0.1719 -0.9301
  115OSM   H12S12033   4.802   2.433   9.579  0.9248 -0.7334 -1.6349
  115OSM   H12T12034   4.632   2.399   9.639  2.4923 -0.9380  3.0985
  115OSM   C13S12035   4.670   2.372   9.436  0.0751  0.4342  0.2351
  115OSM   H13S12036   4.601   2.457   9.417 -1.3358 -0.6346  0.4546
  115OSM   H13T12037   4.594   2.298   9.405  0.6158  0.2020 -0.5575
  115OSM   C14S12038   4.781   2.390   9.330  0.1882 -0.0486 -0.1006
  115OSM   H14S12039   4.826   2.290   9.309 -0.2354 -0.1600 -0.4933
  115OSM   H14T12040   4.866   2.445   9.375  1.6020 -2.9263  1.0256
  115OSM   C15S12041   4.724   2.458   9.196 -0.1371  0.5724  0.1331
  115OSM   H15S12042   4.721   2.568   9.212  1.1179  0.6026  0.2468
  115OSM   H15T12043   4.620   2.421   9.184 -0.9515  2.3562  1.2709
  115OSM   C16S12044   4.805   2.418   9.070 -0.0265  0.0507 -0.3397
  115OSM   H16S12045   4.807   2.307   9.064 -1.3455  0.0063 -0.1990
  115OSM   H16T12046   4.909   2.452   9.089  0.0674 -1.4579  2.4646
  115OSM   C17S12047   4.733   2.474   8.954 -1.4941  0.4936 -0.1497
  115OSM   H17S12048   4.634   2.425   8.942 -1.7400  0.9055  0.1766
  115OSM   H17T12049   4.800   2.459   8.867 -0.4207  1.2199  0.5206
  115OSM   C18S12050   4.706   2.624   8.957 -0.3908  0.3649 -0.2326
  115OSM   H18S12051   4.796   2.688   8.970  0.6627 -1.1861  0.5063
  115OSM   H18T12052   4.653   2.655   9.049  0.3843 -1.6916  0.9910
  115OSM   H18U12053   4.648   2.656   8.868  0.7402 -0.3421 -1.2643
  115OSM    C1F12054   4.490   2.781  10.508  0.4617 -0.6524 -0.7374
  115OSM     OF12055   4.536   2.843  10.608  0.0562  0.0035  0.6710
  115OSM    C2F12056   4.427   2.856  10.386 -0.0912  1.2494  0.1164
  115OSM    H2F12057   4.340   2.796  10.353  1.2239 -0.8716  0.3030
  115OSM    H2G12058   4.506   2.858  10.308  1.1201  1.5820  1.3098
  115OSM    C3F12059   4.377   2.998  10.411  0.5297 -0.2290 -0.7766
  115OSM    H3F12060   4.444   3.058  10.477 -0.1230 -0.0582 -0.2644
  115OSM    H3G12061   4.284   2.991  10.471  2.0456  1.6274  2.0143
  115OSM    C4F12062   4.343   3.086  10.283  0.0361  0.0385 -0.8005
  115OSM    H4F12063   4.440   3.097  10.230 -0.1937  3.4920 -0.7152
  115OSM    H4G12064   4.312   3.188  10.316  1.5000  0.2782 -0.1226
  115OSM    C5F12065   4.227   3.034  10.200  0.2831 -0.1580  0.8528
  115OSM    H5F12066   4.145   3.021  10.274 -1.3287  0.3907 -0.7558
  115OSM    H5G12067   4.254   2.937  10.153 -0.7154 -0.7732  1.5166
  115OSM    C6F12068   4.168   3.152  10.104 -0.0502  0.6915 -0.0113
  115OSM    H6F12069   4.144   3.244  10.162  1.5373  0.2779  1.3904
  115OSM    H6G12070   4.069   3.116  10.069  0.1662 -0.5891  0.6188
  115OSM    C7F12071   4.267   3.171   9.981  0.0283 -0.0251 -0.7014
  115OSM    H7F12072   4.371   3.184  10.018 -0.2860  2.2514 -0.4979
  115OSM    H7G12073   4.253   3.269   9.929 -1.5487  0.1026 -0.0965
  115OSM    C8F12074   4.269   3.057   9.875  0.2738 -0.2473 -0.3642
  115OSM    H8F12075   4.162   3.046   9.844 -0.4083  0.4721  1.5842
  115OSM    H8G12076   4.306   2.965   9.925 -0.1943  0.4396  1.3042
  115OSM    C9F12077   4.352   3.076   9.754 -0.2334 -0.6718 -0.3290
  115OSM    H9F12078   4.450   3.027   9.757 -0.4923 -1.5787 -3.1685
  115OSM   C10F12079   4.317   3.134   9.636  0.3846  0.4985  0.2405
  115OSM   H10F12080   4.397   3.135   9.561 -1.5505 -1.1820 -1.9844
  115OSM   C11F12081   4.187   3.195   9.596  0.0686  0.1672  0.1012
  115OSM   H11F12082   4.195   3.305   9.607 -2.0635  0.4963 -1.0847
  115OSM   H11G12083   4.109   3.155   9.665  1.3311 -2.5382  0.0785
  115OSM   C12F12084   4.136   3.166   9.456  0.9556  0.1402  1.1456
  115OSM   H12F12085   4.033   3.207   9.448  0.6896 -0.4862  1.3464
  115OSM   H12G12086   4.118   3.058   9.440  0.0866  0.6576 -2.0832
  115OSM   C13F12087   4.224   3.229   9.348 -0.4174  0.6733 -0.0107
  115OSM   H13F12088   4.333   3.225   9.369 -0.7031  1.9196  1.9084
  115OSM   H13G12089   4.204   3.338   9.346 -2.3949  0.3715  1.3195
  115OSM   C14F12090   4.196   3.168   9.210 -0.3197  0.3146 -0.0484
  115OSM   H14F12091   4.087   3.168   9.191 -0.2360 -0.7285 -0.6007
  115OSM   H14G12092   4.226   3.061   9.217 -0.3863  0.2457 -0.7018
  115OSM   C15F12093   4.274   3.237   9.106 -0.1123  0.3694 -0.3120
  115OSM   H15F12094   4.383   3.221   9.117  0.0830  2.2166  0.9515
  115OSM   H15G12095   4.258   3.344   9.131 -3.7311 -0.4834  1.7809
  115OSM   C16F12096   4.233   3.190   8.967  0.6999 -0.5040 -1.2083
  115OSM   H16F12097   4.124   3.207   8.960  0.2501 -2.1978  0.8117
  115OSM   H16G12098   4.251   3.081   8.969  0.0887 -0.7431 -4.2239
  115OSM   C17F12099   4.311   3.257   8.849  0.3378 -0.2400 -0.3101
  115OSM   H17F12100   4.286   3.365   8.848  1.2890  0.0076  0.3056
  115OSM   H17G12101   4.266   3.210   8.759 -0.1020 -1.0599  0.3261
  115OSM   C18F12102   4.465   3.234   8.845 -0.4716  0.1079 -0.2034
  115OSM   H18F12103   4.505   3.249   8.742  1.1595 -0.8491  0.2642
  115OSM   H18G12104   4.487   3.129   8.873  0.2975 -0.0507 -1.3343
  115OSM   H18H12105   4.518   3.299   8.917  0.1622 -1.4595  0.8039
  116OSM      N12106   0.139   0.260  11.257 -0.0183  0.1480 -0.2109
  116OSM    C1512107   0.126   0.121  11.213 -0.2290  0.2618  0.2976
  116OSM   H15A12108   0.044   0.082  11.271  0.3466  0.5558  1.3303
  116OSM   H15B12109   0.213   0.059  11.226  0.4900  1.5809  2.0679
  116OSM   H15C12110   0.108   0.112  11.107  1.8423 -2.2975  0.0587
  116OSM    C1412111   0.177   0.266  11.406  0.3137 -0.5845  0.1279
  116OSM   H14A12112   0.099   0.234  11.474  0.9324 -0.7042  0.7986
  116OSM   H14B12113   0.210   0.365  11.433 -0.3953  0.0350 -1.1809
  116OSM   H14C12114   0.260   0.198  11.417 -0.0751 -1.2405 -0.8823
  116OSM    C1312115   0.244   0.322  11.181 -0.3867 -0.4096 -0.1256
  116OSM   H13A12116   0.245   0.428  11.201  0.2272 -0.3504 -0.4714
  116OSM   H13B12117   0.225   0.320  11.075 -0.5287  0.8407 -0.1386
  116OSM   H13C12118   0.342   0.284  11.205 -0.2592  0.6855  1.2512
  116OSM    C1212119   0.006   0.333  11.257  0.9661  0.2766  0.3545
  116OSM   H12A12120   0.010   0.430  11.304 -0.5090 -1.0082  3.3780
  116OSM   H12B12121  -0.067   0.275  11.310 -0.9097  0.3796 -1.9602
  116OSM    C1112122  -0.056   0.362  11.115 -0.5406  0.0273 -0.4580
  116OSM   H11A12123  -0.155   0.410  11.133 -0.0220  0.8739  0.1745
  116OSM   H11B12124  -0.081   0.259  11.082  0.3196 -0.0632 -0.8522
  116OSM      P12125   0.054   0.589  11.032  0.3154  0.0434 -0.1197
  116OSM    O1312126  -0.071   0.667  11.039  0.2437 -0.0133 -0.0624
  116OSM    O1412127   0.149   0.614  11.148  0.1441  0.6389  0.0559
  116OSM    O1112128   0.126   0.622  10.901 -0.0120  0.3332  0.0971
  116OSM    O1212129   0.026   0.433  11.021 -0.1186  0.2978 -0.1965
  116OSM    C1S12130   0.242   0.551  10.858  0.4642 -0.0742  0.4096
  116OSM    H1S12131   0.247   0.446  10.896  0.5370  0.1050  0.9074
  116OSM    H1T12132   0.333   0.594  10.904  0.0466  0.4455  0.7554
  116OSM     NF12133   0.344   0.450  10.658 -0.6420  0.0460  0.6199
  116OSM    HNF12134   0.436   0.488  10.649 -0.9522  0.6990  0.1600
  116OSM    C2S12135   0.253   0.553  10.703  0.2154 -0.0157 -0.2560
  116OSM    H2S12136   0.150   0.532  10.668  0.1257 -1.7733  0.9583
  116OSM    C3S12137   0.301   0.693  10.658  0.5368  0.0041 -0.0530
  116OSM    H3S12138   0.401   0.719  10.699  1.7147 -1.5042 -1.7927
  116OSM     O312139   0.215   0.791  10.710 -0.1785  0.2511 -0.3290
  116OSM    HO312140   0.158   0.747  10.773  0.8712  2.1004  2.0836
  116OSM    C4S12141   0.301   0.698  10.512 -0.1710  0.3193 -1.0907
  116OSM    H4S12142   0.197   0.706  10.476 -0.3508 -1.4417 -1.0808
  116OSM    C5S12143   0.404   0.699  10.424 -0.1228  0.7020 -0.0622
  116OSM    H5S12144   0.507   0.707  10.459 -0.5149  0.5386  1.1519
  116OSM    C6S12145   0.381   0.702  10.272  0.0684 -0.0667  0.2544
  116OSM    H6S12146   0.442   0.626  10.219 -0.1219 -1.0918  1.4568
  116OSM    H6T12147   0.424   0.797  10.233 -1.9365  0.0029 -1.9790
  116OSM    C7S12148   0.233   0.692  10.225 -1.0275  0.1007 -0.2203
  116OSM    H7S12149   0.171   0.777  10.261 -1.0796 -0.1604  0.3152
  116OSM    H7T12150   0.195   0.596  10.267 -2.5281  0.1648 -1.3672
  116OSM    C8S12151   0.220   0.681  10.073  0.1910 -0.4346  0.7436
  116OSM    H8S12152   0.127   0.626  10.047  1.7002 -2.4331 -0.7599
  116OSM    H8T12153   0.310   0.631  10.031 -0.2480 -1.0655  0.5284
  116OSM    C9S12154   0.204   0.811   9.991 -0.7158 -0.3508 -0.1187
  116OSM    H9S12155   0.277   0.889  10.024 -2.0935  0.8073  0.3202
  116OSM    H9T12156   0.104   0.850  10.020 -0.9029 -0.3207 -0.8038
  116OSM   C10S12157   0.207   0.792   9.841  0.2510 -0.6358 -0.3690
  116OSM   H10S12158   0.173   0.892   9.808 -1.9380 -1.2497 -0.1555
  116OSM   H10T12159   0.130   0.719   9.806  0.7712 -0.2649 -2.4651
  116OSM   C11S12160   0.332   0.748   9.774 -0.1612  0.0360 -0.2690
  116OSM   H11S12161   0.319   0.639   9.757 -2.5544 -0.0686  1.6201
  116OSM   H11T12162   0.413   0.760   9.849  1.0131 -1.8383 -1.1420
  116OSM   C12S12163   0.362   0.806   9.637  0.3853 -1.1074  0.7304
  116OSM   H12S12164   0.450   0.760   9.588  0.1030  0.6494 -1.5826
  116OSM   H12T12165   0.370   0.915   9.657  1.3376 -1.1201  0.4628
  116OSM   C13S12166   0.236   0.804   9.534 -0.3969  0.0589 -0.6062
  116OSM   H13S12167   0.155   0.878   9.552 -1.5130 -0.7925 -1.9315
  116OSM   H13T12168   0.185   0.712   9.569  1.3975  0.0212  2.2383
  116OSM   C14S12169   0.271   0.807   9.386  0.0669  0.6795 -0.1567
  116OSM   H14S12170   0.305   0.707   9.354 -0.9953 -0.2032  1.3479
  116OSM   H14T12171   0.351   0.885   9.393 -0.9592  1.6349  2.4210
  116OSM   C15S12172   0.153   0.851   9.294  0.2029  0.4175 -0.7653
  116OSM   H15S12173   0.185   0.863   9.188 -4.1496  1.1499 -2.2041
  116OSM   H15T12174   0.105   0.944   9.329 -3.4215 -1.3543 -0.5519
  116OSM   C16S12175   0.048   0.749   9.280 -0.2984  0.7900 -0.3313
  116OSM   H16S12176  -0.011   0.726   9.371 -1.2449  0.0181 -1.1216
  116OSM   H16T12177   0.107   0.661   9.246 -2.0801 -0.2779 -0.8029
  116OSM   C17S12178  -0.061   0.766   9.171  0.2491 -0.1846  0.5947
  116OSM   H17S12179  -0.142   0.837   9.201 -1.9739 -2.8446  1.3960
  116OSM   H17T12180  -0.122   0.674   9.165  2.2335 -1.6081  1.3216
  116OSM   C18S12181  -0.013   0.807   9.029  0.0201  0.3563 -0.4076
  116OSM   H18S12182   0.079   0.748   9.008  1.5662  2.7326 -0.6901
  116OSM   H18T12183   0.014   0.915   9.025  0.1458  0.3692  0.4419
  116OSM   H18U12184  -0.100   0.792   8.963  1.2789 -1.8384 -1.6973
  116OSM    C1F12185   0.317   0.321  10.669  0.0211 -0.6656 -1.0446
  116OSM     OF12186   0.203   0.286  10.695 -0.3848  1.1655 -0.0961
  116OSM    C2F12187   0.432   0.235  10.650 -0.2864 -0.0414 -0.3936
  116OSM    H2F12188   0.470   0.184  10.740  0.5696 -0.7164 -1.1130
  116OSM    H2G12189   0.520   0.293  10.614 -1.6410  1.5614 -1.2781
  116OSM    C3F12190   0.420   0.124  10.540 -0.2754  0.2677 -0.3930
  116OSM    H3F12191   0.313   0.123  10.507 -0.3410  0.8199 -0.2000
  116OSM    H3G12192   0.438   0.025  10.587  0.3040  0.0889 -0.9749
  116OSM    C4F12193   0.512   0.145  10.424 -0.8798 -0.0408 -0.0299
  116OSM    H4F12194   0.608   0.162  10.477 -2.1875  1.0903  2.1041
  116OSM    H4G12195   0.509   0.240  10.368  1.2272  0.5277  0.7222
  116OSM    C5F12196   0.527   0.023  10.323  0.4821 -0.0457  0.2359
  116OSM    H5F12197   0.422   0.004  10.289 -0.1479 -1.9298  2.9226
  116OSM    H5G12198   0.563  -0.063  10.383 -1.2655 -1.5919 -0.8005
  116OSM    C6F12199   0.623   0.051  10.204  0.0966  0.0087 -0.0827
  116OSM    H6F12200   0.664  -0.046  10.167 -0.2467  0.3438 -1.4192
  116OSM    H6G12201   0.714   0.100  10.245 -2.0057  2.7302  1.6224
  116OSM    C7F12202   0.549   0.138  10.107  0.1238  0.5814 -0.1069
  116OSM    H7F12203   0.622   0.179  10.034 -0.7633  0.7013 -0.9535
  116OSM    H7G12204   0.489   0.225  10.140  0.6344  2.1483 -3.0293
  116OSM    C8F12205   0.458   0.060  10.019  0.2528  0.5437  0.0853
  116OSM    H8F12206   0.373   0.038  10.088  0.1633 -0.7939 -0.4191
  116OSM    H8G12207   0.508  -0.031   9.980  0.3783  0.5303  0.2815
  116OSM    C9F12208   0.399   0.138   9.906 -0.6810  0.3342 -0.5637
  116OSM    H9F12209   0.332   0.222   9.929 -0.7280 -0.0008  0.5761
  116OSM   C10F12210   0.430   0.123   9.777  0.1439 -0.6453  0.0921
  116OSM   H10F12211   0.374   0.186   9.707  1.6244  0.3284 -0.2580
  116OSM   C11F12212   0.528   0.027   9.722 -0.0298 -0.6143  0.3194
  116OSM   H11F12213   0.601  -0.006   9.798 -0.1313 -1.0526  0.2322
  116OSM   H11G12214   0.595   0.084   9.654  1.0386  0.0946  1.9037
  116OSM   C12F12215   0.457  -0.079   9.643  0.4636  0.5994  0.1753
  116OSM   H12F12216   0.387  -0.134   9.710  2.6047 -1.5934  0.7502
  116OSM   H12G12217   0.542  -0.146   9.621 -1.0243 -1.7557  1.2335
  116OSM   C13F12218   0.385  -0.018   9.523  0.6929 -0.0234  0.2488
  116OSM   H13F12219   0.435   0.077   9.495 -0.8235  0.2726 -1.7239
  116OSM   H13G12220   0.281   0.009   9.552  0.6481  0.7889 -0.6056
  116OSM   C14F12221   0.375  -0.109   9.409  0.2223  0.4025 -0.7836
  116OSM   H14F12222   0.293  -0.074   9.342  1.1902  1.3790 -1.4906
  116OSM   H14G12223   0.343  -0.210   9.443 -1.8877  0.9083 -1.1194
  116OSM   C15F12224   0.500  -0.122   9.327  0.3102 -0.2200 -0.3249
  116OSM   H15F12225   0.580  -0.157   9.396 -0.4094 -2.5880 -0.5975
  116OSM   H15G12226   0.527  -0.019   9.295 -1.0958 -0.5230 -2.6320
  116OSM   C16F12227   0.471  -0.220   9.212 -0.0338 -0.5103 -0.4534
  116OSM   H16F12228   0.405  -0.303   9.241 -1.0152  0.5047  0.2956
  116OSM   H16G12229   0.565  -0.264   9.171  0.0133 -0.0454 -0.8534
  116OSM   C17F12230   0.409  -0.154   9.085  1.2058 -0.1412  0.2252
  116OSM   H17F12231   0.311  -0.109   9.109  0.4996  0.4916 -3.2793
  116OSM   H17G12232   0.393  -0.235   9.010 -0.9900  0.5691 -0.1500
  116OSM   C18F12233   0.492  -0.039   9.024  0.1451  0.2553  0.2691
  116OSM   H18F12234   0.475   0.045   9.096 -0.6154  0.0058  0.3955
  116OSM   H18G12235   0.444  -0.007   8.929 -1.2856  1.3350  1.2904
  116OSM   H18H12236   0.599  -0.063   9.010 -0.2374 -0.9629 -0.7248
  117OSM      N12237   4.275   6.786  11.205  0.2000 -0.7301  1.1716
  117OSM    C1512238   4.322   6.871  11.095 -0.8769 -0.2767 -0.3414
  117OSM   H15A12239   4.240   6.897  11.031  0.8718  1.2434 -2.1077
  117OSM   H15B12240   4.400   6.821  11.038 -0.1207  0.9215 -0.3942
  117OSM   H15C12241   4.372   6.961  11.127  0.3226 -1.6178  1.8405
  117OSM    C1412242   4.395   6.728  11.273  0.7624 -0.3967  0.2254
  117OSM   H14A12243   4.456   6.666  11.209 -0.3659 -2.9438  1.4326
  117OSM   H14B12244   4.360   6.677  11.362 -2.6950 -1.7007 -1.7007
  117OSM   H14C12245   4.460   6.807  11.307 -2.3193  1.7845  1.5106
  117OSM    C1312246   4.195   6.858  11.298 -0.0942 -0.4205 -0.3397
  117OSM   H13A12247   4.252   6.911  11.372  1.2479 -1.2411 -0.7423
  117OSM   H13B12248   4.120   6.795  11.345 -1.1154  0.3416 -0.9178
  117OSM   H13C12249   4.134   6.934  11.252  0.5241  0.4396  0.2226
  117OSM    C1212250   4.188   6.672  11.145 -1.0608  0.1630 -0.0854
  117OSM   H12A12251   4.174   6.596  11.220  1.5534  0.1135  0.4509
  117OSM   H12B12252   4.259   6.629  11.075 -0.9660 -0.4896  0.4043
  117OSM    C1112253   4.057   6.698  11.072  0.8790 -0.8499 -0.0539
  117OSM   H11A12254   3.989   6.727  11.155  2.4049  1.1135  0.5872
  117OSM   H11B12255   4.029   6.603  11.022  0.0723 -1.9218  2.2886
  117OSM      P12256   3.963   6.919  10.956 -0.3679  0.1312 -0.3307
  117OSM    O1312257   3.840   6.878  11.024  0.2137  0.6510 -0.4711
  117OSM    O1412258   4.024   7.049  10.991 -0.0876 -0.3517  0.5322
  117OSM    O1112259   3.938   6.907  10.801 -0.3041  0.5843  0.5656
  117OSM    O1212260   4.076   6.811  10.987  0.0515  0.1601 -0.0176
  117OSM    C1S12261   4.036   6.930  10.697 -0.4116 -0.0456  0.4411
  117OSM    H1S12262   4.093   6.838  10.671  0.4785  0.8517 -0.9532
  117OSM    H1T12263   4.118   6.999  10.728 -2.2562  1.8579  1.2669
  117OSM     NF12264   4.087   7.024  10.466  0.0678  0.5792  0.1242
  117OSM    HNF12265   4.132   7.111  10.485  1.3695 -0.3644  1.6505
  117OSM    C2S12266   3.980   6.990  10.566 -0.7521 -0.1999 -0.7489
  117OSM    H2S12267   3.921   6.911  10.515  0.8102 -0.3482 -2.4418
  117OSM    C3S12268   3.886   7.111  10.596 -0.2773 -0.4998  0.8958
  117OSM    H3S12269   3.947   7.185  10.652 -0.6175 -0.1544  0.8112
  117OSM     O312270   3.790   7.088  10.700 -0.0879 -0.7153  0.1453
  117OSM    HO312271   3.830   7.022  10.757 -0.4310  0.2973  1.6099
  117OSM    C4S12272   3.816   7.159  10.474  0.4875  0.2403  0.0303
  117OSM    H4S12273   3.878   7.212  10.401 -0.0462  1.3863  0.4000
  117OSM    C5S12274   3.686   7.140  10.435 -0.5543  0.2538  0.4978
  117OSM    H5S12275   3.619   7.076  10.494  1.1030 -2.4162 -0.3020
  117OSM    C6S12276   3.627   7.193  10.301  0.4601 -0.0217  0.8502
  117OSM    H6S12277   3.588   7.297  10.303 -0.6959 -0.4431  1.7556
  117OSM    H6T12278   3.538   7.133  10.275  1.6173 -0.9863 -1.1105
  117OSM    C7S12279   3.724   7.172  10.179  0.6835  0.1872 -0.4660
  117OSM    H7S12280   3.727   7.061  10.168 -1.7695 -0.0218  0.4868
  117OSM    H7T12281   3.826   7.210  10.200  0.5706  1.3207 -1.8589
  117OSM    C8S12282   3.676   7.225  10.041 -0.2619  0.2363 -0.0370
  117OSM    H8S12283   3.685   7.336  10.034 -2.9883  0.5028 -0.5989
  117OSM    H8T12284   3.566   7.214  10.031 -0.1648  0.0593 -1.0142
  117OSM    C9S12285   3.731   7.163   9.910 -0.6040  0.4427 -0.0225
  117OSM    H9S12286   3.694   7.059   9.893 -1.0182  0.4225  0.8969
  117OSM    H9T12287   3.841   7.151   9.918 -0.5417  0.8608 -0.2174
  117OSM   C10S12288   3.713   7.250   9.785  0.1836  0.6451 -0.6904
  117OSM   H10S12289   3.795   7.324   9.780  1.1479 -0.3356  0.0564
  117OSM   H10T12290   3.617   7.306   9.779 -0.8074 -0.8793  0.1328
  117OSM   C11S12291   3.740   7.162   9.662  0.5108  0.4484 -0.5243
  117OSM   H11S12292   3.684   7.066   9.674  0.6762  0.3076 -0.8746
  117OSM   H11T12293   3.848   7.137   9.668  1.4784  3.6515 -2.4204
  117OSM   C12S12294   3.697   7.217   9.529 -0.5917 -0.3153  0.0910
  117OSM   H12S12295   3.732   7.323   9.521 -0.0725 -0.6106 -2.0464
  117OSM   H12T12296   3.586   7.216   9.527 -0.6590  0.1042  1.7850
  117OSM   C13S12297   3.753   7.130   9.411  0.3078 -0.5437  0.4641
  117OSM   H13S12298   3.696   7.034   9.410 -0.3671 -0.1400 -0.0401
  117OSM   H13T12299   3.860   7.115   9.439  0.5922  2.0429  0.9557
  117OSM   C14S12300   3.750   7.188   9.272  0.1922  0.0624 -0.1741
  117OSM   H14S12301   3.809   7.282   9.270  0.7806 -0.2809  0.6548
  117OSM   H14T12302   3.644   7.212   9.248 -0.2593  1.5989  2.9270
  117OSM   C15S12303   3.806   7.101   9.159  0.1292  0.0503  0.0872
  117OSM   H15S12304   3.729   7.033   9.116  1.3016 -2.2854  1.4663
  117OSM   H15T12305   3.892   7.036   9.185  0.0367 -1.0675 -2.1070
  117OSM   C16S12306   3.870   7.182   9.037  0.6396  0.7382 -1.1436
  117OSM   H16S12307   3.809   7.261   8.987 -0.6604  1.0113  0.7750
  117OSM   H16T12308   3.887   7.098   8.966 -0.8786 -1.3242  0.7759
  117OSM   C17S12309   4.002   7.240   9.071  0.0625 -0.0083 -0.0206
  117OSM   H17S12310   4.078   7.162   9.092  1.5233  1.4517  0.3588
  117OSM   H17T12311   3.994   7.289   9.170 -0.3511 -1.6606  0.7874
  117OSM   C18S12312   4.056   7.348   8.971  0.7154  0.3328 -0.4017
  117OSM   H18S12313   4.164   7.359   8.994  0.7110  1.4215 -0.8538
  117OSM   H18T12314   4.024   7.450   8.999 -0.4611 -0.0920 -0.1658
  117OSM   H18U12315   4.051   7.305   8.868 -0.6176 -1.7742  0.4637
  117OSM    C1F12316   4.142   6.937  10.388  0.5588 -0.2302 -0.1373
  117OSM     OF12317   4.122   6.817  10.400  0.7878 -0.2393 -0.0318
  117OSM    C2F12318   4.233   6.994  10.285  0.5639  0.0198  0.1295
  117OSM    H2F12319   4.337   6.956  10.299  1.0216  2.0444  3.1721
  117OSM    H2G12320   4.252   7.099  10.315  0.4200 -0.2363  1.1467
  117OSM    C3F12321   4.173   6.966  10.148  0.5075 -0.2669  0.3219
  117OSM    H3F12322   4.074   7.014  10.134  1.7750  1.7354 -2.8340
  117OSM    H3G12323   4.157   6.856  10.141  1.1431 -0.3100 -0.8001
  117OSM    C4F12324   4.256   7.021  10.034 -0.3823  0.0636 -0.1120
  117OSM    H4F12325   4.352   6.965  10.036 -0.6216 -0.3324  1.2449
  117OSM    H4G12326   4.278   7.130  10.038 -0.7354  0.1124  0.8672
  117OSM    C5F12327   4.177   7.008   9.901  0.1484  0.2217  0.5316
  117OSM    H5F12328   4.094   7.082   9.901 -0.1438 -0.1063  0.3462
  117OSM    H5G12329   4.138   6.904   9.899  1.2868 -0.2203  0.3856
  117OSM    C6F12330   4.276   7.023   9.779  0.6788 -0.4959 -0.0539
  117OSM    H6F12331   4.363   6.955   9.790  0.0205 -1.2308  0.7590
  117OSM    H6G12332   4.329   7.117   9.809  0.0827 -0.4147  0.8037
  117OSM    C7F12333   4.217   7.029   9.635  0.4689 -0.4869 -0.0553
  117OSM    H7F12334   4.120   7.083   9.641  1.0098  1.4800 -4.6092
  117OSM    H7G12335   4.182   6.925   9.614  2.8577 -2.2308  3.5566
  117OSM    C8F12336   4.305   7.097   9.533 -0.5009 -0.3335  0.4432
  117OSM    H8F12337   4.362   7.186   9.568  0.9988  1.0830 -4.7256
  117OSM    H8G12338   4.257   7.132   9.439  2.2427  2.0435 -0.2464
  117OSM    C9F12339   4.414   6.998   9.495 -0.2780 -0.9214  0.9725
  117OSM    H9F12340   4.481   6.963   9.575  0.9353 -0.6297  0.1174
  117OSM   C10F12341   4.446   6.955   9.369  0.2229  0.1916 -0.3764
  117OSM   H10F12342   4.531   6.885   9.363  0.3435  0.4198 -1.5686
  117OSM   C11F12343   4.385   6.983   9.236  0.4671 -0.6491 -0.0009
  117OSM   H11F12344   4.313   7.067   9.248 -0.3482 -1.5841  1.9265
  117OSM   H11G12345   4.331   6.893   9.200 -0.4575  0.2641 -0.9873
  117OSM   C12F12346   4.486   7.028   9.120 -0.3847  0.1105 -0.5646
  117OSM   H12F12347   4.550   6.942   9.089 -1.7876 -1.4382  0.6132
  117OSM   H12G12348   4.547   7.107   9.169 -1.5441 -0.3013  1.6959
  117OSM   C13F12349   4.407   7.086   9.003  0.2556  0.5257 -0.1958
  117OSM   H13F12350   4.347   7.168   9.048  0.1700  0.1417  0.3977
  117OSM   H13G12351   4.340   7.007   8.964 -0.9396  1.1400  0.5663
  117OSM   C14F12352   4.488   7.150   8.893  0.6631  0.0946 -0.4105
  117OSM   H14F12353   4.562   7.080   8.849  1.9779  0.2307  1.4985
  117OSM   H14G12354   4.552   7.222   8.947 -1.4956 -0.0029  2.5506
  117OSM   C15F12355   4.404   7.217   8.783 -0.8049 -0.2103 -0.2576
  117OSM   H15F12356   4.473   7.283   8.726  2.0939 -1.3840  1.6409
  117OSM   H15G12357   4.315   7.266   8.827  0.3628  0.0317  2.0009
  117OSM   C16F12358   4.343   7.125   8.677  0.3800  0.3064 -0.4739
  117OSM   H16F12359   4.274   7.052   8.723 -0.1255 -0.0945 -1.8314
  117OSM   H16G12360   4.419   7.066   8.620 -1.4314 -0.4484 -2.2169
  117OSM   C17F12361   4.264   7.206   8.577 -0.1790 -0.8741  0.6299
  117OSM   H17F12362   4.326   7.295   8.550 -0.2358 -1.5301 -1.9457
  117OSM   H17G12363   4.167   7.247   8.613  0.3821 -0.2895  1.5091
  117OSM   C18F12364   4.234   7.130   8.448 -0.0420 -0.1175  0.5766
  117OSM   H18F12365   4.202   7.207   8.374 -0.9975  1.3324  2.4097
  117OSM   H18G12366   4.150   7.060   8.470 -0.7490  0.7732  0.7848
  117OSM   H18H12367   4.326   7.075   8.419 -1.0517 -0.8311 -1.5100
  118OSM      N12368   5.046   1.580  11.231 -0.7358 -0.5069 -0.1528
  118OSM    C1512369   4.972   1.464  11.294 -0.5892 -0.9936 -0.1385
  118OSM   H15A12370   4.868   1.455  11.265 -1.5375  2.0278  1.8200
  118OSM   H15B12371   4.983   1.484  11.400  0.5260  2.9692 -0.8305
  118OSM   H15C12372   5.030   1.374  11.278 -0.8199 -1.2094  0.2288
  118OSM    C1412373   4.951   1.701  11.228  0.8074 -0.0876 -0.2890
  118OSM   H14A12374   4.994   1.789  11.183  1.0238  0.2020  0.4818
  118OSM   H14B12375   4.929   1.728  11.330 -0.2905 -1.3958 -0.1519
  118OSM   H14C12376   4.860   1.677  11.175  0.9024 -0.0220 -0.4814
  118OSM    C1312377   5.170   1.607  11.314  0.9794 -0.9341 -0.2611
  118OSM   H13A12378   5.245   1.530  11.304  0.1178 -1.6286 -1.6859
  118OSM   H13B12379   5.153   1.620  11.419  3.3776  1.2777 -0.0423
  118OSM   H13C12380   5.214   1.700  11.279 -1.0459  0.6025  1.0530
  118OSM    C1212381   5.076   1.545  11.095  0.7316  0.2632  0.7189
  118OSM   H12A12382   5.136   1.616  11.040 -1.1029  0.0780 -1.6941
  118OSM   H12B12383   4.980   1.546  11.046  1.1824  0.7087 -0.1952
  118OSM    C1112384   5.146   1.406  11.068  0.4196 -0.9415 -0.0897
  118OSM   H11A12385   5.149   1.390  10.958  1.8770  2.2642 -0.6426
  118OSM   H11B12386   5.076   1.329  11.107 -0.7550  1.2524  2.4486
  118OSM      P12387   5.395   1.359  11.052 -0.1763 -0.4963 -0.2998
  118OSM    O1312388   5.513   1.437  11.103  0.2811 -0.0743  0.1594
  118OSM    O1412389   5.412   1.218  11.043 -0.1655  0.1985  0.7191
  118OSM    O1112390   5.354   1.429  10.910 -0.1478 -0.4644 -0.2174
  118OSM    O1212391   5.269   1.398  11.142 -0.2562  0.1911  0.9675
  118OSM    C1S12392   5.400   1.373  10.786 -0.1717 -0.4363 -0.1831
  118OSM    H1S12393   5.344   1.282  10.755 -0.6428  0.3732 -1.7958
  118OSM    H1T12394   5.507   1.347  10.787  0.1310  0.6804  1.8352
  118OSM     NF12395   5.391   1.411  10.537 -0.5830  0.7280  0.2878
  118OSM    HNF12396   5.474   1.437  10.489  0.1688  0.9987  1.7112
  118OSM    C2S12397   5.375   1.470  10.664 -0.0944  0.2845  0.9125
  118OSM    H2S12398   5.272   1.510  10.671  0.8293  3.1459 -0.3506
  118OSM    C3S12399   5.466   1.595  10.680  0.0680 -0.6449 -0.6455
  118OSM    H3S12400   5.572   1.565  10.672 -0.1496 -1.6934  0.1737
  118OSM     O312401   5.465   1.660  10.811 -0.3755 -0.6230  0.4039
  118OSM    HO312402   5.415   1.601  10.867  0.9059 -1.4377  0.7447
  118OSM    C4S12403   5.433   1.704  10.583 -0.1695 -0.0346  0.1182
  118OSM    H4S12404   5.338   1.757  10.602 -0.0772  0.1850 -0.0374
  118OSM    C5S12405   5.503   1.722  10.466 -0.3743 -0.0173 -0.1050
  118OSM    H5S12406   5.592   1.659  10.450 -1.2136 -1.7652  1.5638
  118OSM    C6S12407   5.478   1.822  10.367 -0.5938 -1.0486 -0.2256
  118OSM    H6S12408   5.520   1.784  10.272  0.1905 -0.2421 -0.2093
  118OSM    H6T12409   5.527   1.920  10.384  2.4878 -2.4397 -0.3988
  118OSM    C7S12410   5.327   1.849  10.340  0.1309  0.4849  1.1159
  118OSM    H7S12411   5.332   1.935  10.270 -0.9412 -0.1176  0.2703
  118OSM    H7T12412   5.282   1.886  10.434 -1.1865  1.5194  0.1100
  118OSM    C8S12413   5.243   1.734  10.278 -0.1929  0.6798  0.1686
  118OSM    H8S12414   5.135   1.748  10.304 -0.4602  0.8925 -1.0255
  118OSM    H8T12415   5.266   1.638  10.330  0.9712 -0.2274 -1.9285
  118OSM    C9S12416   5.270   1.704  10.128  0.1046 -0.2550 -0.2509
  118OSM    H9S12417   5.239   1.610  10.078 -2.6535  2.3089 -3.9151
  118OSM    H9T12418   5.380   1.703  10.114  0.0570 -0.6301 -0.5866
  118OSM   C10S12419   5.214   1.820  10.048 -0.2023 -0.4198 -0.2150
  118OSM   H10S12420   5.254   1.920  10.076  1.1640 -1.2418  0.9030
  118OSM   H10T12421   5.106   1.816  10.072  0.0047 -2.0223  0.5110
  118OSM   C11S12422   5.217   1.798   9.895  0.1509 -0.4068 -0.4596
  118OSM   H11S12423   5.180   1.694   9.883  1.2366 -0.9103  0.3772
  118OSM   H11T12424   5.321   1.810   9.857  0.5677  1.2501  1.0758
  118OSM   C12S12425   5.126   1.902   9.830  1.0371  0.2147  0.0215
  118OSM   H12S12426   5.169   2.003   9.844 -0.5139  1.0981 -1.3010
  118OSM   H12T12427   5.028   1.909   9.881  1.5789  0.3620  1.0742
  118OSM   C13S12428   5.106   1.884   9.679  0.0329  1.3717 -0.0322
  118OSM   H13S12429   5.029   1.956   9.644 -4.1676 -2.0846  1.2282
  118OSM   H13T12430   5.061   1.782   9.676  1.4346  0.6971  0.6590
  118OSM   C14S12431   5.231   1.901   9.594 -0.2877  0.2924 -0.1433
  118OSM   H14S12432   5.290   1.807   9.606 -4.8521 -3.0208 -0.6384
  118OSM   H14T12433   5.288   1.991   9.623  0.0826  0.3335 -0.9792
  118OSM   C15S12434   5.200   1.905   9.447  0.9103 -0.6066  0.8359
  118OSM   H15S12435   5.125   1.985   9.431  0.8211 -1.0570 -1.2486
  118OSM   H15T12436   5.160   1.808   9.411  0.6701  0.0617 -0.7854
  118OSM   C16S12437   5.323   1.949   9.366  0.3280  0.5176  0.2434
  118OSM   H16S12438   5.409   1.883   9.390  1.6791  1.4368 -1.7630
  118OSM   H16T12439   5.345   2.055   9.391 -0.1852  0.0862  2.7547
  118OSM   C17S12440   5.300   1.914   9.215 -0.2068  0.2004 -0.1123
  118OSM   H17S12441   5.220   1.977   9.170  0.4987  0.8670 -0.4531
  118OSM   H17T12442   5.258   1.812   9.206 -1.0200  0.4016  1.1100
  118OSM   C18S12443   5.431   1.922   9.136  0.0849  0.4410  0.0771
  118OSM   H18S12444   5.499   1.845   9.176  0.0025 -1.3487 -2.9459
  118OSM   H18T12445   5.492   2.015   9.139 -1.3645  1.4942 -1.3537
  118OSM   H18U12446   5.415   1.904   9.028  1.0015  1.9006 -0.3350
  118OSM    C1F12447   5.295   1.327  10.480  0.1682  0.1179 -0.2605
  118OSM     OF12448   5.199   1.289  10.549  0.6970  0.4927 -0.2349
  118OSM    C2F12449   5.303   1.302  10.332  1.4905  0.9503  0.0001
  118OSM    H2F12450   5.407   1.287  10.298  1.3951  0.6336 -0.1564
  118OSM    H2G12451   5.275   1.395  10.279 -0.4470  0.9489  0.9190
  118OSM    C3F12452   5.220   1.178  10.279 -0.4441 -0.7555 -0.6105
  118OSM    H3F12453   5.122   1.173  10.332 -1.0924  0.8089 -1.5582
  118OSM    H3G12454   5.274   1.086  10.308 -1.5861 -1.2598 -0.0055
  118OSM    C4F12455   5.214   1.171  10.127 -0.0169 -0.1151  1.3420
  118OSM    H4F12456   5.149   1.087  10.096 -0.8968  1.1291 -0.3708
  118OSM    H4G12457   5.314   1.144  10.088 -0.5021  0.8493 -0.7044
  118OSM    C5F12458   5.146   1.293  10.058 -0.4959  0.1054 -0.1975
  118OSM    H5F12459   5.213   1.380  10.071 -1.3091  0.5759  1.0279
  118OSM    H5G12460   5.057   1.313  10.122 -0.6766 -3.0670  0.7403
  118OSM    C6F12461   5.114   1.268   9.908  0.0111  0.7618  0.1144
  118OSM    H6F12462   5.030   1.196   9.895  1.2508 -0.7594  0.1551
  118OSM    H6G12463   5.198   1.216   9.856 -0.3808  0.8100 -0.5752
  118OSM    C7F12464   5.069   1.387   9.828 -0.4090 -0.1108 -0.0467
  118OSM    H7F12465   5.148   1.464   9.842  0.4123 -1.0661  0.6524
  118OSM    H7G12466   4.976   1.431   9.871 -2.2343 -2.4821 -1.3187
  118OSM    C8F12467   5.044   1.354   9.679 -0.0951  0.0306  0.2394
  118OSM    H8F12468   4.969   1.272   9.685  0.3346 -0.3171  0.9947
  118OSM    H8G12469   5.137   1.306   9.643 -0.6855 -2.3223  1.6292
  118OSM    C9F12470   4.999   1.477   9.601  0.4578  0.1873 -0.0498
  118OSM    H9F12471   4.919   1.540   9.643 -0.4279 -1.0425  0.1617
  118OSM   C10F12472   5.043   1.507   9.479 -0.5098 -0.5299 -0.2098
  118OSM   H10F12473   5.019   1.606   9.437  2.0767  0.7723  1.1243
  118OSM   C11F12474   5.151   1.447   9.392  0.1206  0.2869 -0.3632
  118OSM   H11F12475   5.093   1.357   9.361  2.2307 -1.9614  1.6900
  118OSM   H11G12476   5.234   1.415   9.459 -1.1234 -0.8927  0.6861
  118OSM   C12F12477   5.201   1.519   9.263  0.0608 -0.4234 -0.8580
  118OSM   H12F12478   5.264   1.608   9.284  0.4629 -0.8731 -0.0861
  118OSM   H12G12479   5.107   1.555   9.217  1.0096  0.8644 -1.8678
  118OSM   C13F12480   5.274   1.423   9.169  0.6659 -0.3922  0.2128
  118OSM   H13F12481   5.238   1.318   9.183 -0.9941 -0.1231 -1.6110
  118OSM   H13G12482   5.383   1.430   9.189  0.6673 -2.4773  1.2756
  118OSM   C14F12483   5.249   1.444   9.021  0.6064  0.7571  0.1972
  118OSM   H14F12484   5.144   1.436   8.985 -0.2535  1.7002  2.3117
  118OSM   H14G12485   5.302   1.360   8.971 -0.0914  2.1775 -3.2139
  118OSM   C15F12486   5.301   1.574   8.956  0.0207 -0.0668  0.1251
  118OSM   H15F12487   5.399   1.602   9.000  0.5301  0.5667 -1.3515
  118OSM   H15G12488   5.237   1.657   8.991  1.6325  1.1353  0.3588
  118OSM   C16F12489   5.293   1.575   8.800 -0.1803 -0.1992  0.5327
  118OSM   H16F12490   5.189   1.546   8.773 -0.2620  0.9242 -0.4080
  118OSM   H16G12491   5.358   1.488   8.775  0.9689  1.3945 -2.5108
  118OSM   C17F12492   5.332   1.700   8.744  0.2765 -0.8972  0.8363
  118OSM   H17F12493   5.435   1.719   8.782 -0.6566  2.3446  2.0619
  118OSM   H17G12494   5.268   1.787   8.770  2.4242  1.1925 -0.4921
  118OSM   C18F12495   5.330   1.698   8.591  0.2325  0.7511  0.0281
  118OSM   H18F12496   5.401   1.620   8.558 -0.4103 -0.4578  1.3879
  118OSM   H18G12497   5.355   1.793   8.540 -0.1209 -0.3205 -2.2483
  118OSM   H18H12498   5.227   1.682   8.553  0.9724 -0.7983 -1.4609
  119OSM      N12499   4.818   6.558  10.940  0.0192  0.4760  0.0247
  119OSM    C1512500   4.935   6.477  10.994 -0.1001  0.0158 -0.6756
  119OSM   H15A12501   4.923   6.465  11.100  2.4385 -0.3124 -0.3690
  119OSM   H15B12502   5.021   6.541  10.983  0.0194 -0.4825 -3.5610
  119OSM   H15C12503   4.962   6.388  10.939  2.0097  0.8789 -1.1400
  119OSM    C1412504   4.702   6.467  10.906 -0.3273  0.0026 -0.0200
  119OSM   H14A12505   4.669   6.413  10.993 -0.7305  1.0206  0.4754
  119OSM   H14B12506   4.740   6.400  10.830  1.3858  0.0283  0.7686
  119OSM   H14C12507   4.622   6.528  10.866  0.1946  1.3007  0.8403
  119OSM    C1312508   4.765   6.661  11.039  0.4003  0.2566  0.1014
  119OSM   H13A12509   4.713   6.616  11.123 -1.4829  1.4256 -0.3603
  119OSM   H13B12510   4.694   6.723  10.986  1.2388  1.2430  0.1036
  119OSM   H13C12511   4.838   6.726  11.082 -1.9506  1.3923  2.6606
  119OSM    C1212512   4.883   6.626  10.818 -0.3757  0.9177 -0.2720
  119OSM   H12A12513   4.802   6.684  10.777  0.2299  1.7771 -0.2850
  119OSM   H12B12514   4.920   6.551  10.750 -0.5349 -0.4929  1.1468
  119OSM    C1112515   5.001   6.731  10.830  0.0322  0.3927  0.1292
  119OSM   H11A12516   4.959   6.807  10.899 -1.3025 -2.6075  2.8656
  119OSM   H11B12517   5.018   6.771  10.728  1.4213 -0.6103 -0.0649
  119OSM      P12518   5.243   6.768  10.908  0.2741  0.4920  0.0105
  119OSM    O1312519   5.201   6.870  11.008 -0.3580  0.1395 -0.5207
  119OSM    O1412520   5.364   6.683  10.932 -0.1070  0.1718  0.3324
  119OSM    O1112521   5.276   6.849  10.769 -0.0064 -0.1915  0.2976
  119OSM    O1212522   5.124   6.666  10.869  0.2667  0.4033  0.2152
  119OSM    C1S12523   5.296   6.771  10.649 -0.3267  0.1209 -0.5695
  119OSM    H1S12524   5.198   6.721  10.631 -1.0185  1.8207 -1.7972
  119OSM    H1T12525   5.388   6.710  10.662 -0.0054  1.0450  2.1574
  119OSM     NF12526   5.338   6.781  10.403 -0.3230  0.3302  0.3867
  119OSM    HNF12527   5.430   6.780  10.363  0.7209 -0.2216  2.6293
  119OSM    C2S12528   5.301   6.865  10.518 -0.4032 -0.5511  0.1582
  119OSM    H2S12529   5.195   6.891  10.499 -0.2002 -1.9511 -3.9265
  119OSM    C3S12530   5.390   6.987  10.527  0.5814 -0.9868  0.5104
  119OSM    H3S12531   5.493   6.953  10.502  0.8900  0.1473  0.1817
  119OSM     O312532   5.389   7.054  10.653  0.3053  0.4036 -0.1827
  119OSM    HO312533   5.339   6.997  10.712  1.2550 -0.8418 -0.5370
  119OSM    C4S12534   5.346   7.082  10.421  0.8621  0.4789  0.6950
  119OSM    H4S12535   5.245   7.120  10.441 -0.0147  0.4427 -2.9869
  119OSM    C5S12536   5.415   7.122  10.315  0.1679 -0.7317 -0.0511
  119OSM    H5S12537   5.513   7.077  10.295 -0.6044 -2.3388 -0.4052
  119OSM    C6S12538   5.380   7.235  10.215  0.0345  0.2195  0.4838
  119OSM    H6S12539   5.434   7.223  10.119 -1.8147  0.5668 -0.6573
  119OSM    H6T12540   5.416   7.336  10.244 -0.5645  0.5346  0.1702
  119OSM    C7S12541   5.223   7.228  10.177  0.5492 -0.3168 -0.4301
  119OSM    H7S12542   5.202   7.312  10.108  0.5165  1.2289  1.3995
  119OSM    H7T12543   5.164   7.246  10.269  1.3217  2.8227 -0.4538
  119OSM    C8S12544   5.180   7.095  10.106 -0.7022 -0.7698 -0.2366
  119OSM    H8S12545   5.185   7.007  10.174  1.7267 -1.0655 -0.6804
  119OSM    H8T12546   5.250   7.073  10.022 -0.2272  1.7661 -0.5761
  119OSM    C9S12547   5.048   7.098  10.028  0.4379  0.5650 -0.1071
  119OSM    H9S12548   4.958   7.134  10.083 -0.4892 -1.4797 -0.1819
  119OSM    H9T12549   5.016   6.994  10.005 -1.7843  1.1584  0.0213
  119OSM   C10S12550   5.041   7.164   9.892 -0.0415 -0.0921 -0.5676
  119OSM   H10S12551   5.084   7.266   9.902  0.0639 -0.2026  0.1719
  119OSM   H10T12552   4.938   7.182   9.855  0.3133  2.3020 -0.5334
  119OSM   C11S12553   5.107   7.080   9.784 -0.2718  0.0122  0.3812
  119OSM   H11S12554   5.074   6.974   9.780 -1.9757  0.5419 -2.1266
  119OSM   H11T12555   5.215   7.097   9.800 -0.5743  0.9782  1.6182
  119OSM   C12S12556   5.065   7.127   9.638 -0.4544 -0.3700  0.1019
  119OSM   H12S12557   4.955   7.139   9.623 -0.1047  1.4969 -1.2629
  119OSM   H12T12558   5.105   7.038   9.585  1.5857 -0.8239  2.2373
  119OSM   C13S12559   5.154   7.244   9.590  0.5415 -0.3263 -0.2348
  119OSM   H13S12560   5.261   7.215   9.604  0.4860 -2.9158 -3.8133
  119OSM   H13T12561   5.134   7.331   9.656 -1.2656 -0.3578 -0.6878
  119OSM   C14S12562   5.134   7.278   9.442  0.0832 -0.2799 -0.6225
  119OSM   H14S12563   5.034   7.326   9.438  0.6254  0.8302 -1.7613
  119OSM   H14T12564   5.128   7.183   9.385  1.2718 -1.3519  0.9581
  119OSM   C15S12565   5.232   7.384   9.382  0.5925 -0.2071 -0.5905
  119OSM   H15S12566   5.332   7.337   9.388 -0.5990 -2.8484  0.3679
  119OSM   H15T12567   5.223   7.467   9.455 -2.5673 -2.1905  1.5558
  119OSM   C16S12568   5.198   7.418   9.236 -0.5552 -0.8624 -0.2906
  119OSM   H16S12569   5.264   7.505   9.214  0.3792 -0.9746  1.8537
  119OSM   H16T12570   5.091   7.445   9.232 -0.7473 -1.7001 -1.6328
  119OSM   C17S12571   5.240   7.312   9.134 -0.2720  0.3211 -0.6032
  119OSM   H17S12572   5.163   7.233   9.133 -0.0917  0.0753  1.1540
  119OSM   H17T12573   5.334   7.266   9.171 -0.4322 -0.9644 -1.7301
  119OSM   C18S12574   5.248   7.359   8.985 -0.5509 -0.1134 -0.3031
  119OSM   H18S12575   5.331   7.433   8.977 -0.9008  0.4550  1.0957
  119OSM   H18T12576   5.148   7.404   8.966 -1.0821 -1.3838 -0.5802
  119OSM   H18U12577   5.266   7.269   8.923  1.8624  0.7474 -0.9723
  119OSM    C1F12578   5.246   6.691  10.357  0.0035  0.1263 -0.0973
  119OSM     OF12579   5.146   6.661  10.421  0.6024 -0.0091 -0.1975
  119OSM    C2F12580   5.266   6.622  10.224  0.5999 -0.4701  0.3505
  119OSM    H2F12581   5.190   6.543  10.209  0.8193 -0.3550 -1.7599
  119OSM    H2G12582   5.370   6.584  10.218  0.5888 -0.5686  0.8113
  119OSM    C3F12583   5.257   6.731  10.112  0.4610 -0.2017 -0.9443
  119OSM    H3F12584   5.320   6.820  10.131  1.0172 -0.8754  0.5754
  119OSM    H3G12585   5.147   6.746  10.101 -0.3002 -3.2778  0.9924
  119OSM    C4F12586   5.288   6.665   9.978 -0.6197  0.1829 -0.0228
  119OSM    H4F12587   5.223   6.577   9.960 -0.5294  0.4241 -1.7055
  119OSM    H4G12588   5.396   6.644   9.958 -0.8461  0.0637 -1.2407
  119OSM    C5F12589   5.237   6.742   9.846 -0.1187  0.4861 -0.7409
  119OSM    H5F12590   5.293   6.837   9.835  1.2747 -0.2366 -0.2288
  119OSM    H5G12591   5.129   6.759   9.866 -0.0601 -0.4588  0.4980
  119OSM    C6F12592   5.256   6.660   9.721 -0.1992 -0.5756 -0.7754
  119OSM    H6F12593   5.195   6.568   9.724 -0.5731 -0.3185  1.7253
  119OSM    H6G12594   5.363   6.632   9.715 -0.7549 -2.9417 -0.3199
  119OSM    C7F12595   5.229   6.737   9.592 -0.7040 -0.0713  0.5910
  119OSM    H7F12596   5.265   6.842   9.596 -0.3588 -0.1531 -0.1196
  119OSM    H7G12597   5.120   6.756   9.582 -0.3132  1.9526 -0.5140
  119OSM    C8F12598   5.287   6.663   9.472 -0.0070  0.2047 -0.2923
  119OSM    H8F12599   5.255   6.556   9.472  0.4973  0.0519 -0.2310
  119OSM    H8G12600   5.398   6.656   9.478  0.2407  2.6319 -1.0017
  119OSM    C9F12601   5.244   6.745   9.358 -0.5025  0.1130  1.0274
  119OSM    H9F12602   5.136   6.766   9.353 -0.1447  2.2193  0.9229
  119OSM   C10F12603   5.326   6.789   9.266 -0.4084 -0.7142  0.2718
  119OSM   H10F12604   5.292   6.852   9.182  1.4054  0.5143  0.3912
  119OSM   C11F12605   5.476   6.770   9.254 -0.4087  0.9393 -0.2494
  119OSM   H11F12606   5.498   6.691   9.178 -1.1487 -0.1896  0.6684
  119OSM   H11G12607   5.511   6.731   9.352  0.5786 -1.6530 -1.5265
  119OSM   C12F12608   5.557   6.888   9.219 -0.1429 -0.2877 -0.4922
  119OSM   H12F12609   5.548   6.906   9.110  0.0164 -0.3918 -0.5244
  119OSM   H12G12610   5.660   6.858   9.249  0.7392  2.7334 -0.2129
  119OSM   C13F12611   5.528   7.021   9.296  0.6554 -0.2259 -0.2467
  119OSM   H13F12612   5.423   7.053   9.281  0.5099 -0.6216 -0.0760
  119OSM   H13G12613   5.593   7.102   9.255 -0.0940 -0.1618 -1.3459
  119OSM   C14F12614   5.547   7.003   9.447 -0.6496 -0.6148  0.4354
  119OSM   H14F12615   5.631   6.933   9.467  0.8313  1.0101  0.1537
  119OSM   H14G12616   5.453   6.953   9.479 -0.8391 -1.1096 -0.8370
  119OSM   C15F12617   5.582   7.138   9.519  0.1309  0.8815 -0.6263
  119OSM   H15F12618   5.496   7.209   9.518 -2.0763 -1.6072 -2.0297
  119OSM   H15G12619   5.666   7.194   9.474  0.4007  0.1101 -1.1108
  119OSM   C16F12620   5.626   7.119   9.659  0.1317  0.0672 -0.6961
  119OSM   H16F12621   5.665   7.216   9.697  1.3070 -0.9372  0.8340
  119OSM   H16G12622   5.703   7.040   9.673 -1.3292 -1.0256  1.9306
  119OSM   C17F12623   5.510   7.062   9.744  0.0431  0.2963  0.2137
  119OSM   H17F12624   5.504   6.953   9.720 -0.3489  0.3094  0.2380
  119OSM   H17G12625   5.416   7.113   9.713  0.2517  0.3914 -0.2690
  119OSM   C18F12626   5.538   7.068   9.896  0.2285 -0.3132  0.5040
  119OSM   H18F12627   5.464   7.012   9.957 -1.3550 -0.5452 -1.5160
  119OSM   H18G12628   5.554   7.169   9.940 -0.4824 -0.4887  1.2009
  119OSM   H18H12629   5.637   7.027   9.924  0.5597  0.7385  0.9327
  120OSM      N12630   5.725   3.194  10.815  0.0176  0.1008 -0.3539
  120OSM    C1512631   5.788   3.170  10.948  0.8717 -0.1156 -0.1026
  120OSM   H15A12632   5.759   3.072  10.984  0.3254 -0.2492 -0.8704
  120OSM   H15B12633   5.758   3.238  11.026  0.5025  1.1909 -1.3363
  120OSM   H15C12634   5.895   3.182  10.948  0.9584 -0.7715  0.8243
  120OSM    C1412635   5.717   3.065  10.749  0.2768  0.1653  0.1430
  120OSM   H14A12636   5.675   2.987  10.811 -0.6743 -0.8551 -1.6911
  120OSM   H14B12637   5.818   3.031  10.729  0.0879 -1.1798  1.3617
  120OSM   H14C12638   5.666   3.066  10.654  1.0946 -1.2619 -0.3480
  120OSM    C1312639   5.591   3.255  10.841 -0.8770  0.1077  0.3054
  120OSM   H13A12640   5.535   3.247  10.748  0.1276  2.8287 -0.6302
  120OSM   H13B12641   5.598   3.361  10.862 -1.8633  0.1210  0.6570
  120OSM   H13C12642   5.544   3.202  10.923  0.4016 -2.6302 -0.6163
  120OSM    C1212643   5.812   3.288  10.734 -0.4698  0.1291 -0.5442
  120OSM   H12A12644   5.760   3.316  10.645 -2.7676  0.3344  0.7987
  120OSM   H12B12645   5.896   3.231  10.696 -0.0521  0.9709 -0.8930
  120OSM    C1112646   5.873   3.417  10.790  0.8308 -0.7291 -0.6872
  120OSM   H11A12647   5.933   3.468  10.711 -0.8256  1.7056 -0.4967
  120OSM   H11B12648   5.946   3.416  10.874 -0.6805  0.1254  0.6831
  120OSM      P12649   5.678   3.578  10.732 -0.1216  0.2183  0.1387
  120OSM    O1312650   5.534   3.555  10.769 -0.0856  0.2832  0.1159
  120OSM    O1412651   5.721   3.719  10.719  0.0957 -0.1073 -0.5862
  120OSM    O1112652   5.712   3.493  10.604 -0.1560  0.1715 -0.0320
  120OSM    O1212653   5.768   3.504  10.834 -0.1024 -0.5064 -0.8939
  120OSM    C1S12654   5.701   3.562  10.474 -0.1811  0.2905 -0.2287
  120OSM    H1S12655   5.807   3.584  10.449 -0.4377 -0.7668 -2.4466
  120OSM    H1T12656   5.629   3.645  10.470  0.8438  1.1598 -1.7617
  120OSM     NF12657   5.632   3.569  10.244 -0.2192  0.1233  0.3954
  120OSM    HNF12658   5.537   3.597  10.234 -0.3537 -0.0079  1.2386
  120OSM    C2S12659   5.661   3.474  10.360 -0.5173  0.1647 -0.1332
  120OSM    H2S12660   5.739   3.401  10.331 -0.7374  0.2528 -0.9706
  120OSM    C3S12661   5.537   3.391  10.402 -0.5671 -0.1946 -0.4710
  120OSM    H3S12662   5.456   3.464  10.426  1.1513  1.9528 -0.9491
  120OSM     O312663   5.554   3.306  10.512  0.0656 -0.0512  0.2615
  120OSM    HO312664   5.624   3.354  10.557 -0.5384  1.4342 -0.3215
  120OSM    C4S12665   5.509   3.306  10.284 -0.4881 -0.2502  0.0726
  120OSM    H4S12666   5.561   3.210  10.278 -0.4128 -0.4454  2.6954
  120OSM    C5S12667   5.431   3.337  10.180 -0.5837 -0.5973 -0.4193
  120OSM    H5S12668   5.379   3.433  10.196  2.8454  1.3805 -0.0188
  120OSM    C6S12669   5.394   3.254  10.055  0.6647 -0.3980 -0.6158
  120OSM    H6S12670   5.285   3.233  10.061  0.3891  0.8989 -0.8018
  120OSM    H6T12671   5.452   3.160  10.056  0.0716 -0.8274  2.0904
  120OSM    C7S12672   5.440   3.321   9.922  0.5317 -0.4893 -0.4680
  120OSM    H7S12673   5.550   3.335   9.921  0.4294  0.3812 -0.6119
  120OSM    H7T12674   5.390   3.420   9.915 -0.8633 -1.2094 -1.1099
  120OSM    C8S12675   5.400   3.237   9.796  0.2312 -0.1138 -1.6361
  120OSM    H8S12676   5.290   3.220   9.798  0.4417 -1.6170  0.3704
  120OSM    H8T12677   5.449   3.137   9.797 -0.2961 -0.3822  0.1342
  120OSM    C9S12678   5.412   3.319   9.665  0.5855 -0.2842 -0.1243
  120OSM    H9S12679   5.519   3.348   9.667  0.7268 -0.6493 -1.4920
  120OSM    H9T12680   5.350   3.411   9.669 -0.2670 -0.7822 -1.2524
  120OSM   C10S12681   5.374   3.251   9.528  0.0124  0.1760  0.0829
  120OSM   H10S12682   5.263   3.243   9.526 -0.2457  2.6066  0.8348
  120OSM   H10T12683   5.410   3.146   9.520  0.3741  0.2449  0.7294
  120OSM   C11S12684   5.437   3.326   9.404  0.2258  0.7586 -0.0887
  120OSM   H11S12685   5.542   3.299   9.383  0.1309  0.7246 -0.5352
  120OSM   H11T12686   5.434   3.433   9.433  0.5849  1.1712 -1.5203
  120OSM   C12S12687   5.349   3.304   9.273 -0.3375  0.2131  0.6376
  120OSM   H12S12688   5.252   3.346   9.307 -1.1447 -2.0574  1.3768
  120OSM   H12T12689   5.332   3.200   9.238 -4.8478  1.1195 -0.4688
  120OSM   C13S12690   5.401   3.394   9.155  0.3169 -0.2993  0.2740
  120OSM   H13S12691   5.492   3.344   9.115 -0.0244  0.5547 -1.6498
  120OSM   H13T12692   5.444   3.492   9.184 -0.2752  0.3995 -1.1487
  120OSM   C14S12693   5.294   3.419   9.046 -0.0178  0.3998  0.8695
  120OSM   H14S12694   5.199   3.439   9.099 -0.3006 -1.2651  1.0291
  120OSM   H14T12695   5.290   3.321   8.994 -0.6903  1.1712 -0.5819
  120OSM   C15S12696   5.322   3.531   8.943  0.8857  0.5245 -0.0001
  120OSM   H15S12697   5.425   3.521   8.903  0.5920 -0.2969 -0.5668
  120OSM   H15T12698   5.326   3.623   9.006  0.3609 -0.0371  0.8701
  120OSM   C16S12699   5.228   3.545   8.822  0.8279 -0.0301  0.0322
  120OSM   H16S12700   5.119   3.540   8.844 -0.0772  0.2649 -3.6744
  120OSM   H16T12701   5.247   3.460   8.753 -1.1893 -1.3254  0.9538
  120OSM   C17S12702   5.256   3.669   8.748  0.4325 -0.2624 -1.0530
  120OSM   H17S12703   5.365   3.686   8.752  0.1987  1.2905 -0.6322
  120OSM   H17T12704   5.197   3.745   8.804 -0.9765 -1.2557 -1.1294
  120OSM   C18S12705   5.212   3.682   8.600  0.0886  0.1761 -0.4608
  120OSM   H18S12706   5.229   3.789   8.575  3.0892  0.0753  0.6415
  120OSM   H18T12707   5.107   3.649   8.589  0.6390 -1.7655 -0.2493
  120OSM   H18U12708   5.275   3.622   8.531  0.5498 -1.2113  1.1159
  120OSM    C1F12709   5.737   3.620  10.175  0.8313 -0.1921 -0.5185
  120OSM     OF12710   5.851   3.581  10.205  0.0822 -0.1389 -0.1413
  120OSM    C2F12711   5.706   3.715  10.060 -0.3401 -0.5844 -0.4399
  120OSM    H2F12712   5.672   3.813  10.102  1.9292  0.3932 -0.7436
  120OSM    H2G12713   5.620   3.666  10.010 -1.4655 -0.9402  1.7126
  120OSM    C3F12714   5.826   3.738   9.968 -0.2976 -0.3138  0.8326
  120OSM    H3F12715   5.916   3.779  10.019  2.0554  0.8386 -3.6462
  120OSM    H3G12716   5.794   3.814   9.894  2.5195 -2.1182 -2.6051
  120OSM    C4F12717   5.862   3.610   9.881 -0.2793  0.0182 -0.0922
  120OSM    H4F12718   5.887   3.520   9.941 -3.2581 -0.1450  1.1035
  120OSM    H4G12719   5.953   3.648   9.831 -0.0662 -0.5537 -0.1451
  120OSM    C5F12720   5.752   3.563   9.778 -0.3489 -0.7479  0.2762
  120OSM    H5F12721   5.655   3.536   9.825 -0.4260  1.0386  1.2322
  120OSM    H5G12722   5.790   3.469   9.733 -0.1185 -0.0285 -1.0636
  120OSM    C6F12723   5.746   3.659   9.667 -0.0054 -0.2858 -0.3150
  120OSM    H6F12724   5.841   3.708   9.638 -0.5860  1.4937  0.6626
  120OSM    H6G12725   5.690   3.751   9.696  1.6362  0.8862 -0.7190
  120OSM    C7F12726   5.663   3.605   9.538 -0.3318 -0.6904  0.3223
  120OSM    H7F12727   5.648   3.689   9.467  1.2103 -1.6705 -1.2298
  120OSM    H7G12728   5.561   3.570   9.563 -1.4830  0.6339 -2.1362
  120OSM    C8F12729   5.740   3.493   9.469  0.1824  0.2743  0.1334
  120OSM    H8F12730   5.687   3.476   9.373 -1.0776  0.7607  0.7101
  120OSM    H8G12731   5.751   3.394   9.518 -0.1599  1.1394  2.0752
  120OSM    C9F12732   5.875   3.545   9.427 -0.6808  0.8950 -0.3577
  120OSM    H9F12733   5.961   3.546   9.495  1.4747 -1.5076 -2.8130
  120OSM   C10F12734   5.904   3.597   9.301  0.7111  0.3841 -0.4233
  120OSM   H10F12735   6.002   3.640   9.278  0.8019  0.3049 -0.1854
  120OSM   C11F12736   5.820   3.626   9.180  0.6231 -0.0967  0.1732
  120OSM   H11F12737   5.836   3.733   9.152 -0.7124  0.2589  0.6688
  120OSM   H11G12738   5.712   3.614   9.202  0.0334 -0.1809 -2.4534
  120OSM   C12F12739   5.851   3.536   9.060 -0.1990  0.3264  0.0774
  120OSM   H12F12740   5.846   3.427   9.082 -0.7163 -0.1327 -2.0514
  120OSM   H12G12741   5.954   3.562   9.030 -0.4830  0.0781 -1.1680
  120OSM   C13F12742   5.753   3.562   8.945  1.2063  0.3600  0.5030
  120OSM   H13F12743   5.649   3.527   8.963  0.6892  0.4914 -1.9236
  120OSM   H13G12744   5.780   3.493   8.863  0.1389  0.0717  0.3762
  120OSM   C14F12745   5.741   3.707   8.889 -0.0970  0.0805  0.4561
  120OSM   H14F12746   5.713   3.776   8.972 -1.4294  0.8888 -0.6124
  120OSM   H14G12747   5.653   3.695   8.822  1.4177 -3.2921 -1.1770
  120OSM   C15F12748   5.866   3.751   8.815 -0.0773  0.4638  0.2918
  120OSM   H15F12749   5.883   3.687   8.726  0.2547  0.2733  0.4916
  120OSM   H15G12750   5.954   3.743   8.883  0.7939  0.4464 -0.8070
  120OSM   C16F12751   5.866   3.899   8.773 -0.6033 -0.3643  0.1253
  120OSM   H16F12752   5.834   3.981   8.841 -0.4987 -1.0007  0.9466
  120OSM   H16G12753   5.789   3.913   8.693  0.8206  3.4688 -0.8105
  120OSM   C17F12754   6.008   3.944   8.738  0.1431 -0.5231 -1.2422
  120OSM   H17F12755   6.072   3.931   8.828 -3.4760 -0.4673  1.5349
  120OSM   H17G12756   5.997   4.048   8.701 -0.7570 -0.5669 -1.0992
  120OSM   C18F12757   6.077   3.861   8.626  0.2361 -0.0868  0.6229
  120OSM   H18F12758   6.175   3.906   8.601  0.9629 -1.0765  1.5783
  120OSM   H18G12759   6.011   3.865   8.537 -1.2730 -1.1867  1.6476
  120OSM   H18H12760   6.083   3.753   8.654 -1.6635 -0.2929  0.3196
  121OSM      N12761   3.522   1.450  11.068 -0.0294  0.3079  0.0448
  121OSM    C1512762   3.409   1.457  11.167 -0.1211 -0.4558 -0.2148
  121OSM   H15A12763   3.319   1.402  11.141 -1.0218  1.0763 -0.4908
  121OSM   H15B12764   3.376   1.559  11.173 -0.0289 -0.4895  0.9912
  121OSM   H15C12765   3.438   1.424  11.265 -2.1813  0.4860  0.7701
  121OSM    C1412766   3.482   1.525  10.942 -0.1709  0.6830  0.0827
  121OSM   H14A12767   3.553   1.529  10.861  0.6261 -0.4083  0.7024
  121OSM   H14B12768   3.458   1.628  10.964 -1.5477 -0.0323  2.2597
  121OSM   H14C12769   3.392   1.486  10.895 -0.3303  0.4577  0.5681
  121OSM    C1312770   3.632   1.520  11.130 -0.3584 -0.8930  0.8387
  121OSM   H13A12771   3.666   1.474  11.222 -0.0496 -1.3618  0.4909
  121OSM   H13B12772   3.604   1.624  11.143  1.5761 -0.6536  4.7111
  121OSM   H13C12773   3.720   1.518  11.068  1.3077 -2.0578  3.0787
  121OSM    C1212774   3.562   1.304  11.046 -0.4210  0.2109 -0.0242
  121OSM   H12A12775   3.473   1.248  11.020 -0.4564 -0.5039  1.5641
  121OSM   H12B12776   3.595   1.257  11.137 -1.6321 -2.9015 -1.0754
  121OSM    C1112777   3.673   1.287  10.927  1.5513 -0.0673  0.4909
  121OSM   H11A12778   3.616   1.325  10.840 -0.7474 -2.8455  0.6330
  121OSM   H11B12779   3.674   1.178  10.904 -4.0432 -0.5237  1.0033
  121OSM      P12780   3.925   1.279  11.002  0.2456  0.1370 -0.1911
  121OSM    O1312781   4.013   1.380  11.066  0.1084  0.1014 -0.7836
  121OSM    O1412782   3.883   1.165  11.088  0.4236  0.2095 -0.0200
  121OSM    O1112783   4.000   1.230  10.868 -0.2981 -0.4308  0.2400
  121OSM    O1212784   3.796   1.350  10.941  0.3080 -0.2738 -0.0166
  121OSM    C1S12785   3.975   1.092  10.827 -0.1571  0.6652 -0.0236
  121OSM    H1S12786   3.866   1.085  10.806 -0.3354 -0.2053  1.1299
  121OSM    H1T12787   4.009   1.013  10.896 -1.4450  1.1509  1.2171
  121OSM     NF12788   4.001   0.946  10.633 -0.2770 -0.2899  0.0174
  121OSM    HNF12789   4.042   0.860  10.662  1.5521  0.3344 -0.5989
  121OSM    C2S12790   4.048   1.067  10.696 -0.4413  0.5797  0.8228
  121OSM    H2S12791   4.017   1.150  10.629 -1.0211 -0.0184  0.3377
  121OSM    C3S12792   4.205   1.069  10.718 -0.4547  0.1275  0.4846
  121OSM    H3S12793   4.227   0.972  10.767  1.1170  0.0343 -0.3515
  121OSM     O312794   4.254   1.169  10.800 -0.8863 -0.4985 -0.2095
  121OSM    HO312795   4.169   1.200  10.832  0.7594  1.8335  2.3552
  121OSM    C4S12796   4.277   1.072  10.586  0.2872 -0.3320  1.1049
  121OSM    H4S12797   4.308   0.975  10.543 -1.1792  0.2607 -1.5504
  121OSM    C5S12798   4.318   1.173  10.505 -0.1311  0.0432  0.4312
  121OSM    H5S12799   4.302   1.274  10.546 -1.5433  0.2458 -0.5450
  121OSM    C6S12800   4.395   1.166  10.376 -0.3535  0.1189  0.0329
  121OSM    H6S12801   4.472   1.086  10.389  0.5631  0.9385 -0.2279
  121OSM    H6T12802   4.445   1.261  10.348 -1.6741  0.9936  0.5483
  121OSM    C7S12803   4.296   1.120  10.262  0.8523  0.3734  0.4837
  121OSM    H7S12804   4.217   1.198  10.262  0.7459  0.3250 -1.7266
  121OSM    H7T12805   4.247   1.025  10.289  2.8415 -0.4067  1.5804
  121OSM    C8S12806   4.353   1.110  10.120 -1.3168 -0.2463  0.0602
  121OSM    H8S12807   4.428   1.190  10.103  2.6435 -3.0354  2.5840
  121OSM    H8T12808   4.267   1.104  10.050  0.3064 -0.2325 -2.0207
  121OSM    C9S12809   4.416   0.971  10.082 -0.9808 -0.0394  0.1941
  121OSM    H9S12810   4.403   0.898  10.165 -0.4734 -1.4697 -0.9422
  121OSM    H9T12811   4.526   0.983  10.072 -0.9018 -0.6420  0.3347
  121OSM   C10S12812   4.353   0.913   9.955  0.4763 -0.4576  0.4893
  121OSM   H10S12813   4.244   0.933   9.965 -0.0550 -0.1727 -3.8641
  121OSM   H10T12814   4.385   0.807   9.947  0.6084 -0.4053  0.2990
  121OSM   C11S12815   4.408   0.992   9.833  0.0508  0.2803  1.4135
  121OSM   H11S12816   4.519   0.990   9.825  0.0507  1.2870  0.8546
  121OSM   H11T12817   4.380   1.097   9.858 -0.1256  0.6201 -0.0887
  121OSM   C12S12818   4.354   0.950   9.692  0.0919  0.0376 -0.0751
  121OSM   H12S12819   4.257   1.003   9.677  0.4058  0.6109 -0.1163
  121OSM   H12T12820   4.342   0.841   9.678  1.8004 -0.3349  1.0418
  121OSM   C13S12821   4.437   1.018   9.579 -0.0836  0.9908 -0.0400
  121OSM   H13S12822   4.544   0.988   9.577 -0.2313  0.2609 -2.9144
  121OSM   H13T12823   4.424   1.127   9.568 -0.2028  0.9215 -0.6461
  121OSM   C14S12824   4.394   0.961   9.438  0.1102 -0.6983 -0.1348
  121OSM   H14S12825   4.283   0.967   9.448  0.2230  0.7293  0.5212
  121OSM   H14T12826   4.432   0.858   9.424  3.4954  0.7228 -2.9098
  121OSM   C15S12827   4.430   1.055   9.320 -0.2514 -0.8203 -0.0703
  121OSM   H15S12828   4.539   1.052   9.301  0.3133  0.7086  2.5096
  121OSM   H15T12829   4.398   1.158   9.347  0.1831 -0.8811  0.6970
  121OSM   C16S12830   4.357   1.026   9.197 -1.0759  0.1192 -0.4307
  121OSM   H16S12831   4.246   1.029   9.197 -1.1107  3.3791  0.0727
  121OSM   H16T12832   4.393   0.927   9.163 -1.1062  0.0235 -0.1880
  121OSM   C17S12833   4.405   1.118   9.085 -0.0847 -0.5063  0.5997
  121OSM   H17S12834   4.351   1.090   8.993  0.5204  3.4817 -1.2054
  121OSM   H17T12835   4.513   1.095   9.071  0.5555  2.1656  0.6261
  121OSM   C18S12836   4.395   1.272   9.111  0.1808  0.7412 -0.5735
  121OSM   H18S12837   4.428   1.325   9.019  0.5199  1.1350 -0.2306
  121OSM   H18T12838   4.458   1.301   9.198  1.0065 -1.4266 -0.3801
  121OSM   H18U12839   4.291   1.304   9.137  0.4148 -0.6239  2.5365
  121OSM    C1F12840   3.875   0.939  10.586  0.2040  0.0747  0.1618
  121OSM     OF12841   3.808   1.036  10.573  0.5554 -0.4156  0.7319
  121OSM    C2F12842   3.824   0.798  10.564 -0.2298 -0.6159 -0.6573
  121OSM    H2F12843   3.727   0.791  10.617 -0.6517  0.1756 -1.3020
  121OSM    H2G12844   3.884   0.715  10.608  0.5670  0.9041  1.2334
  121OSM    C3F12845   3.789   0.793  10.412 -0.4378  0.3468 -0.1140
  121OSM    H3F12846   3.718   0.876  10.391 -0.7977  0.0687  0.0016
  121OSM    H3G12847   3.736   0.698  10.389  1.3216 -0.7576  0.1966
  121OSM    C4F12848   3.909   0.802  10.318  0.3854  0.7728  0.1934
  121OSM    H4F12849   3.976   0.887  10.343  0.7345  0.7731 -0.7115
  121OSM    H4G12850   3.867   0.823  10.217 -0.3454  0.2594  0.3831
  121OSM    C5F12851   3.998   0.673  10.317 -0.5037  0.2001  0.2551
  121OSM    H5F12852   3.945   0.580  10.286 -1.0852  0.7607 -0.4990
  121OSM    H5G12853   4.033   0.663  10.422 -0.3932 -1.5270  0.0917
  121OSM    C6F12854   4.119   0.677  10.224 -0.2643 -0.3730 -0.2443
  121OSM    H6F12855   4.206   0.651  10.288 -0.4060 -1.4821 -0.4825
  121OSM    H6G12856   4.130   0.781  10.185  0.8435  0.3586  1.8596
  121OSM    C7F12857   4.123   0.580  10.108 -0.1105 -0.6307  0.3358
  121OSM    H7F12858   4.115   0.475  10.142  1.7493 -1.4269 -1.4637
  121OSM    H7G12859   4.215   0.598  10.048 -1.7102  0.2200 -2.0185
  121OSM    C8F12860   4.006   0.605  10.008  0.0049  0.0432 -0.0673
  121OSM    H8F12861   3.907   0.609  10.059 -1.2626 -2.0415 -2.1417
  121OSM    H8G12862   4.009   0.513   9.945  1.0421 -0.6418  0.9623
  121OSM    C9F12863   4.016   0.728   9.925  0.3694  0.0980  0.1836
  121OSM    H9F12864   3.988   0.821   9.975 -2.3374 -0.9550  0.7796
  121OSM   C10F12865   4.044   0.744   9.794  0.0631 -0.0446 -0.2451
  121OSM   H10F12866   4.052   0.846   9.756 -2.0773  0.9976  1.8170
  121OSM   C11F12867   4.085   0.632   9.695  0.7245 -0.2352 -0.4752
  121OSM   H11F12868   4.055   0.537   9.743  0.4108  0.8519  1.5674
  121OSM   H11G12869   4.195   0.629   9.682  0.9926  0.0214  1.4164
  121OSM   C12F12870   4.020   0.644   9.559  0.1199  0.1776  0.4054
  121OSM   H12F12871   3.911   0.665   9.567 -0.6217 -3.1068  0.3997
  121OSM   H12G12872   4.027   0.542   9.514 -1.0734  0.7711 -1.1947
  121OSM   C13F12873   4.101   0.744   9.470 -0.1662  0.2227  0.1560
  121OSM   H13F12874   4.207   0.710   9.466 -0.6651 -1.3420 -1.8169
  121OSM   H13G12875   4.096   0.845   9.515 -0.9056  1.1830 -1.9413
  121OSM   C14F12876   4.037   0.762   9.329 -0.1302  0.6022 -0.7422
  121OSM   H14F12877   4.052   0.669   9.269  1.7712 -0.2679  0.9785
  121OSM   H14G12878   4.077   0.851   9.276  2.2708  1.3551  2.1056
  121OSM   C15F12879   3.886   0.794   9.331  0.4825  0.7731 -0.7051
  121OSM   H15F12880   3.866   0.876   9.404 -1.3861  0.4759 -0.8423
  121OSM   H15G12881   3.839   0.701   9.369  0.3798  1.3770  0.7185
  121OSM   C16F12882   3.828   0.820   9.190  0.8833 -0.2892 -0.3425
  121OSM   H16F12883   3.720   0.842   9.200  1.3630  2.0503  0.5638
  121OSM   H16G12884   3.829   0.728   9.129 -1.4903  0.4601 -1.6351
  121OSM   C17F12885   3.891   0.931   9.107 -0.0737 -0.2819  0.6799
  121OSM   H17F12886   4.001   0.914   9.097 -0.0059  1.1010 -1.7314
  121OSM   H17G12887   3.868   1.024   9.163 -1.0732  0.2114 -0.4955
  121OSM   C18F12888   3.822   0.947   8.967 -0.1284 -0.6353 -0.7822
  121OSM   H18F12889   3.712   0.941   8.980 -0.2452  0.3262 -1.3051
  121OSM   H18G12890   3.849   0.859   8.905 -0.9970 -1.3629 -0.1735
  121OSM   H18H12891   3.852   1.045   8.926 -1.9140  1.0725  1.7086
  122OSM      N12892   5.219   6.128  10.610  0.1573  0.3318  0.0886
  122OSM    C1512893   5.228   6.258  10.533  0.3566  0.1535  0.2654
  122OSM   H15A12894   5.331   6.265  10.502  1.0922 -0.5343  2.3843
  122OSM   H15B12895   5.201   6.346  10.590 -1.6590  0.1383 -0.5818
  122OSM   H15C12896   5.162   6.254  10.448  1.8761  0.7965 -1.0030
  122OSM    C1412897   5.266   6.018  10.521 -0.2742  0.2116 -0.3433
  122OSM   H14A12898   5.202   6.010  10.434 -0.3261 -1.9567 -0.1761
  122OSM   H14B12899   5.258   5.927  10.579  1.2623 -0.5282 -1.2072
  122OSM   H14C12900   5.372   6.032  10.507 -0.1943  1.8742  1.4892
  122OSM    C1312901   5.314   6.149  10.724 -0.8329 -0.0283 -0.4638
  122OSM   H13A12902   5.291   6.239  10.779  1.6978  0.2332  0.3295
  122OSM   H13B12903   5.417   6.147  10.690  0.2829 -0.9269  2.6107
  122OSM   H13C12904   5.308   6.058  10.782  1.6604 -2.3360 -3.5078
  122OSM    C1212905   5.077   6.109  10.662  0.4061 -0.1078  0.7044
  122OSM   H12A12906   5.017   6.082  10.577  0.5485  0.8671  0.2852
  122OSM   H12B12907   5.046   6.205  10.701  1.3931  0.6523 -0.3373
  122OSM    C1112908   5.056   6.006  10.778 -0.2549  0.4231 -0.1684
  122OSM   H11A12909   4.946   5.990  10.780 -0.4250  1.5397  0.3670
  122OSM   H11B12910   5.091   6.042  10.877  1.3081  1.2119 -0.9626
  122OSM      P12911   5.206   5.784  10.789 -0.0831  0.0441  0.0111
  122OSM    O1312912   5.308   5.878  10.847 -0.0684 -0.2357 -0.1705
  122OSM    O1412913   5.123   5.688  10.863  0.1117 -0.0063 -0.2831
  122OSM    O1112914   5.272   5.716  10.657 -0.5712 -0.6112 -0.2619
  122OSM    O1212915   5.106   5.880  10.730  0.1537 -0.2791  0.1258
  122OSM    C1S12916   5.185   5.662  10.559  0.2343 -0.5865 -1.4221
  122OSM    H1S12917   5.095   5.722  10.533  1.9057  2.7939  0.0136
  122OSM    H1T12918   5.161   5.558  10.591  2.1972 -0.8032 -0.5270
  122OSM     NF12919   5.177   5.626  10.319 -0.4117  0.8090  0.0923
  122OSM    HNF12920   5.154   5.533  10.294 -0.9746  1.4293 -1.9300
  122OSM    C2S12921   5.267   5.647  10.430  0.3353  0.3451  0.4550
  122OSM    H2S12922   5.317   5.745  10.410 -0.9395  0.9358  0.0323
  122OSM    C3S12923   5.376   5.535  10.434  0.1441 -0.2092  0.4694
  122OSM    H3S12924   5.322   5.438  10.435 -1.3306  0.5811  0.3514
  122OSM     O312925   5.451   5.526  10.554  0.0811 -0.0443  0.0544
  122OSM    HO312926   5.407   5.588  10.612  0.8130  0.2542  0.3011
  122OSM    C4S12927   5.476   5.538  10.322 -0.4315 -0.1824  0.5479
  122OSM    H4S12928   5.537   5.629  10.311 -1.3021  0.2681 -0.7468
  122OSM    C5S12929   5.495   5.437  10.234 -0.0167  0.1526  0.2159
  122OSM    H5S12930   5.437   5.345  10.246 -2.2494  0.9163 -3.2855
  122OSM    C6S12931   5.589   5.438  10.112 -0.3099 -0.0066  0.3664
  122OSM    H6S12932   5.684   5.388  10.139 -0.0089 -0.1982 -0.9871
  122OSM    H6T12933   5.611   5.541  10.075 -1.5909 -0.0402 -0.5347
  122OSM    C7S12934   5.531   5.358   9.987  0.1407  0.0884  0.0433
  122OSM    H7S12935   5.503   5.252  10.004 -2.2441  0.6163 -0.2289
  122OSM    H7T12936   5.612   5.359   9.911  0.1658 -0.9051  0.0530
  122OSM    C8S12937   5.413   5.426   9.924 -0.4886 -0.4509 -0.0208
  122OSM    H8S12938   5.452   5.523   9.887 -0.0960 -0.4883  0.2914
  122OSM    H8T12939   5.325   5.441   9.990 -2.3176 -0.6294 -2.3097
  122OSM    C9S12940   5.366   5.342   9.801 -0.1790  0.0702 -0.3800
  122OSM    H9S12941   5.279   5.400   9.763  1.3224  3.1651  0.5928
  122OSM    H9T12942   5.330   5.242   9.834  0.2756 -0.3880 -1.2339
  122OSM   C10S12943   5.469   5.329   9.686  0.0960  0.5530 -0.4745
  122OSM   H10S12944   5.558   5.269   9.715 -0.3196  0.2207  0.1273
  122OSM   H10T12945   5.517   5.427   9.665  0.7255  0.3811  0.1059
  122OSM   C11S12946   5.412   5.278   9.555  0.0781 -0.1909  0.1403
  122OSM   H11S12947   5.351   5.360   9.512  0.5909  1.8431  2.9836
  122OSM   H11T12948   5.348   5.187   9.564 -3.1063  1.9858  1.2658
  122OSM   C12S12949   5.525   5.248   9.452 -0.3585 -0.1589  0.1335
  122OSM   H12S12950   5.578   5.156   9.486  1.2335  0.9955  0.8979
  122OSM   H12T12951   5.597   5.332   9.451 -0.9261  0.4113  2.3685
  122OSM   C13S12952   5.466   5.226   9.315  0.0564  0.4359 -0.2693
  122OSM   H13S12953   5.407   5.316   9.286 -0.8039  0.3240  1.0305
  122OSM   H13T12954   5.404   5.134   9.322 -0.1109  0.3757 -2.1457
  122OSM   C14S12955   5.572   5.184   9.218  1.2417 -0.5679 -0.1403
  122OSM   H14S12956   5.590   5.075   9.230 -2.5560 -1.4842 -1.4106
  122OSM   H14T12957   5.662   5.241   9.249  1.0126 -0.5867  0.5776
  122OSM   C15S12958   5.529   5.210   9.075 -0.4484  0.1135  0.1361
  122OSM   H15S12959   5.478   5.309   9.073  0.9791  0.9138  1.2818
  122OSM   H15T12960   5.448   5.141   9.043 -0.1735  0.4601 -1.4096
  122OSM   C16S12961   5.653   5.205   8.975  0.7084  0.1550  0.3057
  122OSM   H16S12962   5.693   5.102   8.990  0.4047 -0.2467 -1.4540
  122OSM   H16T12963   5.736   5.254   9.031  0.3769 -0.3759  1.2898
  122OSM   C17S12964   5.645   5.236   8.830 -0.3200  0.7191 -0.0077
  122OSM   H17S12965   5.739   5.211   8.775  0.4771  3.1514  0.1457
  122OSM   H17T12966   5.612   5.341   8.818  0.5809  1.0720  0.4923
  122OSM   C18S12967   5.532   5.147   8.761 -0.1215  0.2748  0.0075
  122OSM   H18S12968   5.538   5.145   8.650 -2.1369 -0.0513 -0.1348
  122OSM   H18T12969   5.430   5.178   8.791 -0.1022 -0.5753  1.0091
  122OSM   H18U12970   5.545   5.043   8.800 -3.1699 -0.6744 -1.2648
  122OSM    C1F12971   5.102   5.715  10.262 -0.5860 -0.2749 -0.1186
  122OSM     OF12972   5.084   5.826  10.307  0.1466 -0.7221  0.4313
  122OSM    C2F12973   5.042   5.677  10.128  0.3543 -0.3981  0.5747
  122OSM    H2F12974   5.049   5.568  10.104 -2.4644 -0.2277 -1.4812
  122OSM    H2G12975   5.105   5.730  10.053  1.3217  0.4413  1.9357
  122OSM    C3F12976   4.891   5.707  10.111 -0.2998 -0.6655 -0.3115
  122OSM    H3F12977   4.858   5.809  10.142 -1.8031 -1.6817  1.6134
  122OSM    H3G12978   4.854   5.637  10.189  1.9026 -2.3762 -0.7092
  122OSM    C4F12979   4.832   5.662   9.977  0.2578  0.3903  0.2406
  122OSM    H4F12980   4.730   5.704   9.966 -0.0216 -0.5407 -0.8172
  122OSM    H4G12981   4.819   5.554   9.957 -0.0423  0.2003  1.3797
  122OSM    C5F12982   4.912   5.723   9.859  0.6159 -0.6565  0.8298
  122OSM    H5F12983   5.002   5.660   9.845  0.0305 -1.3854  0.2031
  122OSM    H5G12984   4.927   5.833   9.857  0.0778 -0.5656 -1.6974
  122OSM    C6F12985   4.829   5.704   9.727 -0.5698  0.2949 -0.3399
  122OSM    H6F12986   4.719   5.720   9.735 -1.2097 -2.2641 -2.5205
  122OSM    H6G12987   4.815   5.594   9.721  1.1252 -0.0780  1.4814
  122OSM    C7F12988   4.909   5.764   9.613 -0.2599 -0.6235  0.3202
  122OSM    H7F12989   5.004   5.708   9.599  1.7671  2.7332 -0.4210
  122OSM    H7G12990   4.939   5.870   9.629  1.6253 -0.9253 -0.8316
  122OSM    C8F12991   4.826   5.754   9.476  0.0555  0.3060 -0.4782
  122OSM    H8F12992   4.738   5.816   9.505  1.4487  1.6241  1.0960
  122OSM    H8G12993   4.781   5.653   9.464  0.2059  0.0954  0.6178
  122OSM    C9F12994   4.888   5.814   9.354  0.0690 -0.3243 -0.4919
  122OSM    H9F12995   4.995   5.836   9.361 -0.1735  0.2137  3.2471
  122OSM   C10F12996   4.815   5.823   9.248 -0.3796  0.5338  0.2970
  122OSM   H10F12997   4.871   5.874   9.168  1.7984 -0.8567  0.8402
  122OSM   C11F12998   4.676   5.778   9.209 -0.4750  0.8080 -0.1477
  122OSM   H11F12999   4.613   5.732   9.287 -1.0824  0.7691 -0.6498
  122OSM   H11G13000   4.685   5.705   9.125  1.9445  0.2833  0.5037
  122OSM   C12F13001   4.593   5.898   9.171  0.6673  0.1496 -0.6229
  122OSM   H12F13002   4.613   5.964   9.258  0.8184 -0.7330  0.0227
  122OSM   H12G13003   4.484   5.877   9.170  0.3091  1.7949  0.3740
  122OSM   C13F13004   4.637   5.964   9.040 -0.3181 -0.1390  0.5840
  122OSM   H13F13005   4.694   5.895   8.975 -0.8452  0.2793 -0.3437
  122OSM   H13G13006   4.708   6.046   9.063  1.5169 -1.8277  1.2922
  122OSM   C14F13007   4.510   6.016   8.964  0.0719  0.0907 -0.1409
  122OSM   H14F13008   4.455   6.074   9.042 -0.5806  0.0977 -0.5956
  122OSM   H14G13009   4.452   5.928   8.930  0.6357 -0.0333 -0.7990
  122OSM   C15F13010   4.547   6.112   8.848 -0.6901  0.4232  1.3080
  122OSM   H15F13011   4.589   6.040   8.775 -0.2127 -1.0799  2.9810
  122OSM   H15G13012   4.617   6.192   8.879 -0.2125  0.2004  0.8241
  122OSM   C16F13013   4.428   6.182   8.788  0.0167 -0.5411 -0.1796
  122OSM   H16F13014   4.363   6.239   8.858 -0.1937 -0.7388 -0.2134
  122OSM   H16G13015   4.366   6.108   8.734  1.1049 -0.3051 -1.8096
  122OSM   C17F13016   4.479   6.283   8.683 -0.1871  0.0190 -0.2337
  122OSM   H17F13017   4.549   6.228   8.616  1.5121  2.1329 -0.3266
  122OSM   H17G13018   4.533   6.367   8.732  0.9184 -1.0151  0.3779
  122OSM   C18F13019   4.369   6.344   8.594  0.3814 -0.3069  0.0278
  122OSM   H18F13020   4.405   6.438   8.547  0.5273 -1.4614 -2.3346
  122OSM   H18G13021   4.281   6.382   8.650 -1.2118 -0.0009 -2.4945
  122OSM   H18H13022   4.335   6.280   8.510  1.2671  1.5982 -1.8953
  123OSM      N13023   2.001   3.649   6.039  0.0393  0.1873 -0.4525
  123OSM    C1513024   1.982   3.553   5.927  0.2774  0.2428 -0.1932
  123OSM   H15A13025   1.906   3.577   5.855  0.4036  2.5200  0.3631
  123OSM   H15B13026   1.964   3.457   5.974 -1.1110  1.3005  1.5969
  123OSM   H15C13027   2.073   3.541   5.869  1.6395  1.7706  1.4960
  123OSM    C1413028   1.862   3.659   6.104 -0.1551  0.2005 -0.0013
  123OSM   H14A13029   1.814   3.742   6.056  0.9133  2.3218  2.3897
  123OSM   H14B13030   1.865   3.679   6.210 -0.6465  1.8516 -0.2817
  123OSM   H14C13031   1.808   3.565   6.099  1.3075 -0.6709 -0.2669
  123OSM    C1313032   2.096   3.586   6.141 -0.1326 -0.4121 -0.0128
  123OSM   H13A13033   2.114   3.647   6.228  0.4018 -0.1360 -0.3104
  123OSM   H13B13034   2.192   3.583   6.092  0.1150 -0.1420  0.4522
  123OSM   H13C13035   2.057   3.489   6.170 -0.2621  0.1622  1.8900
  123OSM    C1213036   2.063   3.773   5.992 -0.6506 -0.0932 -1.0404
  123OSM   H12A13037   2.156   3.747   5.943 -0.2750  2.7113 -2.0362
  123OSM   H12B13038   2.086   3.837   6.077  0.8663  0.8231 -2.0797
  123OSM    C1113039   1.976   3.858   5.905 -0.2747 -0.0789 -0.0457
  123OSM   H11A13040   1.951   3.790   5.820 -0.3967 -0.4530  0.2890
  123OSM   H11B13041   2.032   3.942   5.859  0.0433  0.2589  0.9482
  123OSM      P13042   1.852   4.031   6.059 -0.3828 -0.0713 -0.3513
  123OSM    O1313043   1.924   4.144   5.989  0.4401  0.4065 -0.5532
  123OSM    O1413044   1.711   4.047   6.096 -0.2480  0.5056  0.1365
  123OSM    O1113045   1.942   3.989   6.189  0.3213  0.7207  0.5756
  123OSM    O1213046   1.855   3.898   5.964 -0.5557  0.4180 -0.3499
  123OSM    C1S13047   2.008   4.097   6.263 -0.0975 -0.3128 -0.1711
  123OSM    H1S13048   1.947   4.189   6.268 -1.3264 -1.0775 -0.6482
  123OSM    H1T13049   2.107   4.115   6.214 -0.0497 -0.0582  0.0185
  123OSM     NF13050   2.088   4.160   6.494  0.1113  0.1560  0.5506
  123OSM    HNF13051   2.185   4.177   6.502  0.0167  1.8401 -1.2637
  123OSM    C2S13052   2.038   4.049   6.414  1.1162 -0.0574 -0.4219
  123OSM    H2S13053   1.946   4.013   6.465  1.1356  0.8491  0.2915
  123OSM    C3S13054   2.148   3.935   6.423  0.2038  1.0122  1.1048
  123OSM    H3S13055   2.246   3.973   6.387  1.8925 -3.2753  0.6414
  123OSM     O313056   2.118   3.819   6.345 -0.0470 -0.3244  0.2201
  123OSM    HO313057   2.053   3.853   6.283  1.6834  2.1081 -0.3872
  123OSM    C4S13058   2.170   3.895   6.574  0.5576 -0.0978 -0.2671
  123OSM    H4S13059   2.085   3.838   6.612 -0.2925 -0.9724 -3.2078
  123OSM    C5S13060   2.263   3.934   6.665 -0.4045 -0.5630  0.4880
  123OSM    H5S13061   2.343   3.997   6.623 -2.3578  1.8468  0.1038
  123OSM    C6S13062   2.288   3.894   6.808  0.0354  0.5251 -0.2099
  123OSM    H6S13063   2.280   3.986   6.869 -3.6893 -0.1067  0.4588
  123OSM    H6T13064   2.392   3.855   6.818 -0.0093  0.0327 -1.4327
  123OSM    C7S13065   2.190   3.792   6.876  0.0726  0.1279 -0.3548
  123OSM    H7S13066   2.196   3.692   6.828 -0.2667  0.7238 -1.6721
  123OSM    H7T13067   2.086   3.828   6.866  0.2797  0.5420 -1.0831
  123OSM    C8S13068   2.210   3.780   7.031  0.2341 -0.1749  0.3815
  123OSM    H8S13069   2.140   3.698   7.059 -0.7373 -0.6780 -3.0196
  123OSM    H8T13070   2.183   3.880   7.072  0.0824  0.8743 -2.1121
  123OSM    C9S13071   2.348   3.748   7.076 -0.5157 -0.0747 -0.2505
  123OSM    H9S13072   2.416   3.834   7.060  0.7470 -1.2095 -1.2302
  123OSM    H9T13073   2.394   3.667   7.016  0.2108  1.9897 -2.6324
  123OSM   C10S13074   2.353   3.712   7.226  0.4706 -0.2313 -0.0300
  123OSM   H10S13075   2.446   3.656   7.245  1.5582  1.3316 -0.5081
  123OSM   H10T13076   2.268   3.643   7.245 -0.1585  0.2642 -0.9467
  123OSM   C11S13077   2.355   3.842   7.313 -0.3954 -0.1256  0.0700
  123OSM   H11S13078   2.257   3.895   7.313 -0.6891 -0.6509 -1.0441
  123OSM   H11T13079   2.422   3.915   7.263 -0.1297 -0.4612 -0.0647
  123OSM   C12S13080   2.379   3.821   7.466  0.0064  0.2203 -0.7338
  123OSM   H12S13081   2.477   3.771   7.482  0.3889  1.2398  0.1890
  123OSM   H12T13082   2.308   3.742   7.497  0.1015  0.2737 -0.3828
  123OSM   C13S13083   2.360   3.946   7.550  0.0284  0.0313  0.3658
  123OSM   H13S13084   2.261   3.991   7.531  1.4525  3.6085  0.5646
  123OSM   H13T13085   2.424   4.027   7.509 -2.7777  1.7786 -0.8649
  123OSM   C14S13086   2.389   3.921   7.700 -0.0553 -0.0583 -0.1078
  123OSM   H14S13087   2.494   3.884   7.704  0.1268  0.4442 -0.1548
  123OSM   H14T13088   2.329   3.831   7.725  1.1314 -0.8129  0.0861
  123OSM   C15S13089   2.357   4.037   7.796  0.6009 -0.8139  0.1365
  123OSM   H15S13090   2.248   4.062   7.800  0.4529 -1.0147 -1.8509
  123OSM   H15T13091   2.403   4.129   7.754 -0.5406  1.0829  2.7652
  123OSM   C16S13092   2.422   4.018   7.933 -0.4298  0.3457  0.0538
  123OSM   H16S13093   2.532   4.002   7.927 -0.3590 -0.3443  2.3117
  123OSM   H16T13094   2.389   3.920   7.974  2.7713 -0.1723  1.6989
  123OSM   C17S13095   2.386   4.126   8.036  0.6034 -0.0160 -0.1453
  123OSM   H17S13096   2.282   4.159   8.015  0.8440  0.3983 -0.7081
  123OSM   H17T13097   2.463   4.205   8.021 -0.8128  1.2004 -1.3356
  123OSM   C18S13098   2.396   4.072   8.181  0.8715 -0.1312 -0.0070
  123OSM   H18S13099   2.499   4.032   8.187  1.6762  1.9571  1.1349
  123OSM   H18T13100   2.335   3.980   8.196 -1.8121  1.2996 -1.3570
  123OSM   H18U13101   2.379   4.146   8.263  2.0179 -0.0779  0.1989
  123OSM    C1F13102   1.996   4.251   6.532 -0.1436  0.0714  0.9061
  123OSM     OF13103   1.878   4.249   6.504  0.0507  0.5848 -0.5353
  123OSM    C2F13104   2.048   4.374   6.595  0.2071  0.1473 -0.4063
  123OSM    H2F13105   2.019   4.464   6.536 -2.5725  0.2631  0.9455
  123OSM    H2G13106   2.159   4.382   6.593  0.2011  0.2938 -0.2836
  123OSM    C3F13107   1.998   4.396   6.739  0.7757  0.5415  0.5237
  123OSM    H3F13108   2.019   4.303   6.796  1.4787  0.8343  0.7536
  123OSM    H3G13109   1.889   4.421   6.745  0.8740  0.7063  2.0238
  123OSM    C4F13110   2.060   4.509   6.819  0.6350 -0.3911 -0.2121
  123OSM    H4F13111   2.044   4.603   6.763  2.8239 -0.6457 -1.3378
  123OSM    H4G13112   2.170   4.493   6.819  1.0070  1.8116  0.5988
  123OSM    C5F13113   2.019   4.540   6.965 -0.0387  0.2426 -0.2619
  123OSM    H5F13114   2.075   4.467   7.027 -0.0122 -0.8876 -1.5644
  123OSM    H5G13115   1.912   4.515   6.981  0.0762  1.2575  2.6192
  123OSM    C6F13116   2.057   4.689   7.001  0.1430 -0.5554  0.4628
  123OSM    H6F13117   1.961   4.746   7.004  0.8264  0.8793 -1.9454
  123OSM    H6G13118   2.116   4.735   6.918 -1.2236  0.0465 -0.2078
  123OSM    C7F13119   2.123   4.714   7.133 -0.2368 -0.2888 -0.2024
  123OSM    H7F13120   2.147   4.821   7.146  2.7926 -0.9107 -0.0219
  123OSM    H7G13121   2.226   4.672   7.132  0.7946  1.9544  1.6007
  123OSM    C8F13122   2.041   4.660   7.261  0.5331 -0.2877  1.4957
  123OSM    H8F13123   2.057   4.551   7.250 -0.4790 -0.2346 -1.1187
  123OSM    H8G13124   1.933   4.675   7.239  0.8829 -0.6652 -0.6921
  123OSM    C9F13125   2.097   4.724   7.385 -0.1638  0.2023 -0.3975
  123OSM    H9F13126   2.206   4.730   7.391 -0.2204  2.5137 -0.4865
  123OSM   C10F13127   2.024   4.781   7.488  0.4502  0.3465 -0.5340
  123OSM   H10F13128   2.077   4.805   7.581  2.7905 -1.5599 -1.2723
  123OSM   C11F13129   1.874   4.793   7.499  0.0615 -0.0269 -0.3173
  123OSM   H11F13130   1.823   4.746   7.412  2.9986  1.4648 -3.0500
  123OSM   H11G13131   1.841   4.898   7.487  0.7565 -0.0042 -2.3206
  123OSM   C12F13132   1.815   4.725   7.632  0.0185 -0.1027  0.1246
  123OSM   H12F13133   1.845   4.618   7.635 -1.4171 -0.5774 -1.0505
  123OSM   H12G13134   1.705   4.722   7.617  0.3208  0.2368 -2.7812
  123OSM   C13F13135   1.857   4.788   7.762  0.6561  0.3800 -0.0461
  123OSM   H13F13136   1.843   4.897   7.745 -0.4256 -0.0385 -2.2623
  123OSM   H13G13137   1.964   4.768   7.784  0.9529 -0.3534 -1.9813
  123OSM   C14F13138   1.779   4.726   7.887 -0.5756  0.5338  0.4208
  123OSM   H14F13139   1.822   4.628   7.916 -1.0517  0.3321  0.4545
  123OSM   H14G13140   1.677   4.698   7.852 -1.0140  1.3829  0.9730
  123OSM   C15F13141   1.767   4.814   8.013 -0.1105  0.1053  0.0711
  123OSM   H15F13142   1.728   4.912   7.979  0.5935  0.6389  0.7753
  123OSM   H15G13143   1.866   4.842   8.054 -1.1683  1.1833  2.0344
  123OSM   C16F13144   1.685   4.740   8.117 -0.1528  0.0332 -0.3361
  123OSM   H16F13145   1.728   4.639   8.132 -0.4458  0.2904  2.8267
  123OSM   H16G13146   1.580   4.724   8.084  0.7972 -2.3519 -2.4996
  123OSM   C17F13147   1.686   4.796   8.256  0.4544  0.7035 -0.2675
  123OSM   H17F13148   1.583   4.790   8.297  0.4676  3.1241  0.3057
  123OSM   H17G13149   1.703   4.906   8.253 -1.9185  1.1034 -2.9466
  123OSM   C18F13150   1.790   4.736   8.349 -0.5708 -0.3684 -0.0476
  123OSM   H18F13151   1.890   4.741   8.301  0.1818 -0.7278  1.4297
  123OSM   H18G13152   1.771   4.629   8.375 -0.9330  0.2496  2.4872
  123OSM   H18H13153   1.793   4.797   8.441  0.5022  3.2379 -2.2919
  124OSM      N13154   4.318   2.094   6.403  0.2232 -1.3493  0.1060
  124OSM    C1513155   4.277   2.241   6.408 -0.7491 -0.3997  0.1523
  124OSM   H15A13156   4.369   2.298   6.413 -1.2383  0.5392 -1.1830
  124OSM   H15B13157   4.223   2.260   6.500  1.0843 -1.0141  1.4259
  124OSM   H15C13158   4.217   2.271   6.324  1.8546  2.3568 -0.8895
  124OSM    C1413159   4.404   2.060   6.516  0.2462 -0.9828 -0.7143
  124OSM   H14A13160   4.371   2.095   6.613  0.0708 -1.6635 -0.5208
  124OSM   H14B13161   4.497   2.113   6.501  0.8161 -2.0952 -1.2471
  124OSM   H14C13162   4.423   1.955   6.529  2.6002 -0.6995 -1.3545
  124OSM    C1313163   4.187   2.023   6.412 -0.0905  0.6580  0.2256
  124OSM   H13A13164   4.213   1.918   6.419  0.8990  0.9961  2.7944
  124OSM   H13B13165   4.131   2.045   6.322  2.0042  0.1637 -1.2852
  124OSM   H13C13166   4.135   2.053   6.501  0.4267  0.1763  0.6980
  124OSM    C1213167   4.387   2.068   6.267 -0.3372  0.5155  0.9490
  124OSM   H12A13168   4.468   2.137   6.249  0.5769 -0.7761 -0.0486
  124OSM   H12B13169   4.314   2.085   6.189 -1.1072 -0.1156  1.5143
  124OSM    C1113170   4.445   1.928   6.242  0.0229 -0.6014 -0.5615
  124OSM   H11A13171   4.461   1.915   6.133 -2.2827  1.7748 -1.2667
  124OSM   H11B13172   4.376   1.850   6.281 -1.1344  0.7616  0.1857
  124OSM      P13173   4.706   1.952   6.271 -0.1551 -0.0284 -0.1991
  124OSM    O1313174   4.742   1.847   6.179 -0.4998  0.0918  0.0860
  124OSM    O1413175   4.722   2.094   6.231 -0.7106 -0.1258  0.0969
  124OSM    O1113176   4.793   1.925   6.395 -0.2091  0.1126  0.9632
  124OSM    O1213177   4.561   1.919   6.322 -0.1477 -0.4215 -0.8089
  124OSM    C1S13178   4.766   1.976   6.521 -0.5566 -0.9248 -0.2234
  124OSM    H1S13179   4.661   1.954   6.549  0.2130 -1.5884  2.3883
  124OSM    H1T13180   4.766   2.087   6.524 -1.9622 -0.9329  1.1843
  124OSM     NF13181   4.786   1.969   6.768 -0.2143  0.4563  0.0943
  124OSM    HNF13182   4.812   2.054   6.813  0.6797  0.0624  0.3424
  124OSM    C2S13183   4.851   1.930   6.642 -0.5711 -0.3405 -1.1509
  124OSM    H2S13184   4.841   1.819   6.642  0.3189 -0.4243 -0.5220
  124OSM    C3S13185   5.000   1.972   6.631 -0.7504 -0.8626  0.4592
  124OSM    H3S13186   5.005   2.082   6.617  1.4888 -0.4625  3.3666
  124OSM     O313187   5.066   1.920   6.514 -1.1028  0.3134 -0.3483
  124OSM    HO313188   5.004   1.905   6.441 -2.0311 -2.0308  0.8176
  124OSM    C4S13189   5.072   1.932   6.759 -0.1586 -0.3078 -0.7666
  124OSM    H4S13190   5.070   2.005   6.841  3.5286 -1.4237  0.5278
  124OSM    C5S13191   5.145   1.820   6.771  0.4404 -0.3959 -0.1202
  124OSM    H5S13192   5.166   1.771   6.674  1.0463 -0.5796  0.0961
  124OSM    C6S13193   5.231   1.778   6.883  0.8567 -0.4762 -0.3462
  124OSM    H6S13194   5.337   1.771   6.851  1.1192  1.8361 -0.1366
  124OSM    H6T13195   5.208   1.675   6.917 -2.0948  0.0350 -0.5210
  124OSM    C7S13196   5.221   1.875   7.007 -0.0939 -0.2274 -0.2277
  124OSM    H7S13197   5.126   1.877   7.064 -2.7053  0.7324 -4.2410
  124OSM    H7T13198   5.243   1.977   6.971 -0.4168  0.3145  1.0478
  124OSM    C8S13199   5.341   1.845   7.106 -1.0622 -0.2753 -0.1465
  124OSM    H8S13200   5.432   1.852   7.043 -0.1089 -0.4674  1.1615
  124OSM    H8T13201   5.345   1.738   7.137  0.0350 -0.3897 -0.6474
  124OSM    C9S13202   5.348   1.937   7.230 -0.3959  0.0135 -0.6672
  124OSM    H9S13203   5.248   1.935   7.277  1.2786  0.7599  3.3277
  124OSM    H9T13204   5.357   2.035   7.179 -1.4960  0.2474 -0.4457
  124OSM   C10S13205   5.458   1.915   7.333  0.0033  0.2015  0.7484
  124OSM   H10S13206   5.552   1.947   7.285  1.0979 -2.9567  0.5645
  124OSM   H10T13207   5.483   1.808   7.347  3.9557  0.8281 -0.2050
  124OSM   C11S13208   5.417   1.987   7.462 -0.5438 -0.1642  0.1783
  124OSM   H11S13209   5.315   1.950   7.486  0.0626 -1.4264  0.8704
  124OSM   H11T13210   5.425   2.098   7.455  1.3754 -0.1605  1.6890
  124OSM   C12S13211   5.504   1.941   7.572 -0.4742 -0.0965  0.4357
  124OSM   H12S13212   5.613   1.963   7.567 -0.3332 -0.8979 -0.4847
  124OSM   H12T13213   5.495   1.830   7.567  0.9586 -0.2109 -0.2982
  124OSM   C13S13214   5.452   1.999   7.701  0.2749 -0.0945 -0.3716
  124OSM   H13S13215   5.342   1.986   7.705 -0.1468  2.3538 -1.6519
  124OSM   H13T13216   5.456   2.109   7.684  1.3746 -0.4820 -3.0968
  124OSM   C14S13217   5.518   1.959   7.831 -0.1639  0.6618  0.2529
  124OSM   H14S13218   5.621   1.997   7.816 -0.2492  0.4441 -0.9997
  124OSM   H14T13219   5.510   1.848   7.844  0.6356  0.3521 -1.6649
  124OSM   C15S13220   5.447   2.028   7.949  0.6481  0.3829 -0.4116
  124OSM   H15S13221   5.440   2.134   7.917 -3.0291  0.8094  1.2636
  124OSM   H15T13222   5.510   2.015   8.040 -0.5919 -2.2950  0.1707
  124OSM   C16S13223   5.310   1.977   7.983 -0.4196  0.0513  0.0282
  124OSM   H16S13224   5.314   1.870   8.011  1.0320 -0.4280 -1.8059
  124OSM   H16T13225   5.244   1.987   7.894  1.3111 -0.8803 -1.4160
  124OSM   C17S13226   5.260   2.048   8.111 -0.5216 -0.7562  0.1389
  124OSM   H17S13227   5.260   2.159   8.107 -1.9067 -0.6964  1.0079
  124OSM   H17T13228   5.336   2.037   8.191  0.9593 -0.5751 -1.1772
  124OSM   C18S13229   5.117   2.018   8.153  0.1848 -0.2339 -0.4416
  124OSM   H18S13230   5.114   1.933   8.225  1.8333 -0.4511 -0.5851
  124OSM   H18T13231   5.059   1.997   8.061  0.7131 -2.1018 -0.3870
  124OSM   H18U13232   5.080   2.108   8.206 -1.1886 -0.6458 -0.6501
  124OSM    C1F13233   4.680   1.911   6.819 -0.1107  0.6563 -1.0867
  124OSM     OF13234   4.616   1.827   6.756  0.2769 -0.0081  0.1576
  124OSM    C2F13235   4.646   1.956   6.953 -0.8350 -0.1031 -0.2726
  124OSM    H2F13236   4.536   1.976   6.952 -0.9523 -0.7387 -0.2762
  124OSM    H2G13237   4.681   2.061   6.967  1.1178 -0.7244 -0.2381
  124OSM    C3F13238   4.687   1.850   7.061 -0.1271 -0.1650 -0.3546
  124OSM    H3F13239   4.797   1.843   7.074 -0.1387 -3.0613 -1.1566
  124OSM    H3G13240   4.660   1.746   7.033  1.7938 -0.3205 -1.7934
  124OSM    C4F13241   4.628   1.885   7.201 -0.5486 -0.6655  0.6964
  124OSM    H4F13242   4.517   1.887   7.209 -0.5686  1.9148  0.6025
  124OSM    H4G13243   4.666   1.988   7.219  2.8707 -1.1259 -2.6966
  124OSM    C5F13244   4.694   1.801   7.314 -0.4151  0.0157  0.4090
  124OSM    H5F13245   4.802   1.784   7.292 -0.9034 -1.4293 -1.1434
  124OSM    H5G13246   4.636   1.707   7.323 -0.3450  0.0335  1.0843
  124OSM    C6F13247   4.679   1.877   7.447 -0.3939 -0.2684  0.3754
  124OSM    H6F13248   4.571   1.866   7.472 -1.0561  3.2303 -0.3679
  124OSM    H6G13249   4.696   1.987   7.440 -2.5099  0.0435 -0.7176
  124OSM    C7F13250   4.774   1.835   7.554 -0.6827 -0.0033 -0.2665
  124OSM    H7F13251   4.866   1.895   7.535 -1.2945  1.5509  1.3455
  124OSM    H7G13252   4.790   1.725   7.558 -3.5457 -0.4784  0.8336
  124OSM    C8F13253   4.729   1.868   7.701 -0.0772 -0.1635 -0.2277
  124OSM    H8F13254   4.813   1.851   7.771 -0.4027 -0.2729  0.1412
  124OSM    H8G13255   4.644   1.803   7.732  0.0538  0.2691  1.0806
  124OSM    C9F13256   4.678   2.007   7.699  0.4971 -0.8791 -0.1160
  124OSM    H9F13257   4.585   2.012   7.641  1.4765 -3.2803 -2.0782
  124OSM   C10F13258   4.728   2.112   7.762 -0.5224  0.4389  0.5024
  124OSM   H10F13259   4.672   2.207   7.766  0.3540  0.9736  0.2384
  124OSM   C11F13260   4.840   2.111   7.854 -0.9756 -0.4781  0.5314
  124OSM   H11F13261   4.890   2.209   7.838 -0.8847 -0.6144 -0.0509
  124OSM   H11G13262   4.911   2.028   7.837  1.1365  1.3591 -0.2320
  124OSM   C12F13263   4.794   2.112   8.002 -0.3429 -0.5470  0.3290
  124OSM   H12F13264   4.709   2.183   8.013  0.5983  0.2737  3.0009
  124OSM   H12G13265   4.881   2.152   8.058 -1.0905  0.2371  0.9629
  124OSM   C13F13266   4.754   1.973   8.054  0.6611 -0.4565 -0.5312
  124OSM   H13F13267   4.850   1.919   8.070  2.7490  2.1976 -2.9952
  124OSM   H13G13268   4.702   1.917   7.974 -1.0537 -0.7798  0.7559
  124OSM   C14F13269   4.676   1.970   8.190 -0.5074 -0.1667  0.0413
  124OSM   H14F13270   4.679   1.869   8.235 -1.6257  0.4011  1.4456
  124OSM   H14G13271   4.571   2.003   8.173 -0.2893  1.9912  2.3182
  124OSM   C15F13272   4.734   2.062   8.302  0.1953  0.2620 -0.1908
  124OSM   H15F13273   4.755   2.166   8.268 -0.9515  0.5326 -0.1136
  124OSM   H15G13274   4.828   2.015   8.339 -0.8300 -0.4480  1.6924
  124OSM   C16F13275   4.636   2.078   8.416  1.5520 -0.4404 -0.1549
  124OSM   H16F13276   4.611   1.979   8.458  0.9164 -0.1016  0.2809
  124OSM   H16G13277   4.541   2.124   8.382  2.2170  1.4387  0.3517
  124OSM   C17F13278   4.690   2.168   8.533 -0.6291 -0.1871  0.1683
  124OSM   H17F13279   4.743   2.257   8.491  1.8256 -1.8017 -0.4256
  124OSM   H17G13280   4.778   2.122   8.584 -0.6463 -0.7555 -0.3005
  124OSM   C18F13281   4.576   2.212   8.622  0.2930  0.1964  0.6940
  124OSM   H18F13282   4.608   2.289   8.695 -2.4231  0.2709  1.9320
  124OSM   H18G13283   4.538   2.120   8.672  0.8376 -0.8319 -0.7138
  124OSM   H18H13284   4.496   2.248   8.554  0.3719  0.5553  0.7928
  125OSM      N13285   5.380   1.909   6.178 -0.0645  0.2092 -0.0045
  125OSM    C1513286   5.342   1.870   6.040  0.1937  0.0578  0.4774
  125OSM   H15A13287   5.429   1.866   5.977 -0.0908  1.5518 -0.0520
  125OSM   H15B13288   5.273   1.943   6.000 -1.4100 -0.9881  1.2214
  125OSM   H15C13289   5.308   1.767   6.038  0.4971 -0.0425  0.4638
  125OSM    C1413290   5.455   1.803   6.245  0.2080 -0.6630  0.1904
  125OSM   H14A13291   5.473   1.844   6.343 -0.7201  0.0594  0.0730
  125OSM   H14B13292   5.545   1.769   6.195  0.2261 -1.8443  0.9989
  125OSM   H14C13293   5.388   1.718   6.246 -0.0924 -0.5401 -2.1041
  125OSM    C1313294   5.463   2.030   6.173 -0.0657  0.1958 -0.1143
  125OSM   H13A13295   5.532   2.039   6.255 -1.3313 -1.2336  1.1899
  125OSM   H13B13296   5.405   2.120   6.183 -0.4444  0.5068 -3.6140
  125OSM   H13C13297   5.516   2.045   6.080 -0.5683  0.6495 -0.3308
  125OSM    C1213298   5.256   1.945   6.262 -1.1929  0.4249  0.3541
  125OSM   H12A13299   5.293   2.004   6.345 -1.0747  0.4812  0.2623
  125OSM   H12B13300   5.215   1.853   6.302 -1.4084  0.4141  0.1116
  125OSM    C1113301   5.141   2.021   6.193 -0.8725  0.3821  0.5263
  125OSM   H11A13302   5.065   2.021   6.274 -0.5335 -0.0774  0.8487
  125OSM   H11B13303   5.091   1.966   6.111 -0.9755 -0.3249  1.0519
  125OSM      P13304   5.179   2.284   6.233 -0.2853 -0.2123  0.0740
  125OSM    O1313305   5.289   2.379   6.198  0.1179 -0.1427 -0.8789
  125OSM    O1413306   5.048   2.343   6.219 -0.5385  0.5049  0.0659
  125OSM    O1113307   5.201   2.240   6.384  0.3504  0.1442  0.5328
  125OSM    O1213308   5.187   2.149   6.159 -0.1801 -0.3782  0.3014
  125OSM    C1S13309   5.225   2.339   6.488 -0.3600  0.4390  0.0353
  125OSM    H1S13310   5.133   2.398   6.508 -0.1368  0.6606  0.4161
  125OSM    H1T13311   5.310   2.400   6.452 -0.3320  1.2326  1.4102
  125OSM     NF13312   5.258   2.382   6.723 -0.2597 -0.2278  0.2453
  125OSM    HNF13313   5.345   2.429   6.738 -0.0696 -0.3224 -0.5316
  125OSM    C2S13314   5.272   2.278   6.625  0.2744  0.1833  0.6499
  125OSM    H2S13315   5.209   2.195   6.664 -3.6925  3.1330  1.2346
  125OSM    C3S13316   5.415   2.213   6.609  0.5829  0.1228  1.0374
  125OSM    H3S13317   5.493   2.286   6.579 -0.5841  1.3651  0.9657
  125OSM     O313318   5.412   2.107   6.506 -0.0642  0.2885  0.9675
  125OSM    HO313319   5.319   2.109   6.481  0.6978  0.1345 -2.4588
  125OSM    C4S13320   5.454   2.153   6.739 -0.0136  0.4178  0.1843
  125OSM    H4S13321   5.389   2.073   6.775 -2.6353  1.8462 -1.0822
  125OSM    C5S13322   5.555   2.197   6.814  0.0700  0.3136 -0.9871
  125OSM    H5S13323   5.614   2.287   6.790 -1.5759  2.0934  1.2451
  125OSM    C6S13324   5.589   2.135   6.948  0.8818 -0.2374 -0.1145
  125OSM    H6S13325   5.684   2.078   6.943  0.9066 -0.1601 -0.5567
  125OSM    H6T13326   5.506   2.078   6.995 -0.6298  2.1565  0.2983
  125OSM    C7S13327   5.614   2.248   7.048 -0.9542 -0.0620 -0.0735
  125OSM    H7S13328   5.525   2.314   7.040  0.4039  1.7738 -0.6655
  125OSM    H7T13329   5.697   2.315   7.018 -0.3824 -0.5748  0.3480
  125OSM    C8S13330   5.637   2.206   7.188 -0.7175 -0.5560  0.5087
  125OSM    H8S13331   5.722   2.134   7.190 -1.0634 -0.9720  0.3541
  125OSM    H8T13332   5.543   2.165   7.230 -0.7199 -0.5740  0.4860
  125OSM    C9S13333   5.661   2.331   7.282  0.1023 -0.7037 -0.0056
  125OSM    H9S13334   5.566   2.389   7.277 -0.4088 -1.2060  2.3543
  125OSM    H9T13335   5.748   2.392   7.251 -0.6134 -0.1969 -1.0732
  125OSM   C10S13336   5.690   2.294   7.431  0.1299  0.1907  0.3048
  125OSM   H10S13337   5.773   2.221   7.435 -0.4293 -0.4560  0.3471
  125OSM   H10T13338   5.599   2.241   7.466 -0.0696 -1.9464 -3.0077
  125OSM   C11S13339   5.723   2.414   7.510 -0.2454  0.4902  0.8875
  125OSM   H11S13340   5.642   2.489   7.500  0.3860  1.4202  2.3520
  125OSM   H11T13341   5.814   2.467   7.476 -1.1468  1.8885  0.5619
  125OSM   C12S13342   5.732   2.385   7.668  0.5197  0.6016 -0.4510
  125OSM   H12S13343   5.631   2.351   7.698 -0.2801  2.2940 -1.0606
  125OSM   H12T13344   5.742   2.484   7.719 -0.0935 -0.0259  0.9404
  125OSM   C13S13345   5.836   2.280   7.696 -0.2348 -0.0372  0.7685
  125OSM   H13S13346   5.938   2.313   7.667  0.1648 -0.9549  1.0848
  125OSM   H13T13347   5.815   2.179   7.655 -0.6894  0.1628  0.5062
  125OSM   C14S13348   5.855   2.255   7.848 -0.1909 -0.4340  0.6675
  125OSM   H14S13349   5.930   2.173   7.851  0.8855  0.4699 -0.2609
  125OSM   H14T13350   5.758   2.231   7.895 -0.3510  0.0472  0.5940
  125OSM   C15S13351   5.916   2.374   7.917  0.1724  0.3392  0.3815
  125OSM   H15S13352   5.840   2.455   7.906 -1.7108 -1.4298 -0.2462
  125OSM   H15T13353   6.013   2.397   7.867 -0.1543  3.0138  0.7989
  125OSM   C16S13354   5.960   2.355   8.062  0.5437  1.0452  0.4799
  125OSM   H16S13355   6.001   2.252   8.066  1.2879  1.2302 -1.2507
  125OSM   H16T13356   5.866   2.352   8.121 -1.3777  0.3784 -2.3872
  125OSM   C17S13357   6.056   2.454   8.121 -0.6796  0.1222 -0.3690
  125OSM   H17S13358   6.003   2.547   8.149 -0.6466 -0.0542  0.2983
  125OSM   H17T13359   6.137   2.464   8.046 -1.1154  0.6997 -0.7680
  125OSM   C18S13360   6.125   2.410   8.251 -0.6895  0.5219  0.7704
  125OSM   H18S13361   6.191   2.321   8.239 -2.1584 -0.3626 -1.3863
  125OSM   H18T13362   6.036   2.393   8.316 -0.4865 -0.8722  0.7156
  125OSM   H18U13363   6.186   2.496   8.285  3.6981 -0.6986 -3.0929
  125OSM    C1F13364   5.153   2.427   6.780  0.1505 -0.8823 -0.0894
  125OSM     OF13365   5.045   2.371   6.758 -0.0606 -0.3567  0.0641
  125OSM    C2F13366   5.164   2.550   6.864 -0.8079  0.4863 -0.1992
  125OSM    H2F13367   5.233   2.614   6.804  0.3577 -1.8757 -1.5100
  125OSM    H2G13368   5.191   2.515   6.966  0.9404  1.1854 -0.3827
  125OSM    C3F13369   5.032   2.625   6.882 -0.4311 -0.6020  0.1648
  125OSM    H3F13370   4.944   2.564   6.910  1.1532 -2.4557  1.4229
  125OSM    H3G13371   5.016   2.656   6.776  0.9797  0.7176  0.3053
  125OSM    C4F13372   5.033   2.743   6.988  0.5077  0.7460 -0.3552
  125OSM    H4F13373   4.938   2.799   6.975  0.0871  0.0805 -0.1767
  125OSM    H4G13374   5.111   2.812   6.947  2.9235 -2.5027 -1.6497
  125OSM    C5F13375   5.053   2.701   7.131 -0.4054 -0.6663 -0.2371
  125OSM    H5F13376   5.140   2.633   7.149  1.1984  1.3220 -0.1039
  125OSM    H5G13377   4.967   2.649   7.179  0.8649 -0.3878  2.5935
  125OSM    C6F13378   5.079   2.821   7.234 -0.2943 -0.3758  0.4267
  125OSM    H6F13379   5.009   2.905   7.214  0.2112  0.2429  1.2242
  125OSM    H6G13380   5.182   2.855   7.209  0.7110 -2.1433  1.9245
  125OSM    C7F13381   5.079   2.769   7.385  0.3176  0.3809 -0.5807
  125OSM    H7F13382   5.159   2.692   7.378  1.0636  1.2753 -2.9827
  125OSM    H7G13383   4.984   2.713   7.395 -1.2867  2.6310 -2.0658
  125OSM    C8F13384   5.089   2.870   7.498  0.8627 -0.1692  0.9443
  125OSM    H8F13385   5.073   2.822   7.597 -0.4872 -0.3643  0.6467
  125OSM    H8G13386   5.001   2.937   7.486  3.5738  3.4838 -0.4211
  125OSM    C9F13387   5.227   2.939   7.499 -0.6918  0.1837  0.0426
  125OSM    H9F13388   5.258   2.965   7.397  1.2183  1.3211  0.8648
  125OSM   C10F13389   5.311   2.951   7.604  0.3931 -0.0872 -0.1399
  125OSM   H10F13390   5.404   3.007   7.582  0.5286  0.3254  1.3696
  125OSM   C11F13391   5.279   2.917   7.746  0.5178  0.1636 -0.0919
  125OSM   H11F13392   5.350   2.838   7.779 -0.1025 -0.7912 -0.9749
  125OSM   H11G13393   5.180   2.873   7.771  0.8300 -0.5785 -0.1181
  125OSM   C12F13394   5.289   3.042   7.836 -0.3680  0.6422  0.0064
  125OSM   H12F13395   5.202   3.107   7.813 -1.7079 -1.0193  0.1673
  125OSM   H12G13396   5.378   3.094   7.796 -0.2243 -0.2404 -0.8530
  125OSM   C13F13397   5.293   3.006   7.980 -0.0183  0.2278 -0.2856
  125OSM   H13F13398   5.381   2.944   8.009  0.9230  1.7478  0.2835
  125OSM   H13G13399   5.199   2.958   8.015 -0.8768 -0.5787 -3.3548
  125OSM   C14F13400   5.302   3.122   8.072  0.0223  0.0868  0.0041
  125OSM   H14F13401   5.207   3.177   8.059 -0.9258 -1.6968 -1.0882
  125OSM   H14G13402   5.391   3.185   8.053  0.4622 -0.4564  0.2252
  125OSM   C15F13403   5.331   3.073   8.215 -0.6233 -0.1430  0.2420
  125OSM   H15F13404   5.437   3.039   8.219 -0.4784  0.3550  1.0674
  125OSM   H15G13405   5.257   2.997   8.246 -1.3582  1.1470  1.8466
  125OSM   C16F13406   5.310   3.186   8.315  0.3964 -0.5031 -0.4064
  125OSM   H16F13407   5.353   3.279   8.271 -1.5011  0.0429 -1.1964
  125OSM   H16G13408   5.365   3.163   8.409 -0.2480 -2.3428 -0.4488
  125OSM   C17F13409   5.164   3.215   8.338 -0.3423  0.4418  0.1720
  125OSM   H17F13410   5.110   3.127   8.380 -0.7374  0.6370  0.0861
  125OSM   H17G13411   5.119   3.238   8.239 -1.2372  0.7758  0.6382
  125OSM   C18F13412   5.144   3.338   8.422 -0.2909 -0.5660  0.7265
  125OSM   H18F13413   5.207   3.423   8.391 -0.8304 -1.1612 -2.3491
  125OSM   H18G13414   5.168   3.311   8.527 -0.0462 -1.5036  0.4457
  125OSM   H18H13415   5.037   3.367   8.411 -0.1361 -0.7937 -2.2313
  126OSM      N13416   3.160   2.375   6.371  0.0668 -0.9600 -0.0185
  126OSM    C1513417   3.042   2.413   6.280  0.0958 -0.2112 -0.4182
  126OSM   H15A13418   3.017   2.328   6.218 -0.3398  0.4938 -1.2194
  126OSM   H15B13419   3.073   2.496   6.218  1.0096  0.6035  1.0654
  126OSM   H15C13420   2.956   2.437   6.341 -1.0039  0.7845 -2.2668
  126OSM    C1413421   3.123   2.247   6.442 -0.2577 -0.3109  0.7153
  126OSM   H14A13422   3.033   2.256   6.502  0.5325 -2.5241  2.3753
  126OSM   H14B13423   3.197   2.221   6.517  1.4209  0.1943 -0.7105
  126OSM   H14C13424   3.088   2.173   6.373  0.4933  0.0240 -0.0317
  126OSM    C1313425   3.278   2.358   6.284 -0.9879  0.2236 -0.7094
  126OSM   H13A13426   3.363   2.345   6.350 -0.8418  5.9076  0.7402
  126OSM   H13B13427   3.309   2.449   6.236 -0.4240  1.0864  1.1809
  126OSM   H13C13428   3.262   2.289   6.203  0.3694  1.4274 -2.0712
  126OSM    C1213429   3.183   2.479   6.478  0.0834 -0.3352  0.6590
  126OSM   H12A13430   3.088   2.488   6.528  0.2915 -3.1949  1.8090
  126OSM   H12B13431   3.207   2.574   6.433 -1.5819 -0.2921 -0.1881
  126OSM    C1113432   3.277   2.459   6.602 -0.5665  0.3494  0.7150
  126OSM   H11A13433   3.232   2.497   6.696 -0.2022  1.2904  0.5206
  126OSM   H11B13434   3.362   2.531   6.594 -0.1066 -0.2787 -0.2089
  126OSM      P13435   3.462   2.268   6.591  0.0051 -0.1191 -0.0787
  126OSM    O1313436   3.463   2.123   6.596  0.0622  0.2552  0.0111
  126OSM    O1413437   3.509   2.307   6.459  0.0651 -0.3203 -0.2172
  126OSM    O1113438   3.565   2.323   6.698 -0.4387  0.3592 -0.0369
  126OSM    O1213439   3.325   2.324   6.631  0.0229 -0.1924 -0.0288
  126OSM    C1S13440   3.536   2.326   6.843 -0.2798  0.6208  1.1331
  126OSM    H1S13441   3.432   2.354   6.869 -0.8211  0.1437 -0.3801
  126OSM    H1T13442   3.604   2.395   6.897  1.1699 -0.3703  0.6242
  126OSM     NF13443   3.523   2.173   7.042  0.3071 -0.4210  0.4218
  126OSM    HNF13444   3.591   2.158   7.114  2.3783  0.9207 -1.1568
  126OSM    C2S13445   3.569   2.182   6.907  0.4874 -0.2297 -0.0077
  126OSM    H2S13446   3.512   2.104   6.851 -0.1787  1.1154 -1.2695
  126OSM    C3S13447   3.723   2.154   6.888  0.3566 -0.0249 -0.3876
  126OSM    H3S13448   3.769   2.240   6.941 -0.3220  0.0855  0.0371
  126OSM     O313449   3.770   2.157   6.757 -0.0893  0.1899  1.0921
  126OSM    HO313450   3.689   2.177   6.709  1.4359  0.6769 -1.4389
  126OSM    C4S13451   3.760   2.029   6.955  0.2821  0.2183  1.1988
  126OSM    H4S13452   3.699   1.940   6.932  0.2531  0.6337 -0.4793
  126OSM    C5S13453   3.871   2.016   7.036 -0.4610  0.2256  0.1080
  126OSM    H5S13454   3.937   2.102   7.054 -0.8784 -0.0069  3.2186
  126OSM    C6S13455   3.913   1.885   7.098  0.4814  0.3670  1.0201
  126OSM    H6S13456   4.002   1.853   7.040  0.0109 -0.3387  0.6750
  126OSM    H6T13457   3.838   1.804   7.089 -1.2889  1.8534  1.6740
  126OSM    C7S13458   3.943   1.894   7.249  0.1665 -0.0003 -0.0749
  126OSM    H7S13459   3.848   1.872   7.303 -0.0696 -1.0484 -0.8745
  126OSM    H7T13460   3.981   1.993   7.283  0.1653  0.6056 -1.7113
  126OSM    C8S13461   4.062   1.801   7.286  0.5059 -0.5504  0.0026
  126OSM    H8S13462   4.155   1.842   7.240  0.4931  0.4166  0.7882
  126OSM    H8T13463   4.058   1.699   7.242  1.4309 -0.5918 -0.0171
  126OSM    C9S13464   4.084   1.792   7.439 -0.6184 -0.0182 -1.3231
  126OSM    H9S13465   4.030   1.702   7.479 -2.4154  1.8876  0.8578
  126OSM    H9T13466   4.044   1.878   7.497 -0.2879 -2.4139  2.8647
  126OSM   C10S13467   4.233   1.785   7.475 -0.2613  0.3634  0.1219
  126OSM   H10S13468   4.299   1.846   7.409  0.9507 -1.1297 -0.1070
  126OSM   H10T13469   4.263   1.679   7.462 -0.5138  0.4589 -1.5485
  126OSM   C11S13470   4.259   1.823   7.621 -0.3733  0.1970 -0.9100
  126OSM   H11S13471   4.214   1.920   7.652  1.7230  0.7871  0.5423
  126OSM   H11T13472   4.370   1.829   7.631 -0.3993  1.0866 -1.0518
  126OSM   C12S13473   4.226   1.709   7.728 -0.2525 -0.4295 -0.1075
  126OSM   H12S13474   4.198   1.609   7.690 -1.3878 -0.5215  0.9226
  126OSM   H12T13475   4.126   1.738   7.768  1.5352  1.8643  3.1628
  126OSM   C13S13476   4.313   1.706   7.850 -0.3198  0.2220  0.2419
  126OSM   H13S13477   4.320   1.807   7.896  2.1517 -0.2514  1.0424
  126OSM   H13T13478   4.409   1.669   7.809 -0.6747  0.6263 -1.0279
  126OSM   C14S13479   4.263   1.608   7.951 -0.3981  1.1863  0.2595
  126OSM   H14S13480   4.237   1.521   7.887 -1.0508  1.8837 -0.4595
  126OSM   H14T13481   4.169   1.642   8.000 -0.5330  0.6065  0.3991
  126OSM   C15S13482   4.376   1.547   8.043  0.1396  0.3588  0.7925
  126OSM   H15S13483   4.451   1.498   7.978 -0.5359  1.5586 -0.9826
  126OSM   H15T13484   4.330   1.468   8.106 -0.6775 -0.7675 -1.1547
  126OSM   C16S13485   4.437   1.643   8.142  0.1770 -0.9927 -0.1669
  126OSM   H16S13486   4.362   1.666   8.221  1.0138 -2.2579  1.0710
  126OSM   H16T13487   4.471   1.727   8.079  0.1943 -0.3639  0.6708
  126OSM   C17S13488   4.568   1.594   8.202 -0.6517  0.3723 -1.0517
  126OSM   H17S13489   4.603   1.659   8.286  0.7310  1.4443 -2.3842
  126OSM   H17T13490   4.643   1.595   8.120  0.0372 -1.3442 -0.4709
  126OSM   C18S13491   4.577   1.455   8.271  1.0654  0.2601 -0.0270
  126OSM   H18S13492   4.533   1.377   8.204  1.2223  0.8587 -0.8354
  126OSM   H18T13493   4.510   1.455   8.360  1.4024  0.9813  0.2282
  126OSM   H18U13494   4.682   1.436   8.301  0.9424 -1.2667 -0.4441
  126OSM    C1F13495   3.392   2.180   7.075  0.2940 -0.1099 -0.2135
  126OSM     OF13496   3.308   2.148   6.989  0.0145  0.1457 -0.3601
  126OSM    C2F13497   3.357   2.235   7.209 -0.5642 -0.4955 -0.5981
  126OSM    H2F13498   3.371   2.345   7.220  0.0689 -0.7840  2.7226
  126OSM    H2G13499   3.413   2.185   7.291 -1.1440  0.5524  0.4864
  126OSM    C3F13500   3.215   2.212   7.253 -0.0195  0.0568  0.6132
  126OSM    H3F13501   3.191   2.104   7.263 -1.5431  0.1878 -1.1175
  126OSM    H3G13502   3.142   2.252   7.180  0.0387 -0.5024  0.2446
  126OSM    C4F13503   3.179   2.284   7.389  0.6483  0.2898 -0.2813
  126OSM    H4F13504   3.070   2.300   7.394  0.5561 -0.1278 -0.8311
  126OSM    H4G13505   3.226   2.385   7.387  2.5989 -0.4938 -3.8201
  126OSM    C5F13506   3.234   2.213   7.514  0.4032  0.7466  0.0484
  126OSM    H5F13507   3.343   2.197   7.496  1.6565  3.3792  3.8787
  126OSM    H5G13508   3.173   2.121   7.530  2.1593 -0.9718 -2.4221
  126OSM    C6F13509   3.215   2.302   7.641  0.8782  0.3249 -0.1169
  126OSM    H6F13510   3.112   2.341   7.646  0.3579 -1.0395  0.3484
  126OSM    H6G13511   3.280   2.393   7.641  3.2328 -1.2584  0.0209
  126OSM    C7F13512   3.247   2.229   7.769 -0.7307 -0.8127 -0.6916
  126OSM    H7F13513   3.348   2.184   7.770 -0.0688  0.4143  2.7737
  126OSM    H7G13514   3.168   2.152   7.784 -1.2784 -0.0635  0.4032
  126OSM    C8F13515   3.251   2.323   7.897 -0.3444 -0.1356 -0.0563
  126OSM    H8F13516   3.343   2.385   7.890 -0.7543  0.4823  0.0174
  126OSM    H8G13517   3.261   2.260   7.988  0.6437 -2.4777 -1.6527
  126OSM    C9F13518   3.130   2.398   7.928  0.6464 -0.1299  0.5145
  126OSM    H9F13519   3.033   2.353   7.902  0.1739 -0.2765  2.3463
  126OSM   C10F13520   3.124   2.513   7.996 -0.4143 -0.1872  0.3156
  126OSM   H10F13521   3.025   2.560   8.011 -0.9466 -1.9910  3.6558
  126OSM   C11F13522   3.247   2.582   8.050 -0.2827  0.4261 -0.3720
  126OSM   H11F13523   3.228   2.690   8.034  1.4665  0.8927  0.4330
  126OSM   H11G13524   3.339   2.563   7.991 -1.3364 -1.3936 -1.5499
  126OSM   C12F13525   3.283   2.553   8.199 -0.5357 -0.0765 -0.1499
  126OSM   H12F13526   3.207   2.575   8.277  0.5928  1.0010  0.6722
  126OSM   H12G13527   3.368   2.620   8.222  0.8161 -1.6918 -0.2588
  126OSM   C13F13528   3.337   2.411   8.226 -0.6920  0.0465 -0.1108
  126OSM   H13F13529   3.424   2.404   8.158 -0.2198  0.5052  0.4423
  126OSM   H13G13530   3.263   2.331   8.203  0.2438 -0.6126 -0.9416
  126OSM   C14F13531   3.398   2.382   8.366  0.8919  0.3682  0.6384
  126OSM   H14F13532   3.324   2.374   8.448  0.2589  0.0090  0.0479
  126OSM   H14G13533   3.469   2.461   8.397  1.4868 -0.3789  1.2216
  126OSM   C15F13534   3.454   2.234   8.376 -0.1024 -0.0692 -0.7106
  126OSM   H15F13535   3.384   2.167   8.321 -1.6654 -0.0278  1.1367
  126OSM   H15G13536   3.441   2.207   8.482  0.8314  0.8307 -0.3453
  126OSM   C16F13537   3.600   2.223   8.333 -0.6689  0.3226  0.3273
  126OSM   H16F13538   3.657   2.140   8.379  1.2241  0.6554 -1.2775
  126OSM   H16G13539   3.667   2.306   8.365  1.9668 -1.2388 -0.8377
  126OSM   C17F13540   3.634   2.208   8.183  0.0555 -0.1853  0.2799
  126OSM   H17F13541   3.594   2.295   8.126  0.4472 -0.6251 -0.7008
  126OSM   H17G13542   3.565   2.130   8.145 -0.6221  0.5567 -0.0595
  126OSM   C18F13543   3.785   2.191   8.149 -0.0116  0.4970  0.4702
  126OSM   H18F13544   3.820   2.104   8.208 -2.8840 -0.1224  1.4534
  126OSM   H18G13545   3.850   2.274   8.185  0.6981 -0.5684  1.7451
  126OSM   H18H13546   3.795   2.180   8.039 -2.1526 -0.3758  0.3134
  127OSM      N13547   5.732   0.088   5.829  0.2083 -0.0157  0.5435
  127OSM    C1513548   5.674  -0.020   5.744  0.1546  0.6789  0.6120
  127OSM   H15A13549   5.646   0.021   5.648 -0.2425 -0.4423  0.2343
  127OSM   H15B13550   5.589  -0.063   5.794 -2.0959  2.9236 -0.9961
  127OSM   H15C13551   5.742  -0.102   5.727 -0.1636  0.7555 -1.2273
  127OSM    C1413552   5.800   0.188   5.749 -0.0336  0.1557  0.9869
  127OSM   H14A13553   5.757   0.213   5.654  1.9645  1.4650  0.3506
  127OSM   H14B13554   5.894   0.144   5.716  0.7220  2.2082  0.2675
  127OSM   H14C13555   5.819   0.279   5.803  3.4157  0.0665  0.1722
  127OSM    C1313556   5.630   0.171   5.899  0.2240 -0.5967  0.3062
  127OSM   H13A13557   5.577   0.229   5.824  0.8749 -0.4471 -0.0440
  127OSM   H13B13558   5.673   0.236   5.974 -1.4387  1.1862 -0.1787
  127OSM   H13C13559   5.552   0.116   5.948 -1.0288  1.6227  0.9629
  127OSM    C1213560   5.824   0.033   5.935 -0.4638 -0.4723 -0.1489
  127OSM   H12A13561   5.867   0.111   5.995 -0.5450 -0.6330  0.1202
  127OSM   H12B13562   5.901  -0.020   5.881  0.4277 -0.2828  0.9139
  127OSM    C1113563   5.770  -0.058   6.043 -0.6258 -0.0635 -0.7993
  127OSM   H11A13564   5.865  -0.092   6.091  0.0263  1.2693 -1.0916
  127OSM   H11B13565   5.727  -0.149   5.996  1.6492 -0.9024 -1.3854
  127OSM      P13566   5.694   0.072   6.268 -0.1940 -0.2387  0.3299
  127OSM    O1313567   5.836   0.087   6.299  0.1589  0.3807  0.9584
  127OSM    O1413568   5.602   0.190   6.268  0.3489  0.2280  0.1313
  127OSM    O1113569   5.639  -0.040   6.365 -0.5003 -0.0951  0.0788
  127OSM    O1213570   5.673   0.006   6.129  0.4092 -0.1215  0.3337
  127OSM    C1S13571   5.688  -0.052   6.497  0.1813  0.2710 -0.0592
  127OSM    H1S13572   5.754   0.032   6.524  0.8919  0.3367 -1.8295
  127OSM    H1T13573   5.751  -0.143   6.488 -0.4431 -0.1053 -0.8245
  127OSM     NF13574   5.610  -0.066   6.733 -0.0950 -0.9734  0.7865
  127OSM    HNF13575   5.620  -0.159   6.768 -0.2680 -1.6804 -0.9546
  127OSM    C2S13576   5.562  -0.057   6.591  0.2917  0.6611  0.2757
  127OSM    H2S13577   5.498   0.033   6.582  0.4802  0.8428  0.7020
  127OSM    C3S13578   5.470  -0.184   6.550  0.1130  0.2638  0.4701
  127OSM    H3S13579   5.532  -0.275   6.551 -0.5866 -0.2192  1.0295
  127OSM     O313580   5.405  -0.164   6.425  0.0074 -0.4973  0.0822
  127OSM    HO313581   5.434  -0.078   6.396  2.2383 -0.8316  1.1277
  127OSM    C4S13582   5.349  -0.213   6.644 -0.1264 -0.4678  0.2017
  127OSM    H4S13583   5.276  -0.132   6.654 -0.6682 -1.0625  1.1879
  127OSM    C5S13584   5.314  -0.333   6.691 -0.5492 -0.2938 -0.4677
  127OSM    H5S13585   5.383  -0.417   6.675  0.5507  0.8242 -1.9518
  127OSM    C6S13586   5.194  -0.359   6.769  0.5515  0.7664  0.1352
  127OSM    H6S13587   5.208  -0.417   6.863  0.8542 -0.9656 -0.9579
  127OSM    H6T13588   5.133  -0.423   6.703  0.1557 -1.0611  2.1547
  127OSM    C7S13589   5.101  -0.239   6.814  0.6152  0.3495  0.0652
  127OSM    H7S13590   5.034  -0.208   6.731 -1.1338  1.0275  1.6301
  127OSM    H7T13591   5.161  -0.149   6.838 -0.0439  0.2941  2.1566
  127OSM    C8S13592   5.009  -0.270   6.929 -0.5244  0.5652  0.1581
  127OSM    H8S13593   4.974  -0.373   6.906 -2.5569  0.6615  2.4098
  127OSM    H8T13594   4.918  -0.207   6.926  0.5516  2.3494  2.5172
  127OSM    C9S13595   5.066  -0.254   7.073  0.5439  0.7733  0.4062
  127OSM    H9S13596   5.084  -0.145   7.085  1.5914  0.6564 -0.0178
  127OSM    H9T13597   5.166  -0.301   7.079 -0.2704 -1.1896 -0.6624
  127OSM   C10S13598   4.978  -0.291   7.194  0.5924  0.6685 -0.2102
  127OSM   H10S13599   4.979  -0.402   7.202  3.0707  0.6031 -0.8119
  127OSM   H10T13600   4.874  -0.259   7.172 -0.4785 -3.0271 -1.2293
  127OSM   C11S13601   5.019  -0.249   7.338 -0.9052 -0.0663  0.2542
  127OSM   H11S13602   5.085  -0.160   7.343  0.3637 -1.0249  1.1179
  127OSM   H11T13603   5.071  -0.333   7.387 -1.0311 -1.1309 -1.3751
  127OSM   C12S13604   4.903  -0.219   7.430 -0.6031 -0.4179  0.5903
  127OSM   H12S13605   4.843  -0.312   7.433  0.7072 -1.2761  2.8376
  127OSM   H12T13606   4.857  -0.127   7.389  0.5577 -0.5037 -1.0122
  127OSM   C13S13607   4.943  -0.199   7.575 -0.8011  0.5643  0.0248
  127OSM   H13S13608   5.010  -0.110   7.581  0.8499 -0.7095  2.7631
  127OSM   H13T13609   4.990  -0.294   7.609 -0.8161  0.7626  0.6077
  127OSM   C14S13610   4.821  -0.167   7.660  0.0286  0.6599 -0.5961
  127OSM   H14S13611   4.757  -0.257   7.671 -0.8860  1.2705 -0.7479
  127OSM   H14T13612   4.762  -0.095   7.599 -2.7592 -0.9055  0.0704
  127OSM   C15S13613   4.854  -0.106   7.802 -1.0318 -0.5834 -0.2665
  127OSM   H15S13614   4.914  -0.016   7.778 -0.4300 -0.5259  1.3516
  127OSM   H15T13615   4.916  -0.170   7.868  1.2311  1.4767 -0.2481
  127OSM   C16S13616   4.727  -0.077   7.879  0.0806 -0.1287 -0.5185
  127OSM   H16S13617   4.692  -0.176   7.914  1.1239  0.0503  1.1734
  127OSM   H16T13618   4.655  -0.035   7.805  0.5925  0.5330 -0.6505
  127OSM   C17S13619   4.746   0.025   7.993 -0.3087  0.9380 -0.8592
  127OSM   H17S13620   4.648   0.027   8.047  0.1715  1.8526  0.0321
  127OSM   H17T13621   4.765   0.125   7.949 -0.6249  0.6075 -1.7721
  127OSM   C18S13622   4.863  -0.011   8.096  0.5438  0.1655 -0.2146
  127OSM   H18S13623   4.863   0.060   8.182 -0.4973 -0.4296  0.2968
  127OSM   H18T13624   4.960  -0.002   8.043 -0.6962  0.2507 -2.5590
  127OSM   H18U13625   4.843  -0.110   8.142 -3.0601 -0.5180 -2.8651
  127OSM    C1F13626   5.678   0.043   6.778 -0.7230  0.2579  1.1057
  127OSM     OF13627   5.669   0.154   6.727 -0.3512  0.4276 -0.0755
  127OSM    C2F13628   5.760   0.036   6.901 -0.4647 -0.0634 -0.0633
  127OSM    H2F13629   5.858  -0.007   6.873  0.5363  1.6251  0.6927
  127OSM    H2G13630   5.705  -0.030   6.972  0.1824  0.9011  1.3813
  127OSM    C3F13631   5.770   0.171   6.970 -0.2613 -0.1325 -0.0155
  127OSM    H3F13632   5.671   0.219   6.990  0.0594  1.1840 -1.3876
  127OSM    H3G13633   5.821   0.239   6.899  0.3277  0.1417  0.6644
  127OSM    C4F13634   5.845   0.181   7.108  0.0146 -0.4785 -0.5201
  127OSM    H4F13635   5.951   0.150   7.101  0.3436  0.3791  0.3841
  127OSM    H4G13636   5.807   0.109   7.183 -1.5425 -0.1035 -0.9049
  127OSM    C5F13637   5.837   0.320   7.172  0.4825 -0.4949 -0.5346
  127OSM    H5F13638   5.728   0.345   7.170  0.7582  0.7454 -0.8168
  127OSM    H5G13639   5.898   0.390   7.111  0.4678  1.8115  1.9228
  127OSM    C6F13640   5.894   0.320   7.318  0.3177  0.4718  0.3290
  127OSM    H6F13641   5.993   0.270   7.319 -0.6880 -1.8486 -2.7137
  127OSM    H6G13642   5.814   0.266   7.374  0.0326  1.9863  1.4560
  127OSM    C7F13643   5.930   0.456   7.367  0.1853  0.0149 -0.3313
  127OSM    H7F13644   5.841   0.521   7.350 -0.0285 -0.3790 -0.7354
  127OSM    H7G13645   6.015   0.495   7.307  0.7413 -3.3167 -1.8998
  127OSM    C8F13646   5.966   0.456   7.515  0.1307 -0.2947  0.1222
  127OSM    H8F13647   6.042   0.377   7.530  0.0038 -0.9643 -2.4068
  127OSM    H8G13648   5.885   0.402   7.569 -0.2838  0.3022  0.1196
  127OSM    C9F13649   6.008   0.595   7.555 -0.0688 -0.3352  0.0567
  127OSM    H9F13650   6.113   0.623   7.533  0.0033  1.7023  2.4686
  127OSM   C10F13651   5.923   0.682   7.609  0.0867  0.3522  0.6424
  127OSM   H10F13652   5.948   0.788   7.624  0.1287  0.7118 -1.6691
  127OSM   C11F13653   5.773   0.656   7.640 -0.3573 -0.2830 -0.0152
  127OSM   H11F13654   5.746   0.550   7.618  0.1790 -0.5957  0.8052
  127OSM   H11G13655   5.701   0.715   7.580  0.0853 -2.4631 -2.9260
  127OSM   C12F13656   5.744   0.693   7.785  0.4082 -0.3639 -0.4833
  127OSM   H12F13657   5.633   0.702   7.776  0.3132  0.1633  0.9199
  127OSM   H12G13658   5.776   0.797   7.807 -2.6022  0.2141  1.8647
  127OSM   C13F13659   5.795   0.586   7.882 -0.1854 -0.2311 -0.3718
  127OSM   H13F13660   5.905   0.601   7.896 -0.2556  0.6629 -0.6838
  127OSM   H13G13661   5.773   0.489   7.833 -0.1752 -0.0512 -0.7399
  127OSM   C14F13662   5.720   0.591   8.020 -0.0870 -0.1869 -0.0793
  127OSM   H14F13663   5.735   0.691   8.065  0.3054  0.6886 -2.0675
  127OSM   H14G13664   5.770   0.509   8.076 -0.9065 -0.2846  0.5436
  127OSM   C15F13665   5.569   0.574   8.012 -0.1038  0.5591 -0.7579
  127OSM   H15F13666   5.562   0.492   7.938  0.4406 -2.0780  1.8938
  127OSM   H15G13667   5.528   0.662   7.958 -1.2782  1.6526  1.7156
  127OSM   C16F13668   5.499   0.544   8.136  1.2867  0.0872 -0.3699
  127OSM   H16F13669   5.394   0.525   8.107  0.1169  1.5783  2.4508
  127OSM   H16G13670   5.491   0.635   8.199 -2.1626 -0.7912  0.6915
  127OSM   C17F13671   5.549   0.425   8.222  0.2581  0.3535 -0.2212
  127OSM   H17F13672   5.487   0.420   8.314 -0.9725  0.1756 -1.0384
  127OSM   H17G13673   5.656   0.438   8.249  0.4497 -0.8571 -0.3215
  127OSM   C18F13674   5.556   0.290   8.143  0.9252 -0.2761 -0.3132
  127OSM   H18F13675   5.588   0.313   8.039 -4.2053  1.5278 -1.8085
  127OSM   H18G13676   5.451   0.253   8.136  0.7261  0.1503  0.3697
  127OSM   H18H13677   5.609   0.206   8.193  0.3750 -0.1681  0.4565
  128OSM      N13678   6.776   4.420   5.980  0.6178  0.5167 -0.0491
  128OSM    C1513679   6.758   4.324   6.091  0.1503 -0.6164 -0.4928
  128OSM   H15A13680   6.851   4.285   6.130 -0.2302 -0.9518  0.0957
  128OSM   H15B13681   6.688   4.243   6.077 -1.8363  1.2261 -1.8551
  128OSM   H15C13682   6.720   4.378   6.176 -1.2476  1.5914 -2.4017
  128OSM    C1413683   6.645   4.473   5.927  0.0672 -0.1041 -0.2385
  128OSM   H14A13684   6.657   4.519   5.830  0.5048  0.3776  0.0432
  128OSM   H14B13685   6.594   4.550   5.982  1.0502  1.5281 -1.5389
  128OSM   H14C13686   6.583   4.386   5.908  0.5279 -0.7254  0.9988
  128OSM    C1313687   6.850   4.546   6.022 -0.2858  0.2763 -0.0491
  128OSM   H13A13688   6.850   4.618   5.941 -1.9942  1.1483  0.6664
  128OSM   H13B13689   6.949   4.514   6.052  0.1778  0.2534 -1.5129
  128OSM   H13C13690   6.803   4.597   6.105  0.7265  0.9625  0.1213
  128OSM    C1213691   6.845   4.349   5.868 -0.1153  1.1398 -0.3278
  128OSM   H12A13692   6.855   4.419   5.786  1.6956  0.6680 -0.5491
  128OSM   H12B13693   6.772   4.283   5.825  0.8355  1.2197 -2.1708
  128OSM    C1113694   6.973   4.278   5.899 -0.8541  0.1359 -0.0816
  128OSM   H11A13695   7.018   4.259   5.799  0.3048  0.2178  0.3998
  128OSM   H11B13696   6.947   4.183   5.950  0.4454 -0.0910  0.2091
  128OSM      P13697   7.166   4.313   6.086 -0.1786  0.2287  0.0279
  128OSM    O1313698   7.274   4.223   6.038  0.5106  0.2847  0.7886
  128OSM    O1413699   7.200   4.436   6.153  0.5553 -0.6471  0.0844
  128OSM    O1113700   7.066   4.226   6.173 -0.0659 -0.0579 -0.0493
  128OSM    O1213701   7.067   4.361   5.969 -0.4671  0.0769  0.4343
  128OSM    C1S13702   7.070   4.229   6.320 -0.7865  0.4069  0.5188
  128OSM    H1S13703   7.030   4.325   6.360  0.1703  0.5072  1.2906
  128OSM    H1T13704   7.177   4.233   6.352 -0.8706  1.1312  0.7300
  128OSM     NF13705   7.039   4.136   6.538 -0.5652 -0.9686  0.2881
  128OSM    HNF13706   7.108   4.068   6.563 -1.3321 -2.9645 -2.5250
  128OSM    C2S13707   7.000   4.117   6.400 -0.3961 -0.0813 -0.1806
  128OSM    H2S13708   6.890   4.117   6.390 -0.4009  0.3488 -0.1140
  128OSM    C3S13709   7.060   3.984   6.335  0.1222 -0.0263  0.3099
  128OSM    H3S13710   7.171   3.983   6.329  0.0784 -1.5087 -1.2215
  128OSM     O313711   7.012   3.966   6.199  0.1779  0.0257 -0.8169
  128OSM    HO313712   7.007   4.054   6.163 -0.4824 -0.0258 -0.8552
  128OSM    C4S13713   7.019   3.863   6.425  0.7829 -0.6609  0.0058
  128OSM    H4S13714   7.082   3.855   6.515  1.5150  0.5952 -0.3736
  128OSM    C5S13715   6.919   3.778   6.399  0.5001  0.5651  0.3181
  128OSM    H5S13716   6.858   3.793   6.309  0.4555 -1.7159 -0.0829
  128OSM    C6S13717   6.874   3.657   6.476  0.8851 -0.2285 -0.4325
  128OSM    H6S13718   6.873   3.570   6.408 -3.6105 -1.3038  0.6399
  128OSM    H6T13719   6.768   3.671   6.507  0.9672  0.5334 -0.4635
  128OSM    C7S13720   6.951   3.619   6.609  0.4183  0.4538  0.4959
  128OSM    H7S13721   6.937   3.707   6.676 -0.9665 -0.2058  1.1066
  128OSM    H7T13722   7.058   3.607   6.581  0.2481  0.8481 -0.3597
  128OSM    C8S13723   6.915   3.479   6.669 -0.0199  0.2373  0.0194
  128OSM    H8S13724   6.914   3.401   6.590 -1.8084  0.0448  0.1852
  128OSM    H8T13725   6.808   3.477   6.698  0.1123 -1.7100  0.5146
  128OSM    C9S13726   6.995   3.442   6.801 -0.5296  0.0939  0.0739
  128OSM    H9S13727   7.102   3.441   6.772 -0.9311  1.3990 -1.5806
  128OSM    H9T13728   6.966   3.341   6.837 -1.2888  0.4990  0.6446
  128OSM   C10S13729   6.962   3.542   6.922 -0.3318  0.0234  0.1470
  128OSM   H10S13730   6.853   3.557   6.938 -0.1699 -0.6801  2.1584
  128OSM   H10T13731   7.009   3.640   6.897 -0.1025  0.0451  0.6546
  128OSM   C11S13732   7.035   3.502   7.051 -0.0382  0.1371  0.3782
  128OSM   H11S13733   7.140   3.473   7.032 -0.7085 -3.4805  1.4777
  128OSM   H11T13734   6.988   3.412   7.095 -1.8414  0.3272 -1.0452
  128OSM   C12S13735   7.032   3.617   7.148  0.8749 -0.4211  0.3600
  128OSM   H12S13736   6.928   3.653   7.164  1.0990  1.4099 -1.7534
  128OSM   H12T13737   7.081   3.702   7.095  0.6602 -1.0758 -0.9027
  128OSM   C13S13738   7.109   3.599   7.277  0.0454  0.0181 -0.4625
  128OSM   H13S13739   7.136   3.701   7.310 -0.3553  0.1609 -0.5703
  128OSM   H13T13740   7.210   3.562   7.252  0.9429  3.2912 -2.2169
  128OSM   C14S13741   7.043   3.532   7.398  0.0147  0.0564 -0.4386
  128OSM   H14S13742   7.007   3.428   7.380  1.4168 -0.2992 -1.3036
  128OSM   H14T13743   6.945   3.581   7.418 -0.0481  0.0668 -0.7744
  128OSM   C15S13744   7.117   3.510   7.533  0.2161  0.0913  0.3524
  128OSM   H15S13745   7.150   3.611   7.564  0.7644  1.0848 -3.0166
  128OSM   H15T13746   7.211   3.461   7.498 -0.3213  1.2697 -3.1889
  128OSM   C16S13747   7.037   3.440   7.636 -0.0992 -0.6908  0.6508
  128OSM   H16S13748   7.014   3.338   7.600  2.1614 -1.6246  1.6356
  128OSM   H16T13749   6.950   3.500   7.671  0.0196 -1.2320  1.9563
  128OSM   C17S13750   7.112   3.422   7.765  0.4391  0.9919  0.4212
  128OSM   H17S13751   7.146   3.524   7.793 -0.5157  1.9506 -1.6550
  128OSM   H17T13752   7.204   3.362   7.749 -0.3254 -0.7848  2.4189
  128OSM   C18S13753   7.022   3.379   7.877  0.8447 -0.6414 -0.8173
  128OSM   H18S13754   6.957   3.297   7.839  0.7149 -0.5054 -0.8869
  128OSM   H18T13755   6.963   3.472   7.891  0.8186 -0.9615  1.7273
  128OSM   H18U13756   7.061   3.360   7.979 -2.1823  1.1073  0.8184
  128OSM    C1F13757   6.996   4.229   6.620  0.2632  0.6169 -0.2456
  128OSM     OF13758   6.892   4.286   6.599 -0.2561 -0.1855 -0.1620
  128OSM    C2F13759   7.062   4.244   6.752  0.2768  0.0330 -0.3112
  128OSM    H2F13760   7.162   4.195   6.750  0.0697 -0.3791 -0.7835
  128OSM    H2G13761   6.992   4.203   6.828 -1.5380  1.4828 -1.1183
  128OSM    C3F13762   7.093   4.393   6.799 -0.6834 -0.3014  0.6128
  128OSM    H3F13763   6.998   4.447   6.779 -0.6373 -0.2414  0.5562
  128OSM    H3G13764   7.175   4.421   6.729  0.2570 -0.4395  1.6392
  128OSM    C4F13765   7.117   4.409   6.949  0.2838 -0.0099 -0.1561
  128OSM    H4F13766   7.149   4.515   6.952 -0.8611  0.3818 -1.1110
  128OSM    H4G13767   7.199   4.346   6.990 -0.3503  1.3310  3.5240
  128OSM    C5F13768   6.997   4.382   7.037  0.5517 -0.3251  0.2138
  128OSM    H5F13769   6.974   4.273   7.034  0.0225 -0.1996 -2.9914
  128OSM    H5G13770   6.912   4.443   7.000  0.5394 -0.0448  0.6903
  128OSM    C6F13771   7.022   4.420   7.180 -0.0703  0.1272 -0.1721
  128OSM    H6F13772   7.039   4.529   7.171 -1.6273  0.5032  1.0406
  128OSM    H6G13773   7.123   4.386   7.210  1.1454  1.2936 -2.6739
  128OSM    C7F13774   6.914   4.409   7.285  0.4494  0.8448  0.1421
  128OSM    H7F13775   6.907   4.306   7.327  0.9756  1.6585  2.3916
  128OSM    H7G13776   6.815   4.431   7.239 -0.2482 -1.1019  0.6097
  128OSM    C8F13777   6.947   4.498   7.402 -0.0266  0.3275  0.2938
  128OSM    H8F13778   6.862   4.483   7.472 -0.7021 -1.9714 -0.9349
  128OSM    H8G13779   6.952   4.602   7.365 -2.2445  0.7072  0.9595
  128OSM    C9F13780   7.074   4.471   7.470  0.1673  0.2044 -0.2674
  128OSM    H9F13781   7.166   4.526   7.447  1.3361 -1.4990  0.1146
  128OSM   C10F13782   7.093   4.390   7.574  0.4547  0.6534  0.0462
  128OSM   H10F13783   7.191   4.380   7.625  0.2786 -0.2849  0.2260
  128OSM   C11F13784   6.986   4.294   7.626 -0.6085  0.3958  0.1089
  128OSM   H11F13785   7.017   4.189   7.607 -0.5408 -0.0189  2.3184
  128OSM   H11G13786   6.885   4.302   7.580 -0.3994 -1.9531 -0.9404
  128OSM   C12F13787   6.975   4.330   7.775  0.2322 -0.1269 -0.1238
  128OSM   H12F13788   6.954   4.439   7.777  2.2603  0.3099 -0.6208
  128OSM   H12G13789   7.077   4.323   7.819  0.3651 -0.3048 -0.4581
  128OSM   C13F13790   6.871   4.254   7.864 -0.6944 -0.0615  0.0155
  128OSM   H13F13791   6.917   4.154   7.879  2.4227  1.2723 -0.0532
  128OSM   H13G13792   6.769   4.245   7.819 -1.5765 -0.5712  2.0216
  128OSM   C14F13793   6.859   4.331   8.001  0.4949  0.3484 -0.3872
  128OSM   H14F13794   6.767   4.299   8.055  0.3561 -1.8675 -1.8011
  128OSM   H14G13795   6.856   4.440   7.980 -0.2142  0.3160 -0.4814
  128OSM   C15F13796   6.978   4.299   8.101  0.0434 -0.1124 -0.4139
  128OSM   H15F13797   7.080   4.304   8.056 -0.3302  2.7074 -1.1186
  128OSM   H15G13798   6.964   4.198   8.144  0.8726 -0.1884 -0.3094
  128OSM   C16F13799   6.975   4.386   8.230  0.1293 -0.9550  0.1797
  128OSM   H16F13800   6.878   4.383   8.284 -1.4397  0.3244 -2.3314
  128OSM   H16G13801   6.992   4.494   8.206  1.7333 -1.5112 -1.4297
  128OSM   C17F13802   7.078   4.337   8.329  0.1885 -0.2861  0.8311
  128OSM   H17F13803   7.178   4.335   8.281  0.0332 -2.0923  0.5151
  128OSM   H17G13804   7.043   4.233   8.346 -1.4079 -0.2179 -1.4765
  128OSM   C18F13805   7.085   4.404   8.466  0.6896  0.0454 -0.1864
  128OSM   H18F13806   6.998   4.373   8.527  1.3078  0.2181  0.8066
  128OSM   H18G13807   7.091   4.515   8.466 -0.0757  0.0980 -0.9526
  128OSM   H18H13808   7.176   4.360   8.512  0.8401 -0.2249 -0.7325
  129OSM      N13809   5.171   6.134   5.756 -0.7987  0.2220  0.1247
  129OSM    C1513810   5.317   6.149   5.786  0.8468  0.1274  0.0283
  129OSM   H15A13811   5.361   6.082   5.714 -1.3981 -1.6697  0.2131
  129OSM   H15B13812   5.337   6.110   5.884 -1.9375 -1.2188  0.1670
  129OSM   H15C13813   5.354   6.250   5.774 -0.5073  0.5675 -0.7741
  129OSM    C1413814   5.150   6.206   5.629  0.3003 -0.0476 -0.0968
  129OSM   H14A13815   5.171   6.311   5.645 -1.2330  0.0749  1.3877
  129OSM   H14B13816   5.048   6.190   5.595  0.7324  1.1934 -2.1493
  129OSM   H14C13817   5.212   6.178   5.545  1.8240  1.1649  0.5812
  129OSM    C1313818   5.148   5.984   5.744 -0.9469 -0.4458  0.1567
  129OSM   H13A13819   5.184   5.934   5.655 -0.1106 -2.4263  1.5120
  129OSM   H13B13820   5.044   5.958   5.759 -1.2303  0.5033 -0.0936
  129OSM   H13C13821   5.205   5.939   5.824  0.1174  1.5635  0.5845
  129OSM    C1213822   5.093   6.197   5.866 -0.1388 -0.6764 -0.5340
  129OSM   H12A13823   4.988   6.188   5.841 -0.4161  0.2558  0.2470
  129OSM   H12B13824   5.120   6.301   5.866  1.8050 -1.1544 -0.3091
  129OSM    C1113825   5.107   6.140   6.011 -0.0892  0.5316  0.2982
  129OSM   H11A13826   5.066   6.215   6.081  0.1485  0.2359  0.7595
  129OSM   H11B13827   5.213   6.127   6.039 -0.5819 -0.4971  1.8082
  129OSM      P13828   4.883   6.011   6.053 -0.1803  0.0780 -0.3241
  129OSM    O1313829   4.805   6.063   5.940 -0.0727 -0.2007  0.5247
  129OSM    O1413830   4.848   5.869   6.093  0.1411 -0.0133  0.2393
  129OSM    O1113831   4.869   6.116   6.179  0.2700  0.7936 -0.2228
  129OSM    O1213832   5.034   6.021   6.027 -0.4079 -0.0122 -0.5992
  129OSM    C1S13833   4.758   6.114   6.264  0.3388 -0.0953  0.0243
  129OSM    H1S13834   4.677   6.042   6.239  1.0841 -1.6535  1.8126
  129OSM    H1T13835   4.721   6.218   6.272  2.4548  0.6166  1.6417
  129OSM     NF13836   4.692   6.048   6.490 -0.1108 -0.7422  0.1405
  129OSM    HNF13837   4.671   6.119   6.556  2.1641  0.0203  0.1422
  129OSM    C2S13838   4.800   6.062   6.404 -0.6968  0.7655 -0.9474
  129OSM    H2S13839   4.846   5.961   6.390 -0.9711  0.3494  0.9952
  129OSM    C3S13840   4.911   6.157   6.462  0.3157 -0.0889 -0.2438
  129OSM    H3S13841   4.854   6.247   6.494 -3.6787 -2.6563  0.7459
  129OSM     O313842   5.013   6.191   6.375 -0.0511 -0.2425  0.3130
  129OSM    HO313843   4.987   6.146   6.294  0.7922 -0.9658  0.4243
  129OSM    C4S13844   4.976   6.096   6.588 -0.7127  0.1047  0.2014
  129OSM    H4S13845   5.036   6.003   6.583 -3.5237 -2.0477  2.7230
  129OSM    C5S13846   4.954   6.153   6.710  0.2937  0.1194 -0.2373
  129OSM    H5S13847   4.898   6.248   6.714  3.1850  1.9025  1.2611
  129OSM    C6S13848   5.007   6.109   6.830  0.2052  0.0437  0.7152
  129OSM    H6S13849   5.096   6.168   6.862 -0.2565 -0.2233  2.6347
  129OSM    H6T13850   5.041   6.003   6.830  0.7390  0.1423  3.3730
  129OSM    C7S13851   4.895   6.110   6.941  0.2132 -0.1546  0.5255
  129OSM    H7S13852   4.812   6.037   6.928 -1.0722  1.1710  0.9899
  129OSM    H7T13853   4.854   6.213   6.945  1.8621  0.6725 -1.7134
  129OSM    C8S13854   4.960   6.102   7.082  0.5385  0.4134  0.0372
  129OSM    H8S13855   5.036   6.182   7.089 -1.3999  2.2038  1.5769
  129OSM    H8T13856   5.016   6.007   7.096  2.7569  1.4337 -1.3838
  129OSM    C9S13857   4.861   6.122   7.200 -0.0639 -0.6327  0.4700
  129OSM    H9S13858   4.790   6.036   7.199 -1.9198  0.8507  0.2751
  129OSM    H9T13859   4.808   6.218   7.182  0.0105 -1.0477 -2.5517
  129OSM   C10S13860   4.937   6.134   7.333  0.2488  0.1426  0.0822
  129OSM   H10S13861   5.012   6.216   7.324 -0.5384  1.1031  1.7747
  129OSM   H10T13862   4.990   6.038   7.352  0.3804  0.6328  2.6012
  129OSM   C11S13863   4.842   6.155   7.452  0.4272 -0.3000 -0.3423
  129OSM   H11S13864   4.785   6.063   7.473  1.9568 -0.6881  2.6004
  129OSM   H11T13865   4.782   6.248   7.446  0.1292 -0.5436 -1.2849
  129OSM   C12S13866   4.914   6.184   7.589 -0.9737  0.0338 -0.5059
  129OSM   H12S13867   4.967   6.281   7.574  0.3609 -0.4894  0.6775
  129OSM   H12T13868   4.998   6.113   7.602 -0.9889  0.0082 -0.5441
  129OSM   C13S13869   4.821   6.181   7.709  0.1735  0.1235  0.1542
  129OSM   H13S13870   4.762   6.087   7.717 -0.0626  0.3564  1.3800
  129OSM   H13T13871   4.750   6.262   7.681 -0.1230  0.0184  0.5894
  129OSM   C14S13872   4.883   6.214   7.843 -0.0322  0.0700  0.3997
  129OSM   H14S13873   4.931   6.313   7.829 -0.0824 -0.1169 -1.3318
  129OSM   H14T13874   4.962   6.138   7.866 -1.7520 -1.7852  0.4808
  129OSM   C15S13875   4.789   6.231   7.967 -0.4496 -0.0083  0.1812
  129OSM   H15S13876   4.752   6.129   7.990  0.1591 -0.6769 -1.6003
  129OSM   H15T13877   4.706   6.297   7.933 -1.7416 -1.0187  1.2716
  129OSM   C16S13878   4.861   6.290   8.084 -0.7422 -0.1603 -0.4660
  129OSM   H16S13879   4.901   6.393   8.070  0.4899 -0.4204  0.9570
  129OSM   H16T13880   4.959   6.238   8.082 -0.5524  0.1794 -2.2537
  129OSM   C17S13881   4.780   6.283   8.218 -0.0773 -0.2727 -0.1240
  129OSM   H17S13882   4.854   6.312   8.295 -0.5708  1.8678 -0.4137
  129OSM   H17T13883   4.746   6.177   8.223 -0.9337 -0.0126 -0.2408
  129OSM   C18S13884   4.651   6.370   8.233 -0.1954  0.0632  1.1727
  129OSM   H18S13885   4.563   6.319   8.190  0.4288 -0.3191  0.3116
  129OSM   H18T13886   4.661   6.474   8.196  0.3892 -0.9735 -1.8077
  129OSM   H18U13887   4.632   6.379   8.343  0.1029 -1.3759  1.3531
  129OSM    C1F13888   4.609   5.945   6.482 -0.5227  0.0399  0.4769
  129OSM     OF13889   4.623   5.869   6.386 -0.1132  0.0901  0.5778
  129OSM    C2F13890   4.501   5.921   6.585 -0.2353  0.1445  0.3461
  129OSM    H2F13891   4.408   5.875   6.544  0.4577 -0.1806 -0.9207
  129OSM    H2G13892   4.475   6.019   6.632 -0.3112  0.1891  0.2121
  129OSM    C3F13893   4.564   5.834   6.689 -0.0642  0.0556 -0.2724
  129OSM    H3F13894   4.649   5.882   6.742 -0.0693 -0.9702  0.7086
  129OSM    H3G13895   4.611   5.742   6.649 -1.3554 -1.7282  2.0763
  129OSM    C4F13896   4.456   5.800   6.792 -0.1746  0.0071  0.0163
  129OSM    H4F13897   4.499   5.722   6.857  1.0590 -1.9023 -2.8641
  129OSM    H4G13898   4.360   5.761   6.751 -0.5125 -0.4255  1.1906
  129OSM    C5F13899   4.428   5.923   6.878 -0.2690 -0.0852  0.4427
  129OSM    H5F13900   4.370   5.993   6.814  2.4012 -1.5059 -4.0351
  129OSM    H5G13901   4.521   5.974   6.911  0.2993  0.4827 -1.8716
  129OSM    C6F13902   4.347   5.875   7.002 -0.6746 -0.6153 -0.2360
  129OSM    H6F13903   4.401   5.786   7.041  0.7075 -0.1325 -0.9644
  129OSM    H6G13904   4.250   5.827   6.977 -0.3038 -1.6751  0.3112
  129OSM    C7F13905   4.333   5.984   7.111 -0.0907  0.9134 -0.1784
  129OSM    H7F13906   4.266   5.948   7.192 -0.7690  0.2318 -1.0299
  129OSM    H7G13907   4.286   6.075   7.070 -1.7939  1.4390  2.6886
  129OSM    C8F13908   4.473   6.006   7.181 -0.3190  0.1645  0.2356
  129OSM    H8F13909   4.463   6.094   7.248 -1.9918 -0.5841  1.0205
  129OSM    H8G13910   4.556   6.029   7.110  1.7495  0.9073  2.7605
  129OSM    C9F13911   4.514   5.877   7.255 -0.3199  0.7624  0.2053
  129OSM    H9F13912   4.575   5.800   7.206  0.9952 -0.7077  3.7846
  129OSM   C10F13913   4.484   5.839   7.380 -0.1773  0.3348 -0.5073
  129OSM   H10F13914   4.519   5.744   7.423  2.6723  1.2989 -0.4362
  129OSM   C11F13915   4.405   5.920   7.478  0.5108  0.9588  0.4607
  129OSM   H11F13916   4.326   5.849   7.509  1.2507 -0.3447 -0.5062
  129OSM   H11G13917   4.363   6.011   7.429 -1.1593 -1.1788 -2.4020
  129OSM   C12F13918   4.488   5.951   7.599 -0.0677  0.3735 -0.8275
  129OSM   H12F13919   4.564   6.030   7.579  2.7690 -1.8424  0.5267
  129OSM   H12G13920   4.549   5.864   7.631 -1.0022 -0.3103 -0.8869
  129OSM   C13F13921   4.396   5.996   7.720 -0.1214  0.1627 -0.2536
  129OSM   H13F13922   4.306   5.931   7.716  0.0039  0.0534 -2.4190
  129OSM   H13G13923   4.367   6.102   7.710  0.8694  0.6139  1.2418
  129OSM   C14F13924   4.465   5.997   7.853  0.0293  0.6042  0.2743
  129OSM   H14F13925   4.568   6.036   7.857  0.3662 -0.2989  1.2188
  129OSM   H14G13926   4.493   5.891   7.871 -1.0258  0.0347 -1.2169
  129OSM   C15F13927   4.385   6.062   7.963 -0.4325  0.3263 -0.7037
  129OSM   H15F13928   4.281   6.023   7.963 -0.0234 -0.7805 -1.3636
  129OSM   H15G13929   4.378   6.172   7.945 -2.0807  0.6699  1.5471
  129OSM   C16F13930   4.441   6.037   8.099  0.3466  0.3022  0.3444
  129OSM   H16F13931   4.540   6.088   8.100  0.6907 -0.3641  0.2754
  129OSM   H16G13932   4.468   5.930   8.102  0.0740  0.2377  0.4740
  129OSM   C17F13933   4.353   6.089   8.212 -0.3231  0.3027 -0.0313
  129OSM   H17F13934   4.259   6.032   8.191 -1.1851  2.2494 -1.8825
  129OSM   H17G13935   4.319   6.195   8.211 -3.5345 -0.5978 -1.3162
  129OSM   C18F13936   4.418   6.061   8.348  0.2319  0.8392  0.1477
  129OSM   H18F13937   4.472   5.965   8.336  1.3205  1.3318  0.8996
  129OSM   H18G13938   4.353   6.059   8.439  0.6158  0.9895  0.4308
  129OSM   H18H13939   4.494   6.138   8.374 -0.3001  0.9017  1.6598
  130OSM      N13940   0.045   2.719   6.095  0.1629  0.3739  0.6051
  130OSM    C1513941   0.030   2.762   6.241 -0.1859 -0.0317  0.2253
  130OSM   H15A13942  -0.054   2.715   6.290 -0.3630 -0.5912 -0.5944
  130OSM   H15B13943   0.006   2.867   6.238  0.6683  0.1553 -0.7191
  130OSM   H15C13944   0.117   2.739   6.300  1.7154 -0.8294 -2.6822
  130OSM    C1413945   0.156   2.793   6.024  0.4980  0.2632  0.2238
  130OSM   H14A13946   0.184   2.748   5.930  1.9961  2.4065 -0.4287
  130OSM   H14B13947   0.249   2.778   6.077  0.5048 -1.2711 -0.1502
  130OSM   H14C13948   0.131   2.897   6.018 -0.7935  0.0736  1.5316
  130OSM    C1313949   0.096   2.576   6.094 -0.4410  0.0293  0.5659
  130OSM   H13A13950   0.144   2.539   6.005 -3.2531 -0.9189 -0.6540
  130OSM   H13B13951   0.016   2.511   6.126  1.0670 -2.4439 -0.4392
  130OSM   H13C13952   0.172   2.567   6.171  1.2475 -0.1215 -1.0595
  130OSM    C1213953  -0.092   2.723   6.019  0.5602 -0.3313  0.4948
  130OSM   H12A13954  -0.074   2.699   5.916  4.9915 -1.3951  1.2923
  130OSM   H12B13955  -0.127   2.825   6.025 -1.0671 -0.9183  1.9822
  130OSM    C1113956  -0.202   2.622   6.068  0.5945  0.9672 -0.4219
  130OSM   H11A13957  -0.175   2.532   6.009 -3.9277  0.1258 -1.6212
  130OSM   H11B13958  -0.299   2.650   6.022  0.9063  2.7778 -0.0355
  130OSM      P13959  -0.293   2.470   6.259 -0.3592  0.2433 -0.0347
  130OSM    O1313960  -0.434   2.506   6.234 -0.6926 -0.6700  0.2207
  130OSM    O1413961  -0.236   2.349   6.202 -0.1263 -0.2843  0.3394
  130OSM    O1113962  -0.266   2.461   6.410 -0.5969  0.0527  0.1309
  130OSM    O1213963  -0.210   2.599   6.206 -0.1447  0.0772 -0.3858
  130OSM    C1S13964  -0.140   2.470   6.473 -0.4934  0.4383 -0.0200
  130OSM    H1S13965  -0.112   2.577   6.483  1.3917 -0.1343  1.4186
  130OSM    H1T13966  -0.064   2.415   6.413 -2.1983  0.3019 -2.1896
  130OSM     NF13967  -0.042   2.478   6.701 -0.1504 -0.6717  0.1419
  130OSM    HNF13968   0.037   2.421   6.722  0.3125 -0.2052 -0.2923
  130OSM    C2S13969  -0.150   2.416   6.623  0.5402 -0.3583 -0.0030
  130OSM    H2S13970  -0.248   2.449   6.663  1.2107 -0.3171  1.6840
  130OSM    C3S13971  -0.143   2.264   6.624 -0.2607 -0.3415 -0.6759
  130OSM    H3S13972  -0.040   2.237   6.590 -0.1197 -0.0523 -0.4877
  130OSM     O313973  -0.236   2.201   6.538  0.6490  0.1788 -0.0098
  130OSM    HO313974  -0.273   2.268   6.479  1.1828  0.1119 -0.4281
  130OSM    C4S13975  -0.168   2.215   6.768  0.3597 -0.0349  0.0817
  130OSM    H4S13976  -0.271   2.225   6.803  0.4880 -0.3809  0.5718
  130OSM    C5S13977  -0.070   2.164   6.852 -0.4463 -0.0468  0.0178
  130OSM    H5S13978   0.029   2.159   6.805 -0.8221 -1.3059 -0.6868
  130OSM    C6S13979  -0.097   2.129   6.998 -0.3680 -0.1520 -0.1967
  130OSM    H6S13980  -0.007   2.088   7.049  0.3330  0.5601 -0.8151
  130OSM    H6T13981  -0.194   2.077   7.008  0.3135 -2.2643 -3.1803
  130OSM    C7S13982  -0.109   2.273   7.075 -0.1834  1.2111  0.8118
  130OSM    H7S13983  -0.209   2.312   7.047 -0.7186 -0.2497  0.5825
  130OSM    H7T13984  -0.030   2.346   7.047  0.6256  0.3726  0.8680
  130OSM    C8S13985  -0.120   2.263   7.228 -0.5097  0.0646  0.5211
  130OSM    H8S13986  -0.169   2.169   7.261 -1.2894  0.2317 -0.1208
  130OSM    H8T13987  -0.193   2.336   7.269  0.2763  0.5150  1.1353
  130OSM    C9S13988   0.016   2.284   7.291  0.2591 -0.9893 -0.1062
  130OSM    H9S13989   0.033   2.393   7.273 -0.4863 -0.8981 -0.2635
  130OSM    H9T13990   0.097   2.223   7.245  0.2908 -2.0286  1.2630
  130OSM   C10S13991   0.015   2.254   7.441  0.0556  0.2660 -0.1853
  130OSM   H10S13992  -0.003   2.147   7.461 -0.4239  0.3142 -0.3436
  130OSM   H10T13993  -0.067   2.307   7.495  0.3935 -1.0393  1.6913
  130OSM   C11S13994   0.143   2.289   7.512  0.4045 -0.5217  0.0427
  130OSM   H11S13995   0.174   2.394   7.491  0.2258 -1.1623 -4.4975
  130OSM   H11T13996   0.220   2.221   7.469  1.2139 -0.2143  0.9678
  130OSM   C12S13997   0.130   2.253   7.663 -0.2797 -0.5975  0.6637
  130OSM   H12S13998   0.143   2.145   7.683  4.2243 -0.3731  0.0589
  130OSM   H12T13999   0.036   2.296   7.704  0.1808 -0.2560  1.3869
  130OSM   C13S14000   0.240   2.328   7.752 -0.0346  0.1511 -0.1939
  130OSM   H13S14001   0.234   2.439   7.743 -1.5216  0.1140  0.1139
  130OSM   H13T14002   0.332   2.281   7.710 -2.1166 -2.5899 -2.0120
  130OSM   C14S14003   0.228   2.281   7.903  0.6588 -0.2169  0.3009
  130OSM   H14S14004   0.257   2.175   7.917  1.3530  0.2480  3.0720
  130OSM   H14T14005   0.120   2.292   7.924  0.6896  0.1037  0.3013
  130OSM   C15S14006   0.305   2.369   8.001 -0.0755 -0.5596 -0.2611
  130OSM   H15S14007   0.266   2.473   8.003 -1.7756 -1.0741 -2.1963
  130OSM   H15T14008   0.409   2.378   7.963  0.2947 -2.8228  0.0878
  130OSM   C16S14009   0.319   2.305   8.135 -0.1144 -0.2531  0.2433
  130OSM   H16S14010   0.397   2.361   8.191  1.0496 -1.0008 -0.5818
  130OSM   H16T14011   0.352   2.200   8.122  1.0157  0.2556 -1.3832
  130OSM   C17S14012   0.189   2.315   8.226 -0.2562 -0.5456  0.1444
  130OSM   H17S14013   0.111   2.255   8.175 -1.2212  0.4334  0.4137
  130OSM   H17T14014   0.149   2.418   8.215 -0.1573 -0.5915 -0.7777
  130OSM   C18S14015   0.221   2.260   8.365  0.7025  0.1615  0.3148
  130OSM   H18S14016   0.132   2.269   8.431  0.0883  0.2947 -0.5106
  130OSM   H18T14017   0.290   2.321   8.426  1.5322  1.5251 -1.8986
  130OSM   H18U14018   0.251   2.153   8.357 -0.4294 -0.1901  0.4356
  130OSM    C1F14019  -0.045   2.607   6.741  0.3341 -0.0104 -0.8403
  130OSM     OF14020  -0.133   2.683   6.703 -0.0238  0.4257  0.4689
  130OSM    C2F14021   0.070   2.650   6.824 -0.1207  0.0590 -0.1743
  130OSM    H2F14022   0.111   2.743   6.782  1.4617 -0.7759 -0.5347
  130OSM    H2G14023   0.145   2.569   6.836 -1.0174 -0.5732  1.6420
  130OSM    C3F14024   0.017   2.678   6.965 -0.2591 -0.6398 -0.5119
  130OSM    H3F14025  -0.040   2.593   7.008  0.0943 -0.5628  0.1289
  130OSM    H3G14026  -0.040   2.772   6.950 -1.1253 -1.1384 -0.3753
  130OSM    C4F14027   0.129   2.724   7.068  0.7082 -1.1157  0.2533
  130OSM    H4F14028   0.192   2.806   7.027 -1.0675  1.3502  2.1231
  130OSM    H4G14029   0.198   2.641   7.092  1.2314 -0.8222 -0.1960
  130OSM    C5F14030   0.078   2.775   7.200  0.1349 -0.6191  0.0976
  130OSM    H5F14031  -0.032   2.788   7.206  0.3900  1.2083  1.9535
  130OSM    H5G14032   0.124   2.872   7.231 -1.5816 -0.4356  2.3163
  130OSM    C6F14033   0.107   2.683   7.317  0.2039  0.3695 -0.2003
  130OSM    H6F14034   0.210   2.645   7.300  0.1221  0.9810 -2.3825
  130OSM    H6G14035   0.049   2.594   7.287  0.5872 -0.1401  0.5501
  130OSM    C7F14036   0.100   2.738   7.455  0.2717 -0.1623  0.2919
  130OSM    H7F14037   0.150   2.836   7.446 -1.2444  0.5600 -0.5838
  130OSM    H7G14038   0.151   2.665   7.522 -0.8820 -1.2818  0.0051
  130OSM    C8F14039  -0.045   2.746   7.505 -0.2792  0.1097 -0.2859
  130OSM    H8F14040  -0.093   2.648   7.487  1.3615 -0.9751  1.0444
  130OSM    H8G14041  -0.106   2.821   7.449  1.1075  1.8647  0.4467
  130OSM    C9F14042  -0.052   2.783   7.652  0.5240 -0.1908  0.0054
  130OSM    H9F14043  -0.035   2.890   7.669 -2.3067  0.8281 -2.5062
  130OSM   C10F14044  -0.070   2.694   7.753  0.0335  0.0415  0.1582
  130OSM   H10F14045  -0.079   2.733   7.856  1.5953 -0.4510  0.4975
  130OSM   C11F14046  -0.072   2.546   7.742 -0.9700 -0.4860  0.0744
  130OSM   H11F14047  -0.004   2.501   7.818  1.8643 -1.5705 -2.8713
  130OSM   H11G14048  -0.015   2.508   7.654 -0.5972  0.0706  0.0731
  130OSM   C12F14049  -0.207   2.472   7.756  0.7372 -0.2875 -0.1104
  130OSM   H12F14050  -0.189   2.362   7.759 -2.2126 -0.8520  2.2748
  130OSM   H12G14051  -0.276   2.492   7.672  0.5556  0.5574  0.2323
  130OSM   C13F14052  -0.272   2.506   7.888 -0.0619  0.1183  0.4951
  130OSM   H13F14053  -0.358   2.437   7.878  0.3827 -0.1729 -1.7242
  130OSM   H13G14054  -0.311   2.610   7.884  1.2833  0.6417  0.3539
  130OSM   C14F14055  -0.195   2.465   8.013  0.5111 -0.4334  0.7901
  130OSM   H14F14056  -0.112   2.538   8.023  1.6505 -1.4211 -0.9065
  130OSM   H14G14057  -0.133   2.376   7.989  2.3109  1.0711 -0.3627
  130OSM   C15F14058  -0.279   2.450   8.144 -0.2662 -0.8070  0.1242
  130OSM   H15F14059  -0.353   2.368   8.131 -0.9973 -0.0890 -0.3837
  130OSM   H15G14060  -0.338   2.542   8.160  2.7930  1.0300  1.6481
  130OSM   C16F14061  -0.183   2.437   8.262 -0.7408  0.1956  0.0044
  130OSM   H16F14062  -0.106   2.517   8.266 -1.7926  1.2644 -0.1344
  130OSM   H16G14063  -0.124   2.346   8.242 -0.1821  1.1831 -3.5197
  130OSM   C17F14064  -0.246   2.427   8.400  0.2198  0.3843 -0.6472
  130OSM   H17F14065  -0.312   2.339   8.409  0.3350 -0.0928 -3.5194
  130OSM   H17G14066  -0.312   2.515   8.416 -1.6406 -0.8515 -1.3254
  130OSM   C18F14067  -0.140   2.409   8.513  0.0532 -0.1556  0.7855
  130OSM   H18F14068  -0.112   2.517   8.518  1.2542 -0.2473 -1.9298
  130OSM   H18G14069  -0.059   2.341   8.480 -0.3763 -0.2206 -0.1640
  130OSM   H18H14070  -0.171   2.382   8.616 -0.2800 -0.1792  0.6773
  131OSM      N14071   3.287   6.472   6.045  0.3987 -0.3313 -0.4518
  131OSM    C1514072   3.333   6.559   6.148 -0.0429  0.0950 -0.0208
  131OSM   H15A14073   3.253   6.594   6.211  0.6949  1.9694 -0.0409
  131OSM   H15B14074   3.376   6.646   6.100  1.5273 -1.1844 -1.0280
  131OSM   H15C14075   3.406   6.505   6.206 -1.3480 -1.2049  0.4706
  131OSM    C1414076   3.158   6.523   5.989  0.4518 -0.5049 -0.3325
  131OSM   H14A14077   3.115   6.448   5.924  0.4142 -1.2218  0.5068
  131OSM   H14B14078   3.168   6.609   5.925  0.8290 -1.4842 -1.6541
  131OSM   H14C14079   3.090   6.559   6.065 -1.8529 -1.9132 -1.6122
  131OSM    C1314080   3.394   6.461   5.940 -0.4715 -0.1703  0.0104
  131OSM   H13A14081   3.484   6.416   5.981  1.3948  2.5596 -0.8391
  131OSM   H13B14082   3.409   6.559   5.898  1.8192 -1.0174 -1.3418
  131OSM   H13C14083   3.366   6.394   5.860  1.6304 -0.8484 -0.2147
  131OSM    C1214084   3.263   6.344   6.106 -0.3384  0.0535  0.2561
  131OSM   H12A14085   3.238   6.274   6.028 -1.2933  1.3682 -0.6669
  131OSM   H12B14086   3.181   6.351   6.177  0.2267 -0.4992  0.9721
  131OSM    C1114087   3.380   6.272   6.183 -0.7039  0.4831 -0.3663
  131OSM   H11A14088   3.342   6.179   6.230 -2.7213  1.3692 -0.0984
  131OSM   H11B14089   3.400   6.342   6.267 -0.4131 -1.0636  0.8750
  131OSM      P14090   3.520   6.121   6.043  0.2078  0.0291 -0.0483
  131OSM    O1314091   3.394   6.079   5.981  0.0722  0.0237 -0.0507
  131OSM    O1414092   3.644   6.119   5.961 -0.5830  0.2083  0.5512
  131OSM    O1114093   3.538   6.042   6.180 -0.2968 -0.0034 -0.3689
  131OSM    O1214094   3.499   6.261   6.106  0.0031  0.3791 -0.1057
  131OSM    C1S14095   3.655   6.004   6.251 -0.1610  0.0367  0.1236
  131OSM    H1S14096   3.746   6.054   6.211 -0.0547 -0.1537  0.1233
  131OSM    H1T14097   3.679   5.897   6.232 -2.2728 -0.0433 -2.8224
  131OSM     NF14098   3.763   5.992   6.469 -0.0495 -0.6619  0.3688
  131OSM    HNF14099   3.764   5.899   6.504 -1.3610  0.7530  4.7169
  131OSM    C2S14100   3.639   6.026   6.404 -0.1548  0.1349  0.0967
  131OSM    H2S14101   3.609   6.133   6.413 -1.4670 -0.2721  0.7422
  131OSM    C3S14102   3.520   5.943   6.453  0.1397 -0.1619  0.5686
  131OSM    H3S14103   3.538   5.833   6.443  0.7527 -0.3368  2.9648
  131OSM     O314104   3.397   5.949   6.381 -0.3494 -0.1088  0.6652
  131OSM    HO314105   3.420   5.997   6.301 -0.5996  0.8899  1.1791
  131OSM    C4S14106   3.497   5.961   6.600  0.3966  0.8944  0.0191
  131OSM    H4S14107   3.526   6.063   6.631  0.6118  0.6277  0.7095
  131OSM    C5S14108   3.474   5.870   6.694 -0.5582  0.5056  0.1010
  131OSM    H5S14109   3.467   5.765   6.663 -3.3582  0.3568  0.9589
  131OSM    C6S14110   3.466   5.902   6.841  0.2197  0.2604 -0.0074
  131OSM    H6S14111   3.553   5.853   6.889  0.1236 -2.1283 -2.0681
  131OSM    H6T14112   3.371   5.870   6.889  0.0450  1.0493  0.1878
  131OSM    C7S14113   3.478   6.054   6.880 -0.1404  0.5548 -0.3323
  131OSM    H7S14114   3.390   6.113   6.849 -0.9702 -0.0296  0.8451
  131OSM    H7T14115   3.563   6.101   6.826 -0.0996  0.3606 -0.4399
  131OSM    C8S14116   3.497   6.076   7.036 -0.3206  0.0851  0.0794
  131OSM    H8S14117   3.557   5.993   7.079  1.4044  2.1507  1.9623
  131OSM    H8T14118   3.400   6.057   7.085  0.8015 -2.9436  1.3697
  131OSM    C9S14119   3.554   6.214   7.073  0.0225  0.1537 -0.9880
  131OSM    H9S14120   3.473   6.288   7.053  0.3074  1.1999  1.3776
  131OSM    H9T14121   3.634   6.235   7.000  0.0592  0.0270 -0.9836
  131OSM   C10S14122   3.609   6.221   7.219  0.0400 -0.1379 -0.3061
  131OSM   H10S14123   3.653   6.320   7.246  0.7849 -0.6495  0.4034
  131OSM   H10T14124   3.690   6.147   7.236  1.3388  1.4381  0.7043
  131OSM   C11S14125   3.501   6.202   7.323  0.1121  0.2913  1.2164
  131OSM   H11S14126   3.461   6.099   7.309  1.9606 -0.3869  0.5911
  131OSM   H11T14127   3.417   6.274   7.309 -1.4728 -1.4275  1.5374
  131OSM   C12S14128   3.551   6.221   7.466 -0.2418 -0.3316  0.2053
  131OSM   H12S14129   3.591   6.323   7.489  0.6492 -1.2145  3.0854
  131OSM   H12T14130   3.637   6.151   7.474  0.7051  0.4982 -1.8834
  131OSM   C13S14131   3.445   6.193   7.572  0.1343  0.6035  0.0245
  131OSM   H13S14132   3.418   6.086   7.565 -3.3393  1.0756  3.4303
  131OSM   H13T14133   3.361   6.259   7.540 -0.7890 -1.6864 -2.7035
  131OSM   C14S14134   3.484   6.221   7.716  0.9804  0.7893 -0.1698
  131OSM   H14S14135   3.483   6.331   7.726 -3.3419  0.7755  2.0403
  131OSM   H14T14136   3.586   6.183   7.736  0.6671  0.1145  0.1952
  131OSM   C15S14137   3.379   6.157   7.812  0.1189 -0.4531 -0.4404
  131OSM   H15S14138   3.430   6.130   7.908 -1.5514  0.1093  0.6490
  131OSM   H15T14139   3.352   6.057   7.773 -1.1728  0.3151 -1.5975
  131OSM   C16S14140   3.247   6.237   7.839  0.8863  0.7931  0.6341
  131OSM   H16S14141   3.183   6.248   7.749 -0.1024 -3.7175  0.5343
  131OSM   H16T14142   3.278   6.339   7.868 -0.5242  1.5380 -0.3774
  131OSM   C17S14143   3.164   6.173   7.948 -0.3279  0.2669  0.0219
  131OSM   H17S14144   3.223   6.166   8.042 -1.2549 -2.6488  0.4903
  131OSM   H17T14145   3.140   6.067   7.926  0.7399  0.1618 -0.7786
  131OSM   C18S14146   3.031   6.244   7.990 -0.3991  0.4327 -0.0447
  131OSM   H18S14147   3.053   6.326   8.062 -2.6276  0.4009  0.7644
  131OSM   H18T14148   2.962   6.173   8.041  0.6267 -0.3207  0.3368
  131OSM   H18U14149   2.985   6.291   7.901 -0.9553 -0.2218 -0.1072
  131OSM    C1F14150   3.868   6.074   6.457 -0.0009 -0.0296 -0.3895
  131OSM     OF14151   3.855   6.178   6.397 -0.5311  0.6097  0.0010
  131OSM    C2F14152   4.000   6.028   6.517  0.6027 -0.5237 -0.3798
  131OSM    H2F14153   4.066   5.995   6.434  0.9874 -3.6571  1.0099
  131OSM    H2G14154   3.976   5.938   6.578 -3.4015  0.5032 -0.1148
  131OSM    C3F14155   4.058   6.141   6.612  0.4755 -0.1143  0.6645
  131OSM    H3F14156   4.090   6.227   6.551 -0.6485  0.7355  1.2449
  131OSM    H3G14157   4.161   6.106   6.637  0.5471 -0.4177 -0.0326
  131OSM    C4F14158   3.980   6.168   6.736  0.8099  0.4767  0.3382
  131OSM    H4F14159   4.005   6.080   6.799  1.4255  1.6547  1.7786
  131OSM    H4G14160   3.872   6.166   6.708  1.0641  0.3103 -0.6752
  131OSM    C5F14161   4.025   6.300   6.789  0.1061 -0.0666 -0.7131
  131OSM    H5F14162   4.007   6.369   6.704  2.4071 -0.7887 -1.8610
  131OSM    H5G14163   4.132   6.302   6.820  0.0223  1.6277 -0.4098
  131OSM    C6F14164   3.935   6.346   6.907 -0.2525  0.0541  0.4943
  131OSM    H6F14165   3.831   6.347   6.869 -0.0129 -2.3195 -0.4005
  131OSM    H6G14166   3.973   6.449   6.923 -1.9897  0.5103  1.9300
  131OSM    C7F14167   3.959   6.263   7.033 -0.2340 -0.6598  0.1455
  131OSM    H7F14168   3.969   6.154   7.016 -1.4551 -0.6925 -0.3998
  131OSM    H7G14169   3.870   6.274   7.098  0.3915 -1.9687  1.2794
  131OSM    C8F14170   4.084   6.303   7.116 -0.5593  0.0692  0.4398
  131OSM    H8F14171   4.174   6.302   7.050 -1.8175  2.2131 -1.4459
  131OSM    H8G14172   4.092   6.215   7.184 -0.4545  0.8754  1.4889
  131OSM    C9F14173   4.073   6.427   7.199 -0.0970  0.0691 -0.3686
  131OSM    H9F14174   4.131   6.508   7.151  2.1940 -2.3481 -1.9048
  131OSM   C10F14175   4.007   6.443   7.312  0.5761  0.5111 -0.6057
  131OSM   H10F14176   4.029   6.535   7.367 -0.2142 -0.3950  1.3150
  131OSM   C11F14177   3.910   6.346   7.392 -0.2635 -0.1631  0.3965
  131OSM   H11F14178   3.879   6.268   7.319 -0.6902  1.2908 -1.0271
  131OSM   H11G14179   3.815   6.398   7.413  0.0928  0.5872  0.1990
  131OSM   C12F14180   3.976   6.295   7.516 -0.0957 -0.6149 -0.7917
  131OSM   H12F14181   4.073   6.242   7.505 -0.5508 -1.6566  0.0203
  131OSM   H12G14182   3.907   6.214   7.547 -0.6976  0.1472 -0.1022
  131OSM   C13F14183   3.993   6.393   7.634  0.7113 -0.1431 -0.1832
  131OSM   H13F14184   3.998   6.489   7.579 -2.2565 -0.7831 -1.8117
  131OSM   H13G14185   4.084   6.366   7.691  0.6237  1.0685  0.5472
  131OSM   C14F14186   3.879   6.397   7.739  0.4773  0.5401 -0.0516
  131OSM   H14F14187   3.865   6.301   7.793 -0.0772  1.1460  0.9090
  131OSM   H14G14188   3.788   6.421   7.678  1.3684  1.0907 -1.2079
  131OSM   C15F14189   3.904   6.499   7.849  0.1300  0.0356 -0.1270
  131OSM   H15F14190   3.891   6.595   7.794  0.0397  0.3657  0.4592
  131OSM   H15G14191   4.009   6.490   7.884 -0.1423 -1.0281  0.4636
  131OSM   C16F14192   3.802   6.495   7.975  0.0436 -0.4447  0.2192
  131OSM   H16F14193   3.828   6.407   8.037 -0.8806  0.3123  1.7412
  131OSM   H16G14194   3.699   6.482   7.936 -0.0931  0.3972  0.2781
  131OSM   C17F14195   3.817   6.615   8.065 -0.5037  0.3509  0.3034
  131OSM   H17F14196   3.771   6.708   8.027  1.3306  0.6204 -1.4374
  131OSM   H17G14197   3.928   6.627   8.068 -0.3626 -0.5459 -0.5354
  131OSM   C18F14198   3.769   6.580   8.205 -0.3070 -0.7298 -0.0755
  131OSM   H18F14199   3.846   6.544   8.276 -1.8568 -2.2066  0.9190
  131OSM   H18G14200   3.689   6.504   8.208  0.9937 -2.1105  1.5214
  131OSM   H18H14201   3.731   6.673   8.253  1.3818  1.0206 -1.9249
  132OSM      N14202   0.543   0.322   6.015 -0.2937  0.6549  0.1924
  132OSM    C1514203   0.542   0.172   6.014  0.1584 -0.2582 -0.0445
  132OSM   H15A14204   0.572   0.129   5.920 -1.0991 -0.9625 -0.1450
  132OSM   H15B14205   0.440   0.140   6.028 -0.9008  2.6933 -0.3988
  132OSM   H15C14206   0.594   0.142   6.104 -1.4733  2.0245  1.7812
  132OSM    C1414207   0.682   0.376   6.026  0.1799 -1.0219  0.6089
  132OSM   H14A14208   0.731   0.354   6.120  1.6603  0.4829  0.2509
  132OSM   H14B14209   0.680   0.484   6.023  1.6361 -0.9122  2.0875
  132OSM   H14C14210   0.749   0.347   5.947 -0.6393 -0.0783 -0.4672
  132OSM    C1314211   0.490   0.361   5.880 -0.3699  0.7029  1.6334
  132OSM   H13A14212   0.547   0.317   5.799 -0.9596  2.9234 -0.0820
  132OSM   H13B14213   0.510   0.465   5.860 -0.0854  0.6502  1.6294
  132OSM   H13C14214   0.388   0.332   5.862 -0.4883  1.8299  0.3243
  132OSM    C1214215   0.458   0.369   6.130 -0.3902  0.5524 -0.0192
  132OSM   H12A14216   0.508   0.344   6.222 -0.2561  1.2184  0.0955
  132OSM   H12B14217   0.361   0.323   6.131 -1.1600  2.0978  1.1937
  132OSM    C1114218   0.431   0.528   6.134  0.3126 -0.4708  0.4574
  132OSM   H11A14219   0.364   0.543   6.221 -0.4547 -1.3057  0.0359
  132OSM   H11B14220   0.395   0.560   6.034 -0.1717  0.7789  1.0043
  132OSM      P14221   0.566   0.740   6.226  0.2345  0.4308  0.0472
  132OSM    O1314222   0.702   0.793   6.209 -0.4271  0.3787  0.7971
  132OSM    O1414223   0.452   0.825   6.183  0.0877  0.4196  1.1765
  132OSM    O1114224   0.543   0.715   6.376  0.5622  1.0551 -0.3763
  132OSM    O1214225   0.554   0.600   6.156 -0.6706  0.4874 -0.1151
  132OSM    C1S14226   0.615   0.616   6.456 -0.0266 -0.2792  0.4697
  132OSM    H1S14227   0.722   0.646   6.455  0.0671 -0.5470  1.5559
  132OSM    H1T14228   0.597   0.514   6.417 -0.8420 -0.3280  0.9489
  132OSM     NF14229   0.667   0.572   6.692 -0.7356 -0.4003 -0.2330
  132OSM    HNF14230   0.664   0.482   6.734  0.0066  0.5763  2.1087
  132OSM    C2S14231   0.564   0.619   6.595  0.6852 -0.1151 -0.4995
  132OSM    H2S14232   0.537   0.724   6.622 -0.4072 -0.8424  1.4179
  132OSM    C3S14233   0.437   0.533   6.597 -0.7267 -0.0871 -0.6912
  132OSM    H3S14234   0.465   0.428   6.574  1.5247  0.4948 -0.7763
  132OSM     O314235   0.332   0.567   6.505 -1.0374  0.3046 -0.1109
  132OSM    HO314236   0.373   0.641   6.459  1.5252 -0.7939  0.2428
  132OSM    C4S14237   0.387   0.526   6.738 -0.3793 -0.3977 -0.2738
  132OSM    H4S14238   0.436   0.447   6.799  2.6652 -0.6649 -2.8126
  132OSM    C5S14239   0.303   0.612   6.793  0.0964 -0.4637 -0.1378
  132OSM    H5S14240   0.253   0.683   6.725 -0.1220 -0.1051  0.3900
  132OSM    C6S14241   0.246   0.608   6.933  0.0920  0.0326  0.0346
  132OSM    H6S14242   0.135   0.608   6.938  0.1049  0.9388  0.5509
  132OSM    H6T14243   0.275   0.704   6.982  1.1597  0.6831 -1.7812
  132OSM    C7S14244   0.292   0.500   7.026 -0.3705  0.8962 -0.1903
  132OSM    H7S14245   0.397   0.533   7.042 -0.4657  1.6870 -1.1103
  132OSM    H7T14246   0.289   0.406   6.967  1.6616  0.9940 -0.4980
  132OSM    C8S14247   0.208   0.499   7.157  0.0452  0.6854 -0.0682
  132OSM    H8S14248   0.099   0.503   7.133  0.4044 -0.5267 -2.1849
  132OSM    H8T14249   0.241   0.590   7.211 -1.2806  0.6884  0.7896
  132OSM    C9S14250   0.241   0.379   7.246  0.5158  0.2205  0.3454
  132OSM    H9S14251   0.345   0.389   7.284  0.6731 -0.2828  0.0632
  132OSM    H9T14252   0.230   0.291   7.178  0.8275 -0.1748  0.8030
  132OSM   C10S14253   0.158   0.377   7.369 -0.0428  0.3162  0.2499
  132OSM   H10S14254   0.052   0.352   7.350  0.5658 -2.0605 -0.3314
  132OSM   H10T14255   0.155   0.474   7.423  1.7677 -0.6910  2.3294
  132OSM   C11S14256   0.204   0.272   7.474 -0.8780  0.5884 -0.5304
  132OSM   H11S14257   0.303   0.303   7.514 -1.8756  1.7928  1.1367
  132OSM   H11T14258   0.206   0.176   7.419 -0.6915  0.8941 -1.0664
  132OSM   C12S14259   0.107   0.248   7.589 -0.5004 -0.6953  0.0168
  132OSM   H12S14260   0.012   0.214   7.543 -0.5703  0.0806 -0.4365
  132OSM   H12T14261   0.102   0.347   7.639  1.2294  1.2100 -3.2617
  132OSM   C13S14262   0.168   0.150   7.691  0.1328  0.3762  0.2986
  132OSM   H13S14263   0.268   0.188   7.721 -0.7818  4.4477 -1.1141
  132OSM   H13T14264   0.175   0.055   7.634 -2.9912 -0.3838  1.0068
  132OSM   C14S14265   0.073   0.121   7.802  0.3440 -0.2411 -0.1705
  132OSM   H14S14266   0.097   0.020   7.841 -3.0475 -2.5614 -3.3720
  132OSM   H14T14267  -0.029   0.101   7.762 -0.2077  1.4513  0.3256
  132OSM   C15S14268   0.057   0.225   7.908 -0.4766  0.7838 -0.6506
  132OSM   H15S14269  -0.037   0.202   7.963  0.0328  1.5749  0.6042
  132OSM   H15T14270   0.035   0.326   7.868 -2.4029  0.3917 -0.7013
  132OSM   C16S14271   0.177   0.231   8.008  0.2254  0.3166  0.8231
  132OSM   H16S14272   0.273   0.238   7.952 -0.6992 -0.0217 -0.8732
  132OSM   H16T14273   0.180   0.136   8.066  1.5861  0.1395  0.5015
  132OSM   C17S14274   0.167   0.337   8.115  0.7286  0.3425 -0.0765
  132OSM   H17S14275   0.161   0.439   8.071  1.8530  0.5663  0.2481
  132OSM   H17T14276   0.259   0.347   8.177 -1.0364 -1.1229  3.0032
  132OSM   C18S14277   0.038   0.324   8.205 -0.1101 -0.7883  0.5574
  132OSM   H18S14278  -0.039   0.276   8.141  0.3160  1.0998 -1.5220
  132OSM   H18T14279  -0.009   0.421   8.232 -0.6469 -0.7211 -0.5307
  132OSM   H18U14280   0.060   0.264   8.295  0.0685 -0.0395  1.0268
  132OSM    C1F14281   0.763   0.662   6.727  0.6374  0.1264 -0.2559
  132OSM     OF14282   0.756   0.777   6.691  0.1074 -0.5093 -0.1400
  132OSM    C2F14283   0.876   0.612   6.809  0.2028  1.2477 -0.8242
  132OSM    H2F14284   0.966   0.672   6.784  0.5614  2.1993  2.3000
  132OSM    H2G14285   0.906   0.512   6.772 -0.2317  1.3185 -1.3840
  132OSM    C3F14286   0.850   0.626   6.964 -1.0213 -0.0874 -0.1093
  132OSM    H3F14287   0.829   0.730   6.997 -0.4064 -0.1205  0.4077
  132OSM    H3G14288   0.938   0.579   7.012 -1.7657 -0.1000  1.2984
  132OSM    C4F14289   0.730   0.545   7.022 -0.3123 -0.2318  0.4152
  132OSM    H4F14290   0.761   0.439   7.011 -4.1577 -1.5390  0.8977
  132OSM    H4G14291   0.641   0.561   6.957 -1.1448 -0.8541  1.3829
  132OSM    C5F14292   0.691   0.564   7.167  0.8220  0.3346  0.6270
  132OSM    H5F14293   0.625   0.486   7.210 -0.5806  1.0647 -0.1138
  132OSM    H5G14294   0.636   0.660   7.177 -0.6479 -0.4358  0.2315
  132OSM    C6F14295   0.818   0.561   7.256  0.3514 -0.6913 -0.5981
  132OSM    H6F14296   0.902   0.627   7.225  0.5025 -0.7654 -0.3565
  132OSM    H6G14297   0.854   0.456   7.259 -1.2603 -1.3064  2.6337
  132OSM    C7F14298   0.781   0.615   7.398 -0.1957  0.2556  0.2166
  132OSM    H7F14299   0.714   0.702   7.382 -0.5660  0.0773  0.7796
  132OSM    H7G14300   0.875   0.649   7.448  1.3039 -4.4849  1.1260
  132OSM    C8F14301   0.721   0.506   7.492 -0.2531  1.2128  0.5507
  132OSM    H8F14302   0.806   0.436   7.508  0.2250  0.8366 -2.8538
  132OSM    H8G14303   0.650   0.440   7.437  1.6397 -0.9995  0.5975
  132OSM    C9F14304   0.662   0.563   7.617 -0.8900 -0.1427 -0.0042
  132OSM    H9F14305   0.737   0.581   7.696 -2.6198  0.7303  1.5339
  132OSM   C10F14306   0.537   0.598   7.647  0.1171  0.5641  0.6053
  132OSM   H10F14307   0.518   0.645   7.744 -0.0052  1.1164  0.3177
  132OSM   C11F14308   0.432   0.594   7.541  0.2107 -0.0220 -0.5659
  132OSM   H11F14309   0.377   0.499   7.520 -0.7737 -0.2396  2.5764
  132OSM   H11G14310   0.484   0.625   7.448  0.9462  1.7053  0.3842
  132OSM   C12F14311   0.327   0.706   7.577  0.1720  0.6512  0.1843
  132OSM   H12F14312   0.259   0.728   7.491 -0.3632 -0.4450  0.3210
  132OSM   H12G14313   0.375   0.802   7.605  0.7118  0.8050 -1.1637
  132OSM   C13F14314   0.235   0.653   7.687  0.8899  0.2626  0.2728
  132OSM   H13F14315   0.294   0.630   7.778  2.5350  1.5561 -0.4187
  132OSM   H13G14316   0.169   0.567   7.665  0.3839  0.9121 -0.8736
  132OSM   C14F14317   0.131   0.764   7.737  0.7924  0.1681  1.0014
  132OSM   H14F14318   0.067   0.804   7.655 -0.0084  1.8596  2.3887
  132OSM   H14G14319   0.195   0.840   7.786  1.9030 -1.1205  1.6292
  132OSM   C15F14320   0.042   0.710   7.850  0.0434  0.1670  0.2776
  132OSM   H15F14321   0.088   0.619   7.895  1.5269  0.1197 -1.2066
  132OSM   H15G14322  -0.047   0.667   7.800  1.0793 -0.3522 -1.2044
  132OSM   C16F14323   0.014   0.826   7.954 -0.5130  0.2194  0.1815
  132OSM   H16F14324  -0.058   0.899   7.912 -1.2085 -0.3385  0.3774
  132OSM   H16G14325   0.112   0.874   7.975 -0.3651 -0.7622  1.8479
  132OSM   C17F14326  -0.051   0.770   8.078  0.0447  0.3035 -0.5405
  132OSM   H17F14327   0.015   0.702   8.136 -0.9700 -0.5562 -0.3730
  132OSM   H17G14328  -0.146   0.727   8.042 -1.2396  0.4406  2.4032
  132OSM   C18F14329  -0.087   0.885   8.178 -0.0010 -0.3248 -0.0354
  132OSM   H18F14330   0.009   0.911   8.228  0.2857  1.4088 -1.3749
  132OSM   H18G14331  -0.159   0.854   8.257  1.1876 -1.6570  0.5497
  132OSM   H18H14332  -0.117   0.970   8.113 -1.1066 -1.7945 -1.5456
  133OSM      N14333   6.577   0.694   6.086  0.2718  0.4434  0.1305
  133OSM    C1514334   6.547   0.716   5.943  0.6107  0.0802  0.8383
  133OSM   H15A14335   6.568   0.624   5.891 -3.5793 -0.1764 -0.7717
  133OSM   H15B14336   6.608   0.793   5.897  0.6267 -0.6956 -0.4638
  133OSM   H15C14337   6.444   0.745   5.926  1.0323  0.7194 -0.7716
  133OSM    C1414338   6.537   0.817   6.155 -0.2920  0.7097  0.5038
  133OSM   H14A14339   6.534   0.806   6.262 -0.1404 -0.6989  0.3810
  133OSM   H14B14340   6.441   0.848   6.116  0.0380 -0.8933 -1.8127
  133OSM   H14C14341   6.609   0.894   6.132 -0.4714  1.2657  1.7124
  133OSM    C1314342   6.486   0.580   6.152 -0.0911 -0.1242 -0.0782
  133OSM   H13A14343   6.387   0.623   6.147  0.6065  1.7072  0.7748
  133OSM   H13B14344   6.515   0.559   6.254  0.2000  0.0931 -0.1137
  133OSM   H13C14345   6.496   0.490   6.094  0.8034  0.0263 -0.1639
  133OSM    C1214346   6.723   0.646   6.102  0.6254 -0.4727 -0.0783
  133OSM   H12A14347   6.733   0.616   6.205  1.8087 -1.0891 -0.3547
  133OSM   H12B14348   6.791   0.729   6.092 -0.9573  1.3419  2.7576
  133OSM    C1114349   6.769   0.530   6.016  0.7341  0.0683  0.5672
  133OSM   H11A14350   6.877   0.505   6.016  0.8485  0.1464 -2.9833
  133OSM   H11B14351   6.744   0.552   5.910 -1.6887 -3.5268  0.1895
  133OSM      P14352   6.745   0.266   6.049  0.0348 -0.1503 -0.1145
  133OSM    O1314353   6.646   0.181   6.114 -0.3328 -0.3498 -0.3388
  133OSM    O1414354   6.784   0.228   5.912  0.0204 -0.2226  0.0963
  133OSM    O1114355   6.880   0.276   6.129  0.6489  0.2684 -0.3842
  133OSM    O1214356   6.694   0.412   6.042  0.6137  0.1721  0.1973
  133OSM    C1S14357   6.902   0.348   6.247  0.3358  0.2489  0.1710
  133OSM    H1S14358   6.810   0.407   6.269  0.4586  0.1383  1.0481
  133OSM    H1T14359   6.986   0.417   6.224  1.2520 -0.8361  0.1738
  133OSM     NF14360   6.920   0.349   6.491 -0.0930  0.3976 -0.2495
  133OSM    HNF14361   7.000   0.406   6.511  0.4207 -0.3626 -0.0906
  133OSM    C2S14362   6.938   0.261   6.377  0.3735 -0.2955 -0.1618
  133OSM    H2S14363   6.863   0.180   6.384 -0.3331  0.4005  0.5230
  133OSM    C3S14364   7.081   0.190   6.364  0.1328 -0.6849 -0.0299
  133OSM    H3S14365   7.153   0.275   6.362 -1.3966  0.6984  0.7585
  133OSM     O314366   7.100   0.118   6.244 -0.1084  0.5557 -0.1846
  133OSM    HO314367   7.024   0.133   6.188  0.2220 -0.0023 -0.8029
  133OSM    C4S14368   7.106   0.105   6.484 -0.5484  0.2634  0.1307
  133OSM    H4S14369   7.042   0.015   6.479 -0.3164  0.1237 -0.3621
  133OSM    C5S14370   7.194   0.124   6.582  0.5512 -0.6139  0.2466
  133OSM    H5S14371   7.273   0.199   6.566  0.3257 -0.7513 -1.7629
  133OSM    C6S14372   7.227   0.030   6.697  0.3860 -0.1678 -0.6261
  133OSM    H6S14373   7.337   0.014   6.693  0.8554  2.4583  0.1077
  133OSM    H6T14374   7.174  -0.068   6.696 -0.5951  0.2880  1.4566
  133OSM    C7S14375   7.207   0.093   6.835  0.3258 -0.1460 -0.9160
  133OSM    H7S14376   7.099   0.099   6.862  0.1836 -0.2332 -1.4585
  133OSM    H7T14377   7.244   0.198   6.834 -1.7992  0.7295  1.4733
  133OSM    C8S14378   7.271   0.009   6.954 -1.0021  0.2060 -0.6430
  133OSM    H8S14379   7.366  -0.029   6.911 -1.1951 -2.5834  1.1241
  133OSM    H8T14380   7.201  -0.074   6.977 -0.3941 -0.6366 -1.7275
  133OSM    C9S14381   7.288   0.087   7.081 -0.0295  0.2591 -0.0125
  133OSM    H9S14382   7.190   0.121   7.120 -0.2816  0.3765 -0.7445
  133OSM    H9T14383   7.334   0.185   7.057 -0.7288  0.2071 -1.6797
  133OSM   C10S14384   7.360   0.019   7.206  0.1542  1.4814 -0.1318
  133OSM   H10S14385   7.467  -0.000   7.185  0.5633  1.3070  1.9191
  133OSM   H10T14386   7.324  -0.085   7.219  2.8956  0.5859  0.9633
  133OSM   C11S14387   7.351   0.103   7.336 -0.3406  0.2093  1.0161
  133OSM   H11S14388   7.246   0.101   7.369  0.4382  2.1139  3.9695
  133OSM   H11T14389   7.386   0.208   7.320  0.4128 -0.2950 -0.9592
  133OSM   C12S14390   7.432   0.033   7.445 -0.6532 -0.2043  0.0302
  133OSM   H12S14391   7.528   0.011   7.395 -0.9778  0.3828 -0.8912
  133OSM   H12T14392   7.383  -0.065   7.466 -0.2007 -0.3605  0.3660
  133OSM   C13S14393   7.454   0.114   7.569 -0.3409 -0.2905  0.3195
  133OSM   H13S14394   7.510   0.202   7.531 -0.5163 -0.3661 -0.1283
  133OSM   H13T14395   7.519   0.060   7.642 -1.0222 -0.1727  1.0196
  133OSM   C14S14396   7.326   0.153   7.640  0.8799 -0.4070 -0.8662
  133OSM   H14S14397   7.253   0.069   7.647 -1.4487  1.3736 -2.3191
  133OSM   H14T14398   7.275   0.243   7.599  0.1680 -1.6253 -2.7843
  133OSM   C15S14399   7.355   0.198   7.790  0.0921 -0.2714 -0.4880
  133OSM   H15S14400   7.259   0.239   7.829  0.1784  1.0438 -1.5817
  133OSM   H15T14401   7.430   0.280   7.790  0.0693 -0.2081 -2.7302
  133OSM   C16S14402   7.391   0.091   7.896 -0.4801 -0.1221  0.2883
  133OSM   H16S14403   7.490   0.052   7.865  0.4346  2.6923 -0.6968
  133OSM   H16T14404   7.313   0.013   7.890 -2.8709  2.0533  1.0705
  133OSM   C17S14405   7.388   0.139   8.043 -0.3889 -0.0015  0.3501
  133OSM   H17S14406   7.285   0.169   8.073 -0.2087  2.2033 -1.0099
  133OSM   H17T14407   7.458   0.224   8.055 -3.4631  3.1890 -2.1485
  133OSM   C18S14408   7.436   0.026   8.144  0.0919  0.5394  1.1608
  133OSM   H18S14409   7.403   0.053   8.247 -2.7052 -0.3479  0.5947
  133OSM   H18T14410   7.543  -0.000   8.157  0.1402  1.0732  1.9451
  133OSM   H18U14411   7.392  -0.074   8.121  0.6411  0.0819  2.0215
  133OSM    C1F14412   6.804   0.368   6.548 -0.4968  0.3765  0.2072
  133OSM     OF14413   6.705   0.319   6.496  0.4564  0.0853 -0.1990
  133OSM    C2F14414   6.791   0.461   6.661  0.3978 -0.7570  0.0170
  133OSM    H2F14415   6.804   0.565   6.623  0.4228 -0.5010  0.7035
  133OSM    H2G14416   6.878   0.446   6.728  1.7809 -2.8838 -2.0715
  133OSM    C3F14417   6.657   0.433   6.738 -0.1343 -0.3941 -0.1842
  133OSM    H3F14418   6.639   0.329   6.773 -1.6290 -0.2850 -0.5506
  133OSM    H3G14419   6.577   0.466   6.668  0.7501  2.4120  0.0133
  133OSM    C4F14420   6.664   0.508   6.871 -0.0370 -0.2832 -0.1002
  133OSM    H4F14421   6.687   0.615   6.849 -0.0607 -0.6494 -2.0002
  133OSM    H4G14422   6.752   0.458   6.916  0.7286  1.8295  0.9367
  133OSM    C5F14423   6.547   0.504   6.969 -0.6675  0.1856 -0.3665
  133OSM    H5F14424   6.475   0.435   6.921 -1.0943 -0.6303  1.3698
  133OSM    H5G14425   6.490   0.599   6.973 -0.8079  0.2212 -2.3113
  133OSM    C6F14426   6.584   0.444   7.109 -0.2949 -0.2469  0.0780
  133OSM    H6F14427   6.673   0.501   7.143 -0.7899  0.3240  0.4343
  133OSM    H6G14428   6.622   0.340   7.099  2.1419  0.7615 -2.1592
  133OSM    C7F14429   6.471   0.454   7.211 -0.5051 -0.4059  0.0184
  133OSM    H7F14430   6.403   0.373   7.176 -0.9242  1.3328 -3.8071
  133OSM    H7G14431   6.411   0.547   7.209 -1.6803 -1.0995  1.2855
  133OSM    C8F14432   6.529   0.439   7.348  0.3249 -0.2302 -0.3958
  133OSM    H8F14433   6.598   0.353   7.359 -1.3971 -1.3885  2.5575
  133OSM    H8G14434   6.439   0.424   7.412  1.3689  1.5620  1.5902
  133OSM    C9F14435   6.580   0.573   7.391  0.3989 -0.9369  0.4510
  133OSM    H9F14436   6.685   0.585   7.361 -0.1126 -0.6058 -1.3285
  133OSM   C10F14437   6.538   0.656   7.488 -0.2759 -0.6097  0.4210
  133OSM   H10F14438   6.596   0.749   7.495 -1.3896  0.0768  0.6626
  133OSM   C11F14439   6.423   0.625   7.581 -0.7927 -0.4352  0.2395
  133OSM   H11F14440   6.349   0.563   7.526  0.1634 -0.9506 -0.4726
  133OSM   H11G14441   6.369   0.720   7.604  2.7072  1.6749  0.5014
  133OSM   C12F14442   6.461   0.554   7.711  0.2599 -0.5892 -0.7726
  133OSM   H12F14443   6.518   0.624   7.775  1.5290  3.2906 -5.5142
  133OSM   H12G14444   6.519   0.460   7.693 -0.9626 -2.1506  2.5491
  133OSM   C13F14445   6.333   0.496   7.771  0.0548 -0.1883 -0.1400
  133OSM   H13F14446   6.302   0.410   7.707  0.7043 -0.8016  0.3539
  133OSM   H13G14447   6.257   0.577   7.769 -1.0941 -1.1721  1.1948
  133OSM   C14F14448   6.355   0.456   7.918  0.3682 -0.4036 -0.2644
  133OSM   H14F14449   6.384   0.551   7.968 -0.0908 -0.1888 -0.3953
  133OSM   H14G14450   6.435   0.380   7.928 -0.4797 -1.1880  0.7046
  133OSM   C15F14451   6.224   0.410   7.986 -0.9661 -0.6415  0.1055
  133OSM   H15F14452   6.142   0.482   7.965  0.4067  0.5173 -1.5763
  133OSM   H15G14453   6.246   0.414   8.095  1.2433 -0.3754 -0.3117
  133OSM   C16F14454   6.180   0.272   7.958 -0.1463  0.1778 -0.2367
  133OSM   H16F14455   6.271   0.209   7.965 -0.1145  0.4126  4.5674
  133OSM   H16G14456   6.128   0.257   7.860 -1.5208 -1.3840  0.6663
  133OSM   C17F14457   6.076   0.220   8.061  0.4588 -0.7689  0.2982
  133OSM   H17F14458   6.129   0.213   8.158  1.5867 -1.5618 -0.3392
  133OSM   H17G14459   6.055   0.118   8.023 -0.5888 -0.1034 -0.9767
  133OSM   C18F14460   5.943   0.296   8.054 -0.3052 -0.5172 -0.5156
  133OSM   H18F14461   5.873   0.251   8.128 -1.7809 -1.2110 -2.2478
  133OSM   H18G14462   5.903   0.298   7.950 -0.1158  2.2256 -0.6092
  133OSM   H18H14463   5.959   0.403   8.078 -1.1983 -0.2751 -0.9336
  134OSM      N14464   0.809   2.821   6.451  0.1945 -0.1894  0.4549
  134OSM    C1514465   0.794   2.714   6.347 -1.3365  0.8965 -0.1898
  134OSM   H15A14466   0.759   2.747   6.251 -1.8864 -2.4186 -1.2794
  134OSM   H15B14467   0.728   2.637   6.384 -0.3140 -0.9158 -1.8843
  134OSM   H15C14468   0.885   2.659   6.326 -1.4390 -1.2339  4.0145
  134OSM    C1414469   0.869   2.766   6.578  0.0336  0.3765 -0.0588
  134OSM   H14A14470   0.967   2.721   6.569 -0.7170 -2.0867  2.5811
  134OSM   H14B14471   0.807   2.680   6.601  0.3852 -0.0394 -0.6524
  134OSM   H14C14472   0.866   2.833   6.663  2.5711 -2.5318  2.6265
  134OSM    C1314473   0.896   2.937   6.410  0.6409  0.5317 -0.1072
  134OSM   H13A14474   0.866   2.973   6.313  0.5240  3.9220  1.0208
  134OSM   H13B14475   1.003   2.927   6.398  0.5200 -0.5955 -0.3349
  134OSM   H13C14476   0.882   3.023   6.475 -2.6661  1.0853 -1.3595
  134OSM    C1214477   0.672   2.886   6.483 -0.3861  0.2788 -0.0986
  134OSM   H12A14478   0.631   2.942   6.400 -1.4748  1.7936  1.4002
  134OSM   H12B14479   0.688   2.954   6.565  1.4374 -1.1121  0.7773
  134OSM    C1114480   0.545   2.791   6.520 -0.1660  0.4379  0.1150
  134OSM   H11A14481   0.462   2.859   6.547 -0.8369 -0.3078 -0.0297
  134OSM   H11B14482   0.572   2.731   6.609  1.1118 -1.2672 -1.3427
  134OSM      P14483   0.356   2.630   6.430 -0.6727  0.1888  0.0125
  134OSM    O1314484   0.254   2.735   6.449  0.2959  0.2766 -0.5691
  134OSM    O1414485   0.326   2.547   6.310 -0.2007  0.0102 -0.1327
  134OSM    O1114486   0.375   2.539   6.557 -0.3307 -0.0540 -0.2509
  134OSM    O1214487   0.501   2.705   6.413 -0.1223 -0.2763 -0.8514
  134OSM    C1S14488   0.499   2.466   6.580 -0.0304  0.1860 -0.6448
  134OSM    H1S14489   0.585   2.531   6.553  1.4842 -1.5054 -0.0639
  134OSM    H1T14490   0.507   2.379   6.513 -0.8160  1.1510 -2.0429
  134OSM     NF14491   0.647   2.399   6.776  0.3967  0.1722  0.7727
  134OSM    HNF14492   0.674   2.303   6.775  0.1538  0.1012  0.9854
  134OSM    C2S14493   0.511   2.443   6.734  0.4290  0.4312 -0.5006
  134OSM    H2S14494   0.492   2.538   6.789  1.3523  1.1837 -1.4452
  134OSM    C3S14495   0.403   2.335   6.772 -0.0893 -0.6865  0.1271
  134OSM    H3S14496   0.446   2.242   6.729  2.1054  1.3166 -2.3176
  134OSM     O314497   0.274   2.354   6.734  0.1253  0.0797 -0.1011
  134OSM    HO314498   0.279   2.431   6.677 -2.2342  1.4037  1.3298
  134OSM    C4S14499   0.407   2.320   6.917 -0.0318 -0.4480 -0.0688
  134OSM    H4S14500   0.488   2.254   6.951  1.1330  0.4434 -1.0517
  134OSM    C5S14501   0.339   2.406   7.001  0.9061  0.3257 -0.0585
  134OSM    H5S14502   0.294   2.499   6.962  0.2852  0.0827  0.0669
  134OSM    C6S14503   0.356   2.396   7.150 -0.5451 -0.2628 -0.0016
  134OSM    H6S14504   0.349   2.290   7.182 -0.3339  0.0456  1.1125
  134OSM    H6T14505   0.271   2.444   7.205 -0.9741 -1.6732  0.6341
  134OSM    C7S14506   0.490   2.443   7.203  0.1015  0.2605  0.5959
  134OSM    H7S14507   0.516   2.537   7.150  0.1177  0.1626  0.4323
  134OSM    H7T14508   0.556   2.360   7.171 -1.0459 -0.3089 -0.3940
  134OSM    C8S14509   0.479   2.470   7.354 -0.6383  0.1833  0.2634
  134OSM    H8S14510   0.444   2.375   7.400 -0.2867 -0.2810 -0.4002
  134OSM    H8T14511   0.417   2.557   7.384 -2.1813 -0.9172  0.3824
  134OSM    C9S14512   0.624   2.492   7.409  0.9607  0.1218  0.1289
  134OSM    H9S14513   0.647   2.600   7.407 -0.2947  0.4832  2.4346
  134OSM    H9T14514   0.689   2.438   7.336 -0.9617 -1.9288 -0.1949
  134OSM   C10S14515   0.657   2.434   7.547  0.2808 -0.7096  0.3658
  134OSM   H10S14516   0.766   2.449   7.561  0.3665 -0.6711 -0.2875
  134OSM   H10T14517   0.646   2.324   7.561  2.4829 -0.7091  2.9895
  134OSM   C11S14518   0.577   2.516   7.647  0.3483  0.2807 -0.6298
  134OSM   H11S14519   0.470   2.489   7.636  0.6749 -1.8405  0.7639
  134OSM   H11T14520   0.581   2.626   7.632 -1.8699  0.7410  1.5086
  134OSM   C12S14521   0.615   2.487   7.789 -0.2008 -0.4273 -1.0954
  134OSM   H12S14522   0.600   2.379   7.811 -1.0329  0.3349  2.8632
  134OSM   H12T14523   0.551   2.545   7.859  1.1470  1.3943 -1.2881
  134OSM   C13S14524   0.759   2.526   7.829 -0.4460 -0.0346  0.2349
  134OSM   H13S14525   0.770   2.619   7.770  1.0603  0.2868  0.9542
  134OSM   H13T14526   0.830   2.461   7.774 -0.6262  0.6351 -0.8225
  134OSM   C14S14527   0.802   2.527   7.975  0.6737 -0.2098  0.2234
  134OSM   H14S14528   0.727   2.590   8.027  2.4186  2.9002 -0.7702
  134OSM   H14T14529   0.901   2.575   7.988 -0.0507  1.3241  0.3359
  134OSM   C15S14530   0.803   2.386   8.041 -0.4833 -0.2487 -0.6055
  134OSM   H15S14531   0.878   2.325   7.987 -0.9114 -1.9095  0.6088
  134OSM   H15T14532   0.705   2.339   8.016 -1.1162  0.9661 -0.4653
  134OSM   C16S14533   0.849   2.392   8.186  0.0504 -0.4968 -0.8006
  134OSM   H16S14534   0.754   2.413   8.239 -0.3432 -0.3705 -1.5355
  134OSM   H16T14535   0.912   2.482   8.207 -2.3522  1.0176  0.2924
  134OSM   C17S14536   0.911   2.264   8.246  0.5026 -0.1289  0.3156
  134OSM   H17S14537   0.923   2.282   8.355  2.1809  1.2870 -0.0484
  134OSM   H17T14538   1.015   2.239   8.216  0.0380 -0.2611 -1.2464
  134OSM   C18S14539   0.828   2.148   8.216  0.1962  0.0284 -0.1286
  134OSM   H18S14540   0.720   2.168   8.236 -0.1369 -0.9793 -0.8679
  134OSM   H18T14541   0.851   2.063   8.283  1.1011  1.7850  1.9256
  134OSM   H18U14542   0.828   2.116   8.110  1.2359 -2.1883  0.4766
  134OSM    C1F14543   0.743   2.491   6.793 -0.4307  0.5011  0.0346
  134OSM     OF14544   0.714   2.606   6.775  0.1018 -0.0596  0.2575
  134OSM    C2F14545   0.883   2.456   6.824 -0.1949  0.4624 -0.1014
  134OSM    H2F14546   0.943   2.466   6.731  0.5471 -0.2535  0.2896
  134OSM    H2G14547   0.890   2.352   6.864 -2.6430  0.2245 -0.1210
  134OSM    C3F14548   0.932   2.553   6.932  0.2037 -0.5732 -0.3454
  134OSM    H3F14549   0.953   2.654   6.890  0.6764 -0.1717  0.8093
  134OSM    H3G14550   1.040   2.530   6.942  0.5352 -0.7549 -3.3557
  134OSM    C4F14551   0.856   2.550   7.063  0.0701  0.1055 -0.2758
  134OSM    H4F14552   0.894   2.455   7.107  0.6388  0.1495 -0.6523
  134OSM    H4G14553   0.748   2.540   7.038  0.3817  1.1053 -2.1692
  134OSM    C5F14554   0.883   2.669   7.159 -0.4135  0.9888  0.6895
  134OSM    H5F14555   0.817   2.646   7.245  0.9050  2.2580  2.0767
  134OSM    H5G14556   0.844   2.763   7.114 -0.5528  0.8969  0.6140
  134OSM    C6F14557   1.024   2.675   7.210 -0.4679  0.5312  0.7779
  134OSM    H6F14558   1.039   2.763   7.276 -1.0664  0.6998  0.7012
  134OSM    H6G14559   1.096   2.700   7.129 -1.0715 -0.1716  0.0065
  134OSM    C7F14560   1.068   2.556   7.302 -0.2364 -0.2482  1.0254
  134OSM    H7F14561   1.063   2.464   7.240  2.4996  0.0032  0.3286
  134OSM    H7G14562   0.994   2.531   7.381 -0.0156 -4.7664  0.0991
  134OSM    C8F14563   1.210   2.556   7.361 -0.2753 -0.3074  0.0600
  134OSM    H8F14564   1.279   2.564   7.273 -1.0095 -0.4319 -0.5377
  134OSM    H8G14565   1.218   2.450   7.395  1.2858  0.3654  1.9695
  134OSM    C9F14566   1.228   2.663   7.460 -0.5831 -0.1201 -0.3300
  134OSM    H9F14567   1.211   2.767   7.428  2.7247  0.2124 -1.3911
  134OSM   C10F14568   1.267   2.644   7.590 -0.1117  0.0936  0.2580
  134OSM   H10F14569   1.260   2.732   7.656 -1.6272 -0.9826  1.6096
  134OSM   C11F14570   1.308   2.514   7.652 -0.8642 -0.7451  0.3505
  134OSM   H11F14571   1.405   2.519   7.706  0.0283 -0.8957 -1.1840
  134OSM   H11G14572   1.308   2.425   7.586 -1.0445 -1.0843  0.7989
  134OSM   C12F14573   1.207   2.488   7.760  0.4957 -0.6564  0.2932
  134OSM   H12F14574   1.231   2.386   7.798  2.1035  0.7104  3.2476
  134OSM   H12G14575   1.107   2.502   7.715 -0.0532  0.7860  1.8688
  134OSM   C13F14576   1.200   2.588   7.883 -0.6350 -1.0084 -0.0456
  134OSM   H13F14577   1.094   2.595   7.914 -0.6556 -0.3924 -0.2438
  134OSM   H13G14578   1.246   2.687   7.862 -2.3364  0.2640  1.8782
  134OSM   C14F14579   1.265   2.518   8.005  0.5435  0.0316  0.2936
  134OSM   H14F14580   1.376   2.512   8.000  0.5284  0.4159 -0.5055
  134OSM   H14G14581   1.208   2.424   8.018 -0.9170  0.6702 -1.2362
  134OSM   C15F14582   1.228   2.600   8.133  0.8194  0.5361  0.0447
  134OSM   H15F14583   1.121   2.581   8.156 -0.0692  3.1253 -1.5104
  134OSM   H15G14584   1.230   2.706   8.100 -1.1896  0.9426  1.1249
  134OSM   C16F14585   1.311   2.578   8.260 -0.5316  0.3542  0.1503
  134OSM   H16F14586   1.285   2.645   8.345  1.9893  1.5518  0.0672
  134OSM   H16G14587   1.417   2.604   8.237  0.0193 -1.9536 -0.1322
  134OSM   C17F14588   1.299   2.432   8.320 -0.4552 -0.1091 -0.2740
  134OSM   H17F14589   1.332   2.358   8.244  1.3627  0.4964 -0.1207
  134OSM   H17G14590   1.195   2.423   8.360  0.5219 -1.0314  2.3121
  134OSM   C18F14591   1.384   2.412   8.443 -0.2970  0.3588 -0.9922
  134OSM   H18F14592   1.325   2.455   8.527  0.6344 -1.8413  0.8798
  134OSM   H18G14593   1.490   2.444   8.430  0.6915 -2.6619 -1.1108
  134OSM   H18H14594   1.389   2.305   8.471  0.7043  1.2013  2.5274
  135OSM      N14595   0.623   3.337   6.100  0.0387  0.1913  0.1340
  135OSM    C1514596   0.698   3.275   5.981 -0.5212 -0.1374  0.6720
  135OSM   H15A14597   0.626   3.270   5.900 -1.3393  2.1702  1.1829
  135OSM   H15B14598   0.729   3.173   6.001  0.9584 -0.3444 -2.0975
  135OSM   H15C14599   0.785   3.331   5.950 -0.9336  1.2316  1.8581
  135OSM    C1414600   0.612   3.486   6.074 -0.0557  0.3695  0.5936
  135OSM   H14A14601   0.711   3.528   6.066  0.4872 -0.9967 -0.0991
  135OSM   H14B14602   0.578   3.542   6.160 -1.0438 -0.3906  0.7100
  135OSM   H14C14603   0.552   3.502   5.986 -0.7171 -0.1955  0.9355
  135OSM    C1314604   0.491   3.274   6.106  0.0122  0.1649 -1.1744
  135OSM   H13A14605   0.433   3.279   6.015 -3.6095  2.5337  1.0402
  135OSM   H13B14606   0.430   3.331   6.174  1.7362 -0.2994  0.8496
  135OSM   H13C14607   0.502   3.172   6.140 -0.6478 -0.6773 -3.3002
  135OSM    C1214608   0.706   3.331   6.222  0.3593  0.0518  0.1672
  135OSM   H12A14609   0.652   3.390   6.295  0.4821 -0.7228  0.8972
  135OSM   H12B14610   0.801   3.378   6.202  0.9277 -0.7869  0.8706
  135OSM    C1114611   0.719   3.198   6.298 -0.6280  0.1366  0.1440
  135OSM   H11A14612   0.784   3.217   6.386  1.0992 -0.8612 -0.8778
  135OSM   H11B14613   0.780   3.132   6.234 -0.2943  0.1781  0.4138
  135OSM      P14614   0.508   3.198   6.451  0.3279  0.0479  0.4363
  135OSM    O1314615   0.519   3.349   6.455 -0.3636  0.4559 -0.1163
  135OSM    O1414616   0.371   3.141   6.446  0.4824  0.2920 -0.4690
  135OSM    O1114617   0.577   3.145   6.587 -0.4952  0.5745  0.5333
  135OSM    O1214618   0.594   3.141   6.336 -0.6905  0.2913  0.9462
  135OSM    C1S14619   0.515   3.197   6.705  0.0513 -0.0223 -0.8281
  135OSM    H1S14620   0.407   3.171   6.715 -0.5035  2.5575  0.9053
  135OSM    H1T14621   0.510   3.308   6.705 -0.5134 -0.0350  0.1614
  135OSM     NF14622   0.523   3.187   6.959 -0.3433 -1.0711  0.1686
  135OSM    HNF14623   0.579   3.232   7.028  0.5512 -1.7620 -0.0905
  135OSM    C2S14624   0.590   3.142   6.830  0.4774  0.8275  0.8239
  135OSM    H2S14625   0.586   3.032   6.841  0.2930  0.9073  1.6253
  135OSM    C3S14626   0.743   3.177   6.823 -0.5802  0.2191  0.2643
  135OSM    H3S14627   0.757   3.286   6.837 -0.0902 -0.1474  3.6478
  135OSM     O314628   0.804   3.152   6.703  0.1763 -0.5132  0.1515
  135OSM    HO314629   0.740   3.175   6.635  1.7748 -2.3745 -2.1534
  135OSM    C4S14630   0.818   3.104   6.931 -0.4556  0.2474  0.1414
  135OSM    H4S14631   0.821   2.995   6.912 -0.7817 -0.2854  2.6895
  135OSM    C5S14632   0.849   3.155   7.050 -0.2686 -0.4569 -0.1160
  135OSM    H5S14633   0.831   3.262   7.069 -0.3121 -0.3866 -0.5432
  135OSM    C6S14634   0.928   3.086   7.154 -0.7906  0.0833  0.3699
  135OSM    H6S14635   1.017   3.149   7.179 -1.5345  1.7496 -0.9557
  135OSM    H6T14636   0.978   2.990   7.131  0.3346  0.4671  1.0976
  135OSM    C7S14637   0.835   3.059   7.278 -0.5334 -0.3746 -0.0325
  135OSM    H7S14638   0.772   2.977   7.238  1.3243 -0.2796 -3.5774
  135OSM    H7T14639   0.773   3.149   7.296  0.4134  0.3115 -0.1395
  135OSM    C8S14640   0.924   3.022   7.397 -0.3014 -0.5649 -0.4981
  135OSM    H8S14641   0.970   3.120   7.421 -2.0373  0.4209 -0.9480
  135OSM    H8T14642   0.997   2.943   7.372 -0.6371 -0.5007 -1.7481
  135OSM    C9S14643   0.854   2.984   7.524 -0.1424 -0.5132 -0.1454
  135OSM    H9S14644   0.778   2.903   7.522  0.5379 -1.1578 -0.2603
  135OSM    H9T14645   0.797   3.067   7.570 -0.3397 -0.5590 -0.3078
  135OSM   C10S14646   0.958   2.957   7.634  0.1963  0.4479  0.2794
  135OSM   H10S14647   0.995   3.059   7.657  0.1576  0.3484  0.7819
  135OSM   H10T14648   1.041   2.889   7.606  0.0997  0.8778 -1.1867
  135OSM   C11S14649   0.898   2.900   7.764 -0.0264  0.0039 -0.0335
  135OSM   H11S14650   0.864   2.798   7.736  0.6100  0.1149 -1.2771
  135OSM   H11T14651   0.816   2.963   7.803 -0.2352 -0.2334 -0.0854
  135OSM   C12S14652   0.989   2.909   7.892  0.7666 -0.4873 -0.6405
  135OSM   H12S14653   1.073   2.838   7.903  1.2855  0.0182 -1.2534
  135OSM   H12T14654   0.921   2.877   7.974 -1.1382 -0.5103 -2.1475
  135OSM   C13S14655   1.041   3.048   7.927 -0.5091 -0.4001 -0.5122
  135OSM   H13S14656   0.953   3.106   7.962  0.7471  0.3928  1.5153
  135OSM   H13T14657   1.087   3.096   7.838  0.1284 -1.2779 -0.6654
  135OSM   C14S14658   1.143   3.040   8.038 -0.5255 -0.1206  0.4327
  135OSM   H14S14659   1.209   3.128   8.052 -0.5003 -0.3051  1.6289
  135OSM   H14T14660   1.218   2.961   8.016 -0.6035  0.1819 -0.9638
  135OSM   C15S14661   1.090   3.009   8.174  0.4354  0.7191 -0.0733
  135OSM   H15S14662   1.052   2.905   8.166 -0.9982  1.2078  0.1403
  135OSM   H15T14663   1.006   3.082   8.177 -1.1058 -0.6301 -4.3231
  135OSM   C16S14664   1.198   3.022   8.279 -0.6197  0.4596  0.4149
  135OSM   H16S14665   1.264   3.107   8.251  1.0818 -1.1646 -0.8113
  135OSM   H16T14666   1.260   2.930   8.272  1.2552  1.7341 -0.6313
  135OSM   C17S14667   1.153   3.043   8.423  0.2344  0.2062 -0.4683
  135OSM   H17S14668   1.252   3.057   8.471  0.2586 -1.0823 -0.1022
  135OSM   H17T14669   1.109   2.947   8.457  0.6900  0.7898  1.9544
  135OSM   C18S14670   1.058   3.151   8.447  0.1052 -0.0203  0.0738
  135OSM   H18S14671   1.055   3.178   8.555  0.1053 -1.6637  0.5049
  135OSM   H18T14672   0.958   3.116   8.415  1.1288 -0.0081 -3.5587
  135OSM   H18U14673   1.088   3.241   8.388 -0.1503 -0.6078 -0.9718
  135OSM    C1F14674   0.397   3.148   6.991  0.1765 -0.7367  0.7895
  135OSM     OF14675   0.325   3.099   6.907 -0.8097  0.3761 -0.2327
  135OSM    C2F14676   0.351   3.175   7.129  0.2911 -0.3452 -0.8729
  135OSM    H2F14677   0.240   3.178   7.126 -0.0432 -0.5537  3.7271
  135OSM    H2G14678   0.396   3.274   7.155  2.1599 -1.3075 -0.2762
  135OSM    C3F14679   0.379   3.071   7.237  0.2420  0.2289  0.1955
  135OSM    H3F14680   0.490   3.070   7.238  0.2703  1.5106  1.8298
  135OSM    H3G14681   0.336   2.971   7.213  1.3287 -0.8297  2.3100
  135OSM    C4F14682   0.313   3.103   7.374  0.2754 -0.1900  0.4359
  135OSM    H4F14683   0.204   3.087   7.363  0.0341  0.5331  1.6604
  135OSM    H4G14684   0.345   3.205   7.403 -0.3519  0.4105 -0.8916
  135OSM    C5F14685   0.367   3.009   7.480 -0.3874  0.1770 -0.2902
  135OSM    H5F14686   0.477   3.019   7.489 -0.3531  0.0382 -0.5360
  135OSM    H5G14687   0.348   2.904   7.450 -0.2594  0.7897 -2.6996
  135OSM    C6F14688   0.302   3.037   7.615 -0.6621 -0.0033 -0.1238
  135OSM    H6F14689   0.196   3.038   7.583 -0.2132  2.5129 -1.8605
  135OSM    H6G14690   0.324   3.140   7.652 -2.7923  0.2640  0.5108
  135OSM    C7F14691   0.338   2.927   7.720  0.4988 -0.1774  0.2042
  135OSM    H7F14692   0.292   2.843   7.663 -0.6520  1.3011 -1.1473
  135OSM    H7G14693   0.275   2.954   7.808 -2.0193  2.2641 -2.1382
  135OSM    C8F14694   0.490   2.928   7.758  0.9930 -0.3617  0.4724
  135OSM    H8F14695   0.546   2.918   7.662 -3.0217  0.7705 -2.2372
  135OSM    H8G14696   0.519   2.835   7.813  1.3220 -0.9120 -0.6032
  135OSM    C9F14697   0.535   3.060   7.823 -0.1801 -0.8005  0.0266
  135OSM    H9F14698   0.524   3.154   7.767  1.4156 -1.7144 -1.9880
  135OSM   C10F14699   0.565   3.059   7.957 -0.3479 -0.0363  0.4496
  135OSM   H10F14700   0.589   3.153   8.010 -1.8188  0.8080 -0.3069
  135OSM   C11F14701   0.565   2.943   8.047 -0.4896 -0.5588  0.4031
  135OSM   H11F14702   0.635   2.964   8.131 -1.6094  2.0520  0.7805
  135OSM   H11G14703   0.620   2.855   8.007  2.5457 -0.9479  4.7041
  135OSM   C12F14704   0.431   2.903   8.114 -0.2320 -1.2526  0.1369
  135OSM   H12F14705   0.355   2.899   8.033 -0.4009  0.3811  0.1838
  135OSM   H12G14706   0.390   2.971   8.191 -1.6955 -1.9965  0.0378
  135OSM   C13F14707   0.428   2.767   8.177  0.0791 -0.1276 -0.6175
  135OSM   H13F14708   0.492   2.763   8.267 -0.6922  3.1511  0.2149
  135OSM   H13G14709   0.483   2.712   8.098  2.6131  2.0949 -0.5785
  135OSM   C14F14710   0.290   2.706   8.194  0.2502  0.0005 -0.3833
  135OSM   H14F14711   0.309   2.603   8.231 -1.3058  0.1488  0.9451
  135OSM   H14G14712   0.255   2.700   8.089 -1.6491 -0.9250  0.2577
  135OSM   C15F14713   0.182   2.792   8.260  0.2547 -1.0748 -0.0330
  135OSM   H15F14714   0.174   2.880   8.192 -1.8388 -0.5322  0.8115
  135OSM   H15G14715   0.216   2.821   8.362  0.4336 -0.8280 -0.1629
  135OSM   C16F14716   0.043   2.732   8.255 -0.9306  0.8855  0.6288
  135OSM   H16F14717   0.057   2.638   8.313  2.5172  0.4842 -0.5969
  135OSM   H16G14718   0.035   2.702   8.149  1.0032  1.4664  0.2739
  135OSM   C17F14719  -0.082   2.805   8.306 -0.0650 -0.4096  0.8590
  135OSM   H17F14720  -0.088   2.805   8.417  1.8672 -0.0416  0.9965
  135OSM   H17G14721  -0.168   2.752   8.260 -0.2435  0.2644  0.4072
  135OSM   C18F14722  -0.083   2.954   8.256  0.1836  0.2233 -0.3295
  135OSM   H18F14723  -0.071   2.958   8.145  3.0465 -0.7588 -0.1444
  135OSM   H18G14724   0.004   3.013   8.292 -0.1180  1.9768 -2.2386
  135OSM   H18H14725  -0.177   3.003   8.289 -0.1044 -1.7483  2.1051
  136OSM      N14726   4.826   4.456   5.848 -0.5044  0.3335 -0.4464
  136OSM    C1514727   4.738   4.581   5.863 -0.3211  0.3929 -0.0452
  136OSM   H15A14728   4.745   4.639   5.772  2.4053  3.2543  1.7935
  136OSM   H15B14729   4.770   4.645   5.944 -0.0139  1.7986 -1.2470
  136OSM   H15C14730   4.635   4.551   5.881 -0.5299  0.4508 -1.1008
  136OSM    C1414731   4.760   4.371   5.752 -0.7368 -0.0460 -0.0336
  136OSM   H14A14732   4.716   4.426   5.669  0.6177  1.7441  0.3863
  136OSM   H14B14733   4.690   4.314   5.811 -0.8389 -0.7077 -0.7713
  136OSM   H14C14734   4.818   4.291   5.708 -0.8378  0.4202 -1.0493
  136OSM    C1314735   4.950   4.505   5.781 -0.4787 -1.1384 -0.1516
  136OSM   H13A14736   5.027   4.430   5.770 -0.3340 -0.6359 -3.7411
  136OSM   H13B14737   4.988   4.587   5.841 -0.2734  0.1540 -1.9604
  136OSM   H13C14738   4.943   4.547   5.682  0.1766  4.5071  1.8155
  136OSM    C1214739   4.841   4.387   5.984 -0.2769  0.1286  0.5302
  136OSM   H12A14740   4.921   4.441   6.033  0.7429  0.5669 -1.5391
  136OSM   H12B14741   4.876   4.286   5.973 -0.7421 -0.2816  2.3639
  136OSM    C1114742   4.714   4.390   6.078  0.4770  0.4187  0.5652
  136OSM   H11A14743   4.693   4.496   6.104 -0.2347  0.8351 -1.4776
  136OSM   H11B14744   4.727   4.343   6.178 -0.8081  1.8310  1.4455
  136OSM      P14745   4.528   4.205   6.035 -0.3021 -0.0662 -0.0308
  136OSM    O1314746   4.396   4.206   5.960  0.0219 -0.4624 -0.1821
  136OSM    O1414747   4.625   4.095   5.999 -0.0040 -0.3854  0.4622
  136OSM    O1114748   4.510   4.206   6.190  0.0883  0.0219 -0.0514
  136OSM    O1214749   4.599   4.348   6.009  0.1784 -0.0000 -0.7764
  136OSM    C1S14750   4.454   4.316   6.265  0.0776 -0.1834  0.2411
  136OSM    H1S14751   4.354   4.352   6.235  0.3911  0.3524 -0.1843
  136OSM    H1T14752   4.533   4.394   6.267  0.0797 -0.1440 -0.9169
  136OSM     NF14753   4.387   4.405   6.488  0.5155 -0.0812 -0.7922
  136OSM    HNF14754   4.460   4.456   6.534  0.2786 -1.8172  1.7545
  136OSM    C2S14755   4.424   4.283   6.420  0.2031 -0.4503  1.2600
  136OSM    H2S14756   4.340   4.210   6.419  0.6268 -0.9469  1.5740
  136OSM    C3S14757   4.549   4.212   6.480  0.5220 -0.1570 -0.1206
  136OSM    H3S14758   4.628   4.289   6.495  1.0452 -0.7586  0.2365
  136OSM     O314759   4.612   4.112   6.406  0.2348  0.2228  0.1260
  136OSM    HO314760   4.579   4.120   6.316 -1.3031  0.0779  0.6363
  136OSM    C4S14761   4.515   4.164   6.618  0.0170  0.2394 -0.1261
  136OSM    H4S14762   4.415   4.122   6.634  0.8467 -1.5711  0.4893
  136OSM    C5S14763   4.589   4.176   6.729  0.2776 -0.7331  0.3131
  136OSM    H5S14764   4.674   4.245   6.725 -0.7129  0.5008 -0.3617
  136OSM    C6S14765   4.555   4.131   6.865  0.0731  0.1150  0.2330
  136OSM    H6S14766   4.649   4.103   6.917  0.3887 -1.6776 -1.1709
  136OSM    H6T14767   4.498   4.036   6.857 -0.0012  0.0407  1.4723
  136OSM    C7S14768   4.483   4.228   6.957 -0.3904 -0.2075 -0.4428
  136OSM    H7S14769   4.381   4.252   6.920  0.7595  1.1717 -2.9399
  136OSM    H7T14770   4.540   4.323   6.958 -1.8356  0.7019  1.1342
  136OSM    C8S14771   4.474   4.190   7.105  0.0286 -0.2463  0.1780
  136OSM    H8S14772   4.429   4.090   7.124  0.8992 -0.5565  0.6686
  136OSM    H8T14773   4.389   4.243   7.153  0.5418  0.3215  0.4679
  136OSM    C9S14774   4.606   4.204   7.180  0.2017 -0.4562 -0.7158
  136OSM    H9S14775   4.643   4.308   7.183 -1.1170  0.0226 -0.0112
  136OSM    H9T14776   4.681   4.144   7.125  2.3440 -0.4080  1.9172
  136OSM   C10S14777   4.595   4.143   7.321  1.0219  0.6527 -0.7357
  136OSM   H10S14778   4.701   4.144   7.355  0.9122 -1.4076 -0.1706
  136OSM   H10T14779   4.565   4.037   7.308  1.5591  0.6608 -2.1560
  136OSM   C11S14780   4.507   4.212   7.414 -0.4340 -0.2757 -0.2760
  136OSM   H11S14781   4.407   4.244   7.377 -0.3982 -0.2738 -0.3703
  136OSM   H11T14782   4.553   4.306   7.451 -0.4295  0.9937 -3.2829
  136OSM   C12S14783   4.494   4.137   7.551 -0.6480  0.3970 -0.4246
  136OSM   H12S14784   4.592   4.135   7.603 -1.1114  1.4921  0.5355
  136OSM   H12T14785   4.469   4.031   7.531  3.9109 -1.2228  1.1581
  136OSM   C13S14786   4.399   4.208   7.649 -0.3123 -0.6903 -0.2275
  136OSM   H13S14787   4.299   4.184   7.607 -1.4894  1.0255  1.3949
  136OSM   H13T14788   4.429   4.314   7.633 -0.5744 -0.6429 -0.4071
  136OSM   C14S14789   4.413   4.171   7.790  0.2913 -0.5385  0.4846
  136OSM   H14S14790   4.440   4.068   7.820  0.2851 -0.2823  1.4041
  136OSM   H14T14791   4.310   4.184   7.831  1.0074 -0.5468  2.4074
  136OSM   C15S14792   4.502   4.267   7.862 -0.1676  0.2855 -0.3763
  136OSM   H15S14793   4.471   4.371   7.839  2.2965  1.4041  0.9917
  136OSM   H15T14794   4.604   4.250   7.823 -0.2653 -1.9413  0.1925
  136OSM   C16S14795   4.500   4.246   8.020 -0.0121  0.3224  0.3293
  136OSM   H16S14796   4.397   4.241   8.061 -1.5296  0.4359 -3.0523
  136OSM   H16T14797   4.539   4.340   8.062 -0.8958  1.2566 -0.8556
  136OSM   C17S14798   4.569   4.119   8.072  0.3979 -0.8079 -0.1183
  136OSM   H17S14799   4.670   4.106   8.028 -0.2668 -0.8822 -1.7204
  136OSM   H17T14800   4.505   4.030   8.050  1.6404 -1.8685  0.4094
  136OSM   C18S14801   4.583   4.129   8.228 -0.2146  0.2897 -0.3281
  136OSM   H18S14802   4.611   4.227   8.272 -0.3826 -1.0909  3.1208
  136OSM   H18T14803   4.660   4.051   8.246  0.7690  1.3661  0.3338
  136OSM   H18U14804   4.496   4.086   8.281  1.1026 -1.7940  0.2743
  136OSM    C1F14805   4.265   4.456   6.489 -0.2493 -0.9175  0.1096
  136OSM     OF14806   4.172   4.404   6.428 -0.4144 -0.8699 -0.4192
  136OSM    C2F14807   4.242   4.569   6.584  0.3518  0.0520 -0.2727
  136OSM    H2F14808   4.145   4.618   6.558  1.0876  2.0076  0.4452
  136OSM    H2G14809   4.319   4.648   6.575 -0.3709  0.7438 -0.5402
  136OSM    C3F14810   4.224   4.532   6.735 -0.1310 -0.0369 -0.6619
  136OSM    H3F14811   4.323   4.492   6.765  0.0270  0.8941  0.0946
  136OSM    H3G14812   4.154   4.451   6.766 -2.0381  2.2328  1.3973
  136OSM    C4F14813   4.182   4.657   6.824  0.4573  0.0329 -0.5234
  136OSM    H4F14814   4.074   4.676   6.807  0.6487  1.4718 -0.2456
  136OSM    H4G14815   4.240   4.749   6.800  2.6399 -1.2648 -0.5715
  136OSM    C5F14816   4.199   4.631   6.975  0.0867 -0.1450 -0.3851
  136OSM    H5F14817   4.183   4.522   6.983  3.0800 -0.8417 -2.0633
  136OSM    H5G14818   4.131   4.691   7.038  2.6450  2.3284  0.2716
  136OSM    C6F14819   4.345   4.655   7.017 -0.3054 -0.1287 -0.3107
  136OSM    H6F14820   4.371   4.753   6.972  1.0340  0.4245  1.5473
  136OSM    H6G14821   4.403   4.576   6.964 -1.0189 -1.3619  0.6859
  136OSM    C7F14822   4.372   4.662   7.167  0.5727  0.2639  0.2634
  136OSM    H7F14823   4.473   4.626   7.197  0.7084 -1.8747 -2.3622
  136OSM    H7G14824   4.288   4.610   7.217  0.8750  0.2178  0.7308
  136OSM    C8F14825   4.374   4.800   7.223 -0.3794  0.2999  0.2283
  136OSM    H8F14826   4.475   4.845   7.207 -0.4208 -0.4603 -2.6253
  136OSM    H8G14827   4.368   4.791   7.333  3.1579 -2.8048  0.3809
  136OSM    C9F14828   4.267   4.895   7.176 -0.1744 -0.4497 -0.0669
  136OSM    H9F14829   4.297   4.962   7.094 -1.5058  2.8669  1.9578
  136OSM   C10F14830   4.133   4.905   7.220 -0.2037  0.2642 -0.9280
  136OSM   H10F14831   4.075   4.986   7.172 -3.4778 -0.9677  0.6887
  136OSM   C11F14832   4.069   4.809   7.322  0.0383  0.1314 -0.2848
  136OSM   H11F14833   4.152   4.741   7.351  0.5672  0.4338 -1.0516
  136OSM   H11G14834   3.985   4.754   7.276 -1.4543  2.0511 -0.0020
  136OSM   C12F14835   4.027   4.884   7.451  0.0646 -0.5518 -0.5851
  136OSM   H12F14836   3.943   4.824   7.493 -0.2174 -1.3285 -2.1965
  136OSM   H12G14837   3.973   4.981   7.442  0.3486 -0.1761  1.2287
  136OSM   C13F14838   4.129   4.903   7.562 -0.0063  0.7218 -0.7000
  136OSM   H13F14839   4.187   4.996   7.547  1.5475 -0.4789 -2.6603
  136OSM   H13G14840   4.198   4.816   7.569 -0.0889  0.7455  1.0065
  136OSM   C14F14841   4.049   4.927   7.693 -0.1314  0.1501  1.0216
  136OSM   H14F14842   4.104   4.887   7.781 -1.5527 -2.6012  0.7639
  136OSM   H14G14843   3.953   4.872   7.698 -1.7992  2.9530  2.1486
  136OSM   C15F14844   4.010   5.075   7.711 -0.1915 -0.2742 -0.4195
  136OSM   H15F14845   3.930   5.106   7.640 -2.1304 -2.2300  0.7889
  136OSM   H15G14846   4.098   5.138   7.687  0.8481 -2.7120 -3.8294
  136OSM   C16F14847   3.943   5.104   7.843  0.0864  0.2385 -0.4104
  136OSM   H16F14848   3.944   5.208   7.882 -0.5186 -0.0420  0.3798
  136OSM   H16G14849   4.005   5.049   7.917 -0.6127 -0.4837 -0.3400
  136OSM   C17F14850   3.798   5.046   7.865 -0.2845 -0.1987  0.5060
  136OSM   H17F14851   3.799   4.938   7.840  0.0120 -0.0128 -0.2950
  136OSM   H17G14852   3.711   5.094   7.815  0.3370  0.2000 -0.2003
  136OSM   C18F14853   3.758   5.057   8.011 -0.3779 -1.2674 -0.5718
  136OSM   H18F14854   3.831   5.007   8.078  1.5866  0.7043 -1.1315
  136OSM   H18G14855   3.653   5.023   8.020 -2.9598  4.5766 -3.5903
  136OSM   H18H14856   3.748   5.165   8.035  0.5585 -0.8350 -1.9693
  137OSM      N14857   2.065   2.863   6.145  0.8262 -0.3824 -0.1866
  137OSM    C1514858   1.938   2.911   6.097 -0.0051  0.1830 -1.2308
  137OSM   H15A14859   1.944   2.937   5.993 -0.0446 -2.8013 -2.0474
  137OSM   H15B14860   1.916   3.007   6.142 -0.1820  0.1409 -1.2246
  137OSM   H15C14861   1.853   2.844   6.108  0.6904 -0.8730 -2.1336
  137OSM    C1414862   2.094   2.739   6.070  1.0076 -0.3469  0.5659
  137OSM   H14A14863   2.188   2.700   6.106  0.6560 -0.0706  1.8298
  137OSM   H14B14864   2.092   2.742   5.962  1.0702  0.8305  0.5875
  137OSM   H14C14865   2.021   2.665   6.100  0.5248 -0.4508 -0.7966
  137OSM    C1314866   2.174   2.972   6.110 -0.1822 -0.9743 -0.5600
  137OSM   H13A14867   2.275   2.940   6.131  0.5498  1.7413  0.4987
  137OSM   H13B14868   2.163   3.060   6.173 -1.4646 -1.5261  0.0188
  137OSM   H13C14869   2.175   3.010   6.009  1.9140  0.8511  0.0577
  137OSM    C1214870   2.065   2.839   6.297  0.2699  0.1113  0.5401
  137OSM   H12A14871   2.071   2.937   6.344  0.9117  0.2720  0.1309
  137OSM   H12B14872   2.150   2.780   6.328 -0.1751 -3.1408 -3.5372
  137OSM    C1114873   1.954   2.758   6.361  0.0988  1.1167 -0.0114
  137OSM   H11A14874   1.864   2.795   6.306  1.2767  1.6568 -1.6578
  137OSM   H11B14875   1.946   2.801   6.463 -1.5845  1.9907 -0.4789
  137OSM      P14876   1.861   2.516   6.393 -0.4212  0.3355 -0.1319
  137OSM    O1314877   1.731   2.559   6.333 -0.4777 -0.4921  0.2638
  137OSM    O1414878   1.908   2.384   6.355  1.3566  0.0738  0.0239
  137OSM    O1114879   1.868   2.512   6.551  0.0262 -0.3531 -0.1004
  137OSM    O1214880   1.978   2.615   6.356  0.4425  0.1105  0.3622
  137OSM    C1S14881   1.986   2.529   6.626 -0.2046 -0.2459 -0.8529
  137OSM    H1S14882   2.059   2.602   6.586 -1.0548  1.6773  0.9497
  137OSM    H1T14883   2.039   2.431   6.626  2.2996  1.0200 -1.0493
  137OSM     NF14884   2.076   2.613   6.842 -0.0749 -0.4041 -0.0176
  137OSM    HNF14885   2.121   2.541   6.893  1.0032  0.5385  0.4024
  137OSM    C2S14886   1.952   2.571   6.770  0.3954  0.0542  0.8117
  137OSM    H2S14887   1.876   2.652   6.761  0.2384  0.0375  1.9005
  137OSM    C3S14888   1.873   2.450   6.836 -1.4159 -0.7799 -0.3996
  137OSM    H3S14889   1.949   2.372   6.853 -0.0092  0.0190 -2.5723
  137OSM     O314890   1.773   2.385   6.760 -0.3689 -0.4536  0.2005
  137OSM    HO314891   1.781   2.428   6.674  0.5781  0.3959  0.7019
  137OSM    C4S14892   1.819   2.505   6.967 -0.1098  0.4106 -0.4050
  137OSM    H4S14893   1.883   2.492   7.056 -2.5310 -1.7915  1.1450
  137OSM    C5S14894   1.698   2.567   6.986  0.1229 -0.2338  0.3429
  137OSM    H5S14895   1.627   2.587   6.904  1.1078 -3.4244 -1.4514
  137OSM    C6S14896   1.652   2.624   7.118  0.1084  0.3051 -0.4549
  137OSM    H6S14897   1.568   2.557   7.145 -0.1320  0.9770  0.5200
  137OSM    H6T14898   1.617   2.729   7.114  3.0744  1.3939 -0.0936
  137OSM    C7S14899   1.744   2.610   7.246  0.5487 -0.8159  0.4111
  137OSM    H7S14900   1.810   2.699   7.255 -2.2813  1.5108 -0.2028
  137OSM    H7T14901   1.788   2.510   7.227  0.2333 -0.6659 -1.2763
  137OSM    C8S14902   1.659   2.613   7.373  0.3625  0.3520  0.2814
  137OSM    H8S14903   1.572   2.544   7.366  1.3841 -0.8301 -1.5484
  137OSM    H8T14904   1.624   2.714   7.403  0.8239  1.0652 -1.4383
  137OSM    C9S14905   1.739   2.568   7.498 -0.4363  0.5385  0.2839
  137OSM    H9S14906   1.823   2.640   7.496 -1.7611  2.1503 -1.4561
  137OSM    H9T14907   1.781   2.466   7.496  2.1202  1.5415 -0.2912
  137OSM   C10S14908   1.669   2.593   7.630  0.0472  0.9203 -0.1266
  137OSM   H10S14909   1.611   2.502   7.659  1.5342  0.9887  3.6280
  137OSM   H10T14910   1.607   2.685   7.633  0.8970  1.5163 -0.5509
  137OSM   C11S14911   1.774   2.613   7.744  0.1475  0.0862  0.1290
  137OSM   H11S14912   1.835   2.700   7.711  0.8827 -0.5954 -0.3473
  137OSM   H11T14913   1.841   2.526   7.759  1.1516  0.6669 -0.8673
  137OSM   C12S14914   1.701   2.650   7.873 -0.7542 -0.7426  0.3790
  137OSM   H12S14915   1.641   2.563   7.905 -3.0120  0.7498  0.4373
  137OSM   H12T14916   1.628   2.730   7.847  0.1726 -0.9090 -3.3275
  137OSM   C13S14917   1.808   2.689   7.976  0.6068 -0.2273  0.0462
  137OSM   H13S14918   1.872   2.777   7.953  0.9029 -0.3632  0.3405
  137OSM   H13T14919   1.883   2.607   7.971  0.7798 -0.0611 -4.9029
  137OSM   C14S14920   1.748   2.722   8.115 -0.2839  0.0457 -0.1484
  137OSM   H14S14921   1.692   2.631   8.147  0.9441 -0.4094  0.7592
  137OSM   H14T14922   1.680   2.808   8.099  1.2543  1.3158 -0.0483
  137OSM   C15S14923   1.847   2.766   8.226 -0.0811 -0.5726  0.6247
  137OSM   H15S14924   1.911   2.842   8.176 -2.7370  1.6753  0.3896
  137OSM   H15T14925   1.901   2.676   8.263 -0.3755 -0.2489  1.9085
  137OSM   C16S14926   1.767   2.820   8.347 -0.5510 -0.7273  0.3719
  137OSM   H16S14927   1.674   2.867   8.310  0.6777  0.4360 -1.4098
  137OSM   H16T14928   1.827   2.902   8.392 -0.7099  0.8580 -2.1357
  137OSM   C17S14929   1.735   2.717   8.452 -0.1731  0.7208 -0.6798
  137OSM   H17S14930   1.830   2.660   8.453  0.3447  1.2945 -4.3337
  137OSM   H17T14931   1.652   2.649   8.423 -0.6640  0.6273  0.8620
  137OSM   C18S14932   1.708   2.769   8.596  0.7344  0.0888 -0.6899
  137OSM   H18S14933   1.709   2.687   8.672  3.2204  0.2667 -0.4586
  137OSM   H18T14934   1.616   2.832   8.594  0.2717 -0.5303  0.1735
  137OSM   H18U14935   1.790   2.838   8.624 -0.1392  1.2456 -0.9246
  137OSM    C1F14936   2.129   2.731   6.814  0.5178 -0.0862  0.2815
  137OSM     OF14937   2.070   2.816   6.754 -0.7263 -0.0118 -0.1788
  137OSM    C2F14938   2.269   2.755   6.865 -0.3442  0.4840  0.4185
  137OSM    H2F14939   2.343   2.769   6.783  0.5800 -0.4515  1.0595
  137OSM    H2G14940   2.305   2.661   6.912  0.3260 -0.3577 -1.6425
  137OSM    C3F14941   2.294   2.878   6.960  0.9773 -0.0549  0.6407
  137OSM    H3F14942   2.270   2.967   6.899  1.0114  0.8755  1.9650
  137OSM    H3G14943   2.403   2.888   6.980  1.2403  0.3044 -0.8510
  137OSM    C4F14944   2.213   2.865   7.087 -0.9020  0.1735 -0.2416
  137OSM    H4F14945   2.284   2.797   7.138  0.7038  0.9174 -1.3802
  137OSM    H4G14946   2.107   2.832   7.081 -0.7130 -1.7065  3.6502
  137OSM    C5F14947   2.221   2.986   7.181 -0.1120 -0.5543  1.1113
  137OSM    H5F14948   2.169   3.067   7.126  1.4267  0.2620  0.8013
  137OSM    H5G14949   2.320   3.035   7.193 -1.3886  3.1653 -1.5875
  137OSM    C6F14950   2.156   2.965   7.313 -0.6940 -0.1544 -0.0232
  137OSM    H6F14951   2.153   3.069   7.352  0.4290  0.2316 -0.9208
  137OSM    H6G14952   2.205   2.894   7.383 -1.2991 -0.0627  0.5071
  137OSM    C7F14953   2.013   2.909   7.304  0.4624  0.1387 -0.1810
  137OSM    H7F14954   2.003   2.800   7.286 -2.0853 -0.1048  2.0131
  137OSM    H7G14955   1.963   2.952   7.215 -1.5856 -1.5078  0.0899
  137OSM    C8F14956   1.931   2.932   7.430  0.3447 -0.6318 -0.8763
  137OSM    H8F14957   2.001   2.913   7.514  0.7549 -0.7399 -1.2376
  137OSM    H8G14958   1.845   2.861   7.426 -0.4374  0.1212  1.1778
  137OSM    C9F14959   1.869   3.071   7.437  0.4023  0.6192 -0.3431
  137OSM    H9F14960   1.788   3.088   7.364  0.3245  0.4550 -0.2942
  137OSM   C10F14961   1.885   3.168   7.525  0.7378  0.7466 -0.6671
  137OSM   H10F14962   1.841   3.267   7.505 -1.2383 -0.4997 -3.0044
  137OSM   C11F14963   1.986   3.164   7.644 -0.7377 -0.4912  0.1999
  137OSM   H11F14964   2.020   3.266   7.671 -1.2611 -0.7108  1.7733
  137OSM   H11G14965   2.074   3.104   7.615  1.6216  2.1777  1.3155
  137OSM   C12F14966   1.917   3.122   7.776  0.5130  0.9319 -1.2377
  137OSM   H12F14967   2.003   3.105   7.844  1.3318  1.8559 -1.9999
  137OSM   H12G14968   1.862   3.026   7.764  2.4606 -0.4468  0.2095
  137OSM   C13F14969   1.821   3.225   7.846 -0.1980 -0.5883  0.5969
  137OSM   H13F14970   1.716   3.192   7.830 -0.6344  1.4437 -1.1558
  137OSM   H13G14971   1.839   3.319   7.790  1.5774 -1.2242  0.0435
  137OSM   C14F14972   1.854   3.256   7.996  0.0962  0.2595 -0.9369
  137OSM   H14F14973   1.853   3.163   8.058 -1.3567 -1.0357 -2.7878
  137OSM   H14G14974   1.764   3.307   8.036  0.3937 -1.6615  2.6638
  137OSM   C15F14975   1.988   3.345   8.025  0.6785 -0.2728  0.5556
  137OSM   H15F14976   2.002   3.421   7.945  2.1336 -0.8764  0.2122
  137OSM   H15G14977   2.062   3.264   8.036  0.6198 -0.3783  0.1703
  137OSM   C16F14978   1.976   3.413   8.166 -0.2221  0.4587 -0.0731
  137OSM   H16F14979   1.908   3.501   8.172  1.4282  1.7696  0.0905
  137OSM   H16G14980   2.071   3.468   8.179 -0.6475  1.4712 -1.0888
  137OSM   C17F14981   1.951   3.318   8.282  0.1608 -0.3241  0.0314
  137OSM   H17F14982   1.864   3.251   8.272  0.0980 -0.3105  0.4647
  137OSM   H17G14983   1.915   3.384   8.364  0.0624 -1.9796  1.3845
  137OSM   C18F14984   2.075   3.230   8.318 -0.2026 -0.5154  0.1583
  137OSM   H18F14985   2.060   3.179   8.416 -0.3066 -0.1389  0.3418
  137OSM   H18G14986   2.163   3.297   8.330 -1.2646  0.8804  0.5336
  137OSM   H18H14987   2.091   3.156   8.237 -2.5839 -0.3344 -0.5576
  138OSM      N14988   2.630   5.872   5.985 -0.0789  0.3533 -1.2693
  138OSM    C1514989   2.727   5.851   5.882  0.1709  0.4130 -0.2245
  138OSM   H15A14990   2.677   5.797   5.804 -0.5921 -0.3444  0.7598
  138OSM   H15B14991   2.817   5.801   5.914 -1.4633 -2.6984 -0.1924
  138OSM   H15C14992   2.755   5.947   5.840  0.3198 -0.3803 -2.0082
  138OSM    C1414993   2.687   5.953   6.106  0.2552  0.8459  0.0284
  138OSM   H14A14994   2.758   5.894   6.162 -3.0196 -1.2745  2.3694
  138OSM   H14B14995   2.607   5.961   6.178 -0.1276 -1.1518 -0.1085
  138OSM   H14C14996   2.722   6.052   6.084 -1.4522  0.6642 -4.5536
  138OSM    C1314997   2.520   5.947   5.922 -0.6283  0.0232 -0.3533
  138OSM   H13A14998   2.447   5.973   5.997  2.1163 -0.1045  2.5712
  138OSM   H13B14999   2.474   5.887   5.844 -2.7475  1.7667 -0.5545
  138OSM   H13C15000   2.546   6.041   5.876 -2.0821  1.2563  1.2042
  138OSM    C1215001   2.588   5.737   6.040 -0.7462  0.0858  0.0996
  138OSM   H12A15002   2.518   5.751   6.121  0.2307  1.2067  0.7693
  138OSM   H12B15003   2.675   5.690   6.083 -0.2610  1.3757  0.5602
  138OSM    C1115004   2.518   5.627   5.945  0.0655 -0.3028  0.2075
  138OSM   H11A15005   2.493   5.541   6.011  1.7309  0.9035  2.5904
  138OSM   H11B15006   2.591   5.579   5.876  0.2025 -1.1381  0.9200
  138OSM      P15007   2.254   5.655   5.945 -0.8468 -0.0398  0.1801
  138OSM    O1315008   2.161   5.750   5.880 -0.4741  0.1135 -0.0160
  138OSM    O1415009   2.212   5.512   5.934 -0.2652  0.0621 -0.3280
  138OSM    O1115010   2.274   5.701   6.099 -0.6525 -0.3196 -0.1247
  138OSM    O1215011   2.403   5.671   5.879  0.2307 -0.4633  0.4808
  138OSM    C1S15012   2.258   5.611   6.204  0.0819 -0.0450  0.0555
  138OSM    H1S15013   2.304   5.515   6.172  1.0562  0.6094 -0.5386
  138OSM    H1T15014   2.149   5.593   6.219 -0.0003  0.5671  0.2047
  138OSM     NF15015   2.296   5.560   6.448 -0.0877 -0.5743  0.2717
  138OSM    HNF15016   2.212   5.581   6.498  0.0504  0.7157 -0.0132
  138OSM    C2S15017   2.316   5.659   6.340  0.6967  0.6880 -0.1054
  138OSM    H2S15018   2.425   5.670   6.322  1.0016 -1.6274  0.0055
  138OSM    C3S15019   2.259   5.803   6.361  0.4634  0.3777 -0.3201
  138OSM    H3S15020   2.148   5.806   6.366  0.3520 -0.3529 -1.7149
  138OSM     O315021   2.290   5.904   6.260  0.9036  0.1949  0.1677
  138OSM    HO315022   2.306   5.841   6.190  0.5869 -0.9578  1.1032
  138OSM    C4S15023   2.298   5.843   6.502 -0.1607 -0.9661 -0.4384
  138OSM    H4S15024   2.214   5.866   6.569 -0.4212  1.5502 -1.5149
  138OSM    C5S15025   2.423   5.882   6.535 -0.3638  0.0976  0.4322
  138OSM    H5S15026   2.505   5.869   6.463  0.9385  1.4993  1.5647
  138OSM    C6S15027   2.464   5.918   6.672 -1.4104 -0.0765  0.6034
  138OSM    H6S15028   2.471   6.027   6.690  1.3237 -0.1744  0.5483
  138OSM    H6T15029   2.566   5.878   6.695 -0.3730  1.6927 -0.6803
  138OSM    C7S15030   2.369   5.849   6.777  0.2490 -0.9583 -0.0597
  138OSM    H7S15031   2.334   5.747   6.751 -0.2947 -0.4372 -1.4354
  138OSM    H7T15032   2.282   5.918   6.784  1.4922  0.5950  0.9349
  138OSM    C8S15033   2.436   5.849   6.914 -0.0707 -0.3037 -0.2603
  138OSM    H8S15034   2.441   5.957   6.940 -0.0236  0.2031 -2.2255
  138OSM    H8T15035   2.542   5.816   6.905  0.2410  1.0787 -2.4370
  138OSM    C9S15036   2.353   5.780   7.014 -0.0224  0.9692 -0.5985
  138OSM    H9S15037   2.367   5.674   6.985 -1.3623  0.4876  0.3808
  138OSM    H9T15038   2.244   5.804   7.014 -0.3426 -0.4182 -1.0565
  138OSM   C10S15039   2.413   5.790   7.149 -0.4365 -0.8112 -0.3438
  138OSM   H10S15040   2.428   5.897   7.176 -0.7672 -0.5145 -1.2925
  138OSM   H10T15041   2.519   5.760   7.138 -0.2452 -0.2785 -0.0108
  138OSM   C11S15042   2.341   5.717   7.261  0.2448  0.7851  0.1860
  138OSM   H11S15043   2.328   5.609   7.239  0.5137  0.8120 -0.1119
  138OSM   H11T15044   2.237   5.757   7.255  0.0542  0.5735  1.5640
  138OSM   C12S15045   2.390   5.749   7.402 -0.2933 -0.3253  0.0461
  138OSM   H12S15046   2.367   5.856   7.419 -2.2922 -0.8573  0.9584
  138OSM   H12T15047   2.495   5.720   7.428 -0.5464  0.4919  2.1709
  138OSM   C13S15048   2.305   5.675   7.515 -0.1397 -0.5682  0.6473
  138OSM   H13S15049   2.249   5.581   7.496 -3.2235  1.5165 -1.3503
  138OSM   H13T15050   2.221   5.737   7.551  0.3911 -1.1509  3.1029
  138OSM   C14S15051   2.389   5.644   7.639  0.3076  0.3545 -0.0496
  138OSM   H14S15052   2.430   5.737   7.685 -0.3761 -0.0889  1.5230
  138OSM   H14T15053   2.472   5.579   7.604 -0.9165 -1.5050  0.3822
  138OSM   C15S15054   2.303   5.565   7.742 -0.1162 -0.2784  0.6135
  138OSM   H15S15055   2.254   5.481   7.689  0.8741 -1.1972  1.1012
  138OSM   H15T15056   2.221   5.630   7.780  1.3917  0.9282  1.9226
  138OSM   C16S15057   2.387   5.519   7.858  0.0509  0.1876  0.6277
  138OSM   H16S15058   2.412   5.615   7.907 -1.5347  1.6184 -1.1821
  138OSM   H16T15059   2.478   5.464   7.825  0.1592 -0.8795  2.5701
  138OSM   C17S15060   2.303   5.431   7.958  0.5062 -0.9370  0.1445
  138OSM   H17S15061   2.216   5.493   7.988  0.4361 -1.0417  0.1581
  138OSM   H17T15062   2.368   5.428   8.048 -1.0816  3.0895  1.6406
  138OSM   C18S15063   2.271   5.295   7.910 -0.2794  0.1898  0.1173
  138OSM   H18S15064   2.360   5.232   7.886 -1.0766 -1.2275  0.7413
  138OSM   H18T15065   2.210   5.293   7.817  0.8455  0.2572 -0.6387
  138OSM   H18U15066   2.210   5.229   7.976 -0.5560 -1.0585 -1.3174
  138OSM    C1F15067   2.352   5.442   6.447  0.5278 -0.7690  0.1336
  138OSM     OF15068   2.440   5.421   6.362  0.3136 -0.8282  0.0528
  138OSM    C2F15069   2.301   5.342   6.545 -0.4804 -1.1325 -0.1705
  138OSM    H2F15070   2.341   5.240   6.533  0.6146 -0.7274 -0.1253
  138OSM    H2G15071   2.190   5.339   6.540 -0.5749 -1.2947  1.4453
  138OSM    C3F15072   2.332   5.379   6.695 -0.3085 -0.2230  0.2229
  138OSM    H3F15073   2.294   5.481   6.716 -1.2718 -1.0568  2.9961
  138OSM    H3G15074   2.441   5.378   6.717  0.0341  1.0898 -1.1796
  138OSM    C4F15075   2.274   5.278   6.785 -0.0226  0.5268  0.0092
  138OSM    H4F15076   2.313   5.180   6.750 -1.0347  0.3077 -0.5682
  138OSM    H4G15077   2.163   5.280   6.779  0.0315  0.3763 -2.0884
  138OSM    C5F15078   2.315   5.311   6.930  0.9874 -0.3127 -0.0036
  138OSM    H5F15079   2.283   5.417   6.938  0.7092 -0.4810  1.3734
  138OSM    H5G15080   2.425   5.311   6.948  0.9624 -0.5843  0.1583
  138OSM    C6F15081   2.240   5.218   7.029  0.8178  0.0004  0.3477
  138OSM    H6F15082   2.295   5.123   7.013  1.0835  0.0855  0.7212
  138OSM    H6G15083   2.137   5.197   6.995  1.2027 -0.5258 -0.5478
  138OSM    C7F15084   2.250   5.260   7.178 -0.1434 -0.0197 -0.5332
  138OSM    H7F15085   2.173   5.336   7.200  2.0716  1.8156  1.3289
  138OSM    H7G15086   2.352   5.299   7.196 -1.3738  1.8993  3.1478
  138OSM    C8F15087   2.219   5.143   7.278  0.3553 -0.0288  0.5243
  138OSM    H8F15088   2.253   5.188   7.373 -0.4572  1.1724  0.2840
  138OSM    H8G15089   2.267   5.045   7.260 -1.1806 -0.3007 -2.9646
  138OSM    C9F15090   2.070   5.119   7.290 -0.8280  1.0191  0.2306
  138OSM    H9F15091   2.040   5.021   7.251 -1.5362  0.5654  1.8302
  138OSM   C10F15092   1.980   5.183   7.364  0.3218  0.5072  1.1159
  138OSM   H10F15093   1.882   5.133   7.370  0.1084  0.4737 -1.6178
  138OSM   C11F15094   1.983   5.304   7.453 -0.1528 -0.2981 -0.3489
  138OSM   H11F15095   1.904   5.378   7.426  0.3932  1.5323  2.5659
  138OSM   H11G15096   2.081   5.358   7.456 -0.2671 -0.1348  0.9940
  138OSM   C12F15097   1.956   5.260   7.600  0.8564 -0.7773  0.8261
  138OSM   H12F15098   1.963   5.354   7.659  1.5520  0.7573 -1.5593
  138OSM   H12G15099   2.038   5.197   7.640  1.1465 -0.5088  0.6505
  138OSM   C13F15100   1.820   5.188   7.629 -0.3854  0.0538 -0.5821
  138OSM   H13F15101   1.820   5.091   7.575  1.4277 -0.4402  0.2326
  138OSM   H13G15102   1.737   5.257   7.601 -1.3097  0.5515  2.9825
  138OSM   C14F15103   1.791   5.162   7.781  0.6985  0.1131  0.0809
  138OSM   H14F15104   1.889   5.119   7.809  0.5750  1.8350  3.6152
  138OSM   H14G15105   1.700   5.098   7.779  0.5186  0.3784 -0.7041
  138OSM   C15F15106   1.768   5.283   7.876 -0.0083  0.3489  0.5814
  138OSM   H15F15107   1.681   5.340   7.836 -1.8771 -1.1619  2.3091
  138OSM   H15G15108   1.866   5.334   7.882  2.3025 -3.8157  1.5341
  138OSM   C16F15109   1.730   5.246   8.025  0.2576 -0.1473  0.4564
  138OSM   H16F15110   1.650   5.169   8.023  0.2152 -0.0996  0.2690
  138OSM   H16G15111   1.694   5.341   8.072  0.6237  0.7307 -0.9697
  138OSM   C17F15112   1.847   5.185   8.098 -0.6295 -1.0884 -0.1053
  138OSM   H17F15113   1.871   5.092   8.043  2.2438 -0.7628  0.4605
  138OSM   H17G15114   1.819   5.155   8.202 -0.7127 -0.8439 -0.0570
  138OSM   C18F15115   1.985   5.264   8.105 -0.1902  0.7943 -0.0108
  138OSM   H18F15116   1.986   5.327   8.197  1.7062  0.1184  0.4671
  138OSM   H18G15117   2.011   5.326   8.016 -1.7168  0.1201 -0.9779
  138OSM   H18H15118   2.058   5.182   8.115 -0.0725  1.0230  1.1824
  139OSM      N15119   0.789   5.588   5.787 -0.5127 -0.5511 -0.2735
  139OSM    C1515120   0.913   5.510   5.742  0.9176 -0.1325 -0.1215
  139OSM   H15A15121   0.876   5.468   5.649 -0.9283  2.7198 -0.8147
  139OSM   H15B15122   0.939   5.425   5.803  0.1538  0.8735  1.6820
  139OSM   H15C15123   0.994   5.573   5.708 -0.4358  0.6125 -2.1643
  139OSM    C1415124   0.752   5.684   5.678 -0.7888 -0.4170  0.5687
  139OSM   H14A15125   0.659   5.733   5.703 -0.2393 -0.0316  1.9254
  139OSM   H14B15126   0.727   5.641   5.582  0.4239  0.2018 -0.0474
  139OSM   H14C15127   0.828   5.760   5.665 -0.1939 -1.1640 -0.5821
  139OSM    C1315128   0.675   5.502   5.829 -0.4131  0.7085  0.8342
  139OSM   H13A15129   0.657   5.420   5.761  2.6675  1.9487 -1.6780
  139OSM   H13B15130   0.584   5.556   5.851 -1.9746 -1.3388 -0.2292
  139OSM   H13C15131   0.692   5.445   5.920  1.8291 -1.0969 -0.6161
  139OSM    C1215132   0.837   5.680   5.906 -0.3921  0.0042 -0.7445
  139OSM   H12A15133   0.759   5.746   5.941  2.2128  3.3278 -0.6649
  139OSM   H12B15134   0.921   5.733   5.864  1.2654 -2.1236 -0.3298
  139OSM    C1115135   0.896   5.612   6.039 -0.6039 -0.2007  0.1830
  139OSM   H11A15136   0.947   5.688   6.101  0.3657 -1.3077  0.7754
  139OSM   H11B15137   0.979   5.540   6.023 -0.9106 -0.5639  0.2004
  139OSM      P15138   0.697   5.637   6.217  0.0410 -0.0747 -0.4103
  139OSM    O1315139   0.704   5.781   6.176  0.0004  0.1646 -0.8273
  139OSM    O1415140   0.566   5.573   6.235  0.3490 -1.1892  0.2717
  139OSM    O1115141   0.781   5.620   6.354 -0.0727  0.7118 -0.6029
  139OSM    O1215142   0.790   5.547   6.121 -0.7955 -0.8577  0.4938
  139OSM    C1S15143   0.878   5.720   6.387 -0.5317  0.9802 -0.1379
  139OSM    H1S15144   0.844   5.822   6.359 -1.4603 -0.1557 -3.7180
  139OSM    H1T15145   0.970   5.700   6.327 -0.4494  0.3315  0.1919
  139OSM     NF15146   1.013   5.828   6.575 -0.2484  0.0107  0.6355
  139OSM    HNF15147   1.101   5.808   6.618 -0.6397  0.9684  1.9568
  139OSM    C2S15148   0.922   5.718   6.540 -0.5844 -0.4161  0.3408
  139OSM    H2S15149   0.832   5.737   6.602 -0.5837  0.6693  0.0346
  139OSM    C3S15150   0.972   5.580   6.580 -0.2322 -0.4827 -0.1429
  139OSM    H3S15151   1.071   5.555   6.536  0.6028  0.9579  0.8393
  139OSM     O315152   0.885   5.477   6.538  0.2486  0.1995  0.3336
  139OSM    HO315153   0.834   5.523   6.471 -1.1485 -0.7762  0.6823
  139OSM    C4S15154   0.995   5.572   6.728  0.3498  0.2172  0.7356
  139OSM    H4S15155   1.096   5.537   6.755  0.7412  1.4091  0.8824
  139OSM    C5S15156   0.906   5.577   6.835  0.4849  0.4906 -0.2120
  139OSM    H5S15157   0.799   5.587   6.809  0.1669 -0.7789  0.5450
  139OSM    C6S15158   0.935   5.570   6.989 -1.1890 -0.4104  0.4892
  139OSM    H6S15159   1.044   5.564   7.005 -1.0416 -1.1696 -0.6079
  139OSM    H6T15160   0.916   5.465   7.021  3.0069 -1.5604 -0.2701
  139OSM    C7S15161   0.859   5.669   7.077 -0.5587  0.3480  0.3244
  139OSM    H7S15162   0.748   5.678   7.066 -0.5429  3.3651  1.4905
  139OSM    H7T15163   0.898   5.770   7.053  0.5469 -0.2122 -0.2759
  139OSM    C8S15164   0.881   5.628   7.222 -0.3555 -0.3185  0.0703
  139OSM    H8S15165   0.990   5.626   7.242 -0.4027  0.0029  0.3846
  139OSM    H8T15166   0.846   5.527   7.253 -3.1668  0.6020  0.1972
  139OSM    C9S15167   0.821   5.739   7.311 -0.7021 -0.2355 -0.3943
  139OSM    H9S15168   0.716   5.761   7.281 -0.4914  2.4437  0.5620
  139OSM    H9T15169   0.867   5.839   7.297 -1.7827  0.2363 -0.6934
  139OSM   C10S15170   0.823   5.677   7.451  0.4727 -0.6726  0.7805
  139OSM   H10S15171   0.921   5.644   7.489  0.4701 -0.9647  0.5345
  139OSM   H10T15172   0.760   5.585   7.450 -1.9183  0.7708  3.4131
  139OSM   C11S15173   0.744   5.754   7.557  0.0273  0.5914 -0.1005
  139OSM   H11S15174   0.636   5.769   7.536 -0.1381 -0.4727 -0.0920
  139OSM   H11T15175   0.785   5.856   7.570  1.1792  0.0908  0.3530
  139OSM   C12S15176   0.761   5.689   7.702  0.2602  0.5255  0.1247
  139OSM   H12S15177   0.863   5.719   7.733  0.6969 -0.7628 -0.0275
  139OSM   H12T15178   0.761   5.578   7.705 -0.1539  0.5345  0.8577
  139OSM   C13S15179   0.655   5.743   7.796 -0.5029  0.3316 -0.9949
  139OSM   H13S15180   0.551   5.710   7.772 -1.2916  1.2152  0.9801
  139OSM   H13T15181   0.660   5.853   7.785 -0.6085  0.4060 -0.3143
  139OSM   C14S15182   0.684   5.697   7.947  0.1803  0.0595 -0.3660
  139OSM   H14S15183   0.787   5.738   7.959 -0.6173  2.3040 -0.6319
  139OSM   H14T15184   0.679   5.586   7.945 -1.3844  0.0695  0.8703
  139OSM   C15S15185   0.588   5.735   8.064 -0.2752  0.2357 -0.9533
  139OSM   H15S15186   0.479   5.720   8.044 -0.0759 -0.0416 -1.8861
  139OSM   H15T15187   0.602   5.844   8.078  1.8751 -0.1235  0.0477
  139OSM   C16S15188   0.615   5.674   8.203 -0.5985 -0.6698  0.4600
  139OSM   H16S15189   0.717   5.709   8.230 -1.3578  2.9549 -0.7433
  139OSM   H16T15190   0.601   5.565   8.188  0.2625 -0.7247  0.0288
  139OSM   C17S15191   0.536   5.733   8.326  0.0712 -0.0048 -0.3294
  139OSM   H17S15192   0.430   5.700   8.321  0.3574 -1.5227  2.0631
  139OSM   H17T15193   0.527   5.843   8.315 -0.9697 -0.0781 -0.3687
  139OSM   C18S15194   0.601   5.696   8.460  0.6178  0.1478  0.7979
  139OSM   H18S15195   0.537   5.734   8.543  0.7316 -1.2153  1.5563
  139OSM   H18T15196   0.705   5.736   8.458  0.3967  0.7054 -1.2591
  139OSM   H18U15197   0.605   5.585   8.471  0.3955  0.2307  1.8511
  139OSM    C1F15198   0.984   5.961   6.564  0.1986  0.3731  0.3453
  139OSM     OF15199   0.862   5.995   6.548 -0.7572 -0.5185 -0.3054
  139OSM    C2F15200   1.094   6.058   6.577 -0.5166 -0.8633 -0.4653
  139OSM    H2F15201   1.107   6.110   6.479  0.3484  1.2730  0.7082
  139OSM    H2G15202   1.191   6.013   6.608 -1.1691 -2.2998 -0.4747
  139OSM    C3F15203   1.064   6.166   6.688 -0.2585  0.0690 -1.1223
  139OSM    H3F15204   0.956   6.191   6.688 -0.6017 -1.1325  1.1125
  139OSM    H3G15205   1.131   6.251   6.662 -0.9368  0.9982  0.0310
  139OSM    C4F15206   1.089   6.120   6.835  0.0840 -0.0330 -0.2748
  139OSM    H4F15207   1.195   6.088   6.835  0.1264  0.1034 -0.7884
  139OSM    H4G15208   1.016   6.041   6.861 -0.9204  1.6249  2.3398
  139OSM    C5F15209   1.076   6.239   6.931  0.0174  0.3419  0.7132
  139OSM    H5F15210   0.998   6.313   6.903  0.9466  1.4597  0.9973
  139OSM    H5G15211   1.171   6.297   6.929 -0.0074  0.3987  1.0611
  139OSM    C6F15212   1.032   6.205   7.076 -0.5578 -0.0326 -0.0416
  139OSM    H6F15213   0.931   6.159   7.076 -0.8380  0.5747  0.4634
  139OSM    H6G15214   1.021   6.300   7.133  2.0780 -0.8822  2.1069
  139OSM    C7F15215   1.125   6.098   7.134  0.1126  0.4617 -0.8407
  139OSM    H7F15216   1.227   6.127   7.103 -0.9959  3.0200 -2.4413
  139OSM    H7G15217   1.097   6.007   7.078 -2.0896  0.7693 -0.3282
  139OSM    C8F15218   1.116   6.080   7.287  0.8087 -0.0633  0.5819
  139OSM    H8F15219   1.012   6.050   7.311  1.0999 -0.8698  0.8696
  139OSM    H8G15220   1.120   6.181   7.334 -1.5924  0.3209  0.0836
  139OSM    C9F15221   1.213   5.981   7.337  0.0044  0.5271 -0.5614
  139OSM    H9F15222   1.261   5.916   7.262 -0.9965 -0.1606 -0.6214
  139OSM   C10F15223   1.229   5.962   7.468 -0.0012  0.2572  0.0307
  139OSM   H10F15224   1.294   5.880   7.503  1.8212  2.0427  1.0200
  139OSM   C11F15225   1.154   6.029   7.581  0.0181  0.0495  0.2921
  139OSM   H11F15226   1.063   6.084   7.550 -1.9897  0.1075  5.2938
  139OSM   H11G15227   1.212   6.122   7.601  0.3549  0.0025 -0.4493
  139OSM   C12F15228   1.120   5.944   7.701 -0.2816  0.1570  0.9053
  139OSM   H12F15229   1.202   5.881   7.742 -1.2515  0.2153  3.0793
  139OSM   H12G15230   1.031   5.880   7.683 -0.5977  0.4566  1.3779
  139OSM   C13F15231   1.081   6.032   7.823  0.3461 -0.6937 -0.1308
  139OSM   H13F15232   1.004   6.104   7.789  1.5531  0.7568  0.1267
  139OSM   H13G15233   1.167   6.097   7.848 -0.5390  0.2968  0.4065
  139OSM   C14F15234   1.034   5.940   7.941 -0.5782 -0.7237  0.4831
  139OSM   H14F15235   1.117   5.875   7.975  0.6770 -0.0626 -1.1734
  139OSM   H14G15236   0.946   5.881   7.908  0.6131 -1.8772 -0.7390
  139OSM   C15F15237   0.994   6.024   8.068 -0.5364  0.2635  0.2196
  139OSM   H15F15238   0.895   6.075   8.062 -0.5280  0.3605  0.8204
  139OSM   H15G15239   1.075   6.097   8.088 -0.4440  0.0169  0.7531
  139OSM   C16F15240   0.969   5.945   8.201  0.3293  0.3462 -0.0263
  139OSM   H16F15241   1.055   5.879   8.225  0.1078  0.7656  2.1602
  139OSM   H16G15242   0.884   5.875   8.186  0.6579  0.3737 -2.3543
  139OSM   C17F15243   0.951   6.036   8.323 -0.3324  0.1758  0.2318
  139OSM   H17F15244   0.862   6.099   8.304 -1.1658 -1.5508 -1.9854
  139OSM   H17G15245   1.046   6.094   8.335  0.8262 -1.0740 -2.1764
  139OSM   C18F15246   0.924   5.955   8.450 -0.4114  0.0215  0.3006
  139OSM   H18F15247   0.910   6.018   8.540 -1.0025 -0.6292  0.6655
  139OSM   H18G15248   1.004   5.881   8.472 -0.3123 -0.8910 -2.5982
  139OSM   H18H15249   0.829   5.897   8.445  1.0966 -2.5482 -0.4721
  140OSM      N15250   1.271   2.016   5.978  0.7659  0.0568 -0.4061
  140OSM    C1515251   1.355   1.892   5.971 -0.1488 -0.7476 -0.1589
  140OSM   H15A15252   1.311   1.824   6.043 -0.7466 -0.1115  0.0944
  140OSM   H15B15253   1.455   1.908   6.008 -0.7306 -0.8916  1.5861
  140OSM   H15C15254   1.353   1.862   5.868  0.1946  0.0718 -0.4097
  140OSM    C1415255   1.334   2.126   5.903 -0.5087 -0.2403  0.0656
  140OSM   H14A15256   1.263   2.207   5.897  0.2240  0.3788 -0.5480
  140OSM   H14B15257   1.360   2.095   5.802  2.8815 -0.1926  0.7829
  140OSM   H14C15258   1.423   2.168   5.948 -0.1796  0.3910 -1.1321
  140OSM    C1315259   1.138   1.985   5.921 -0.1510 -0.3590  0.9699
  140OSM   H13A15260   1.150   1.989   5.814  0.7871 -3.0743  0.9011
  140OSM   H13B15261   1.063   2.060   5.940 -2.4313 -2.2586  0.0253
  140OSM   H13C15262   1.099   1.888   5.947  0.1795 -0.8727 -0.3862
  140OSM    C1215263   1.248   2.055   6.121  0.8364 -0.3497 -0.2541
  140OSM   H12A15264   1.229   2.161   6.123 -0.6694 -0.4625 -3.2221
  140OSM   H12B15265   1.343   2.053   6.171  0.7853 -0.0220 -0.1419
  140OSM    C1115266   1.149   1.973   6.202  0.0628  0.0598 -0.1623
  140OSM   H11A15267   1.047   1.974   6.159 -0.6161 -1.4064  1.3082
  140OSM   H11B15268   1.140   2.030   6.297 -1.9389  1.0954 -0.9310
  140OSM      P15269   1.288   1.803   6.323  0.0379  0.2443 -0.0208
  140OSM    O1315270   1.225   1.806   6.460  0.1579 -0.0901 -0.0209
  140OSM    O1415271   1.357   1.673   6.294  0.4537  0.1755 -0.1631
  140OSM    O1115272   1.396   1.917   6.321  0.1505  0.0289  0.1086
  140OSM    O1215273   1.183   1.840   6.213 -0.1448 -0.5873  0.1458
  140OSM    C1S15274   1.447   1.981   6.438 -0.7971  0.2262 -1.0363
  140OSM    H1S15275   1.382   1.958   6.524 -1.3387  1.2151 -1.1670
  140OSM    H1T15276   1.430   2.090   6.427 -0.9626  0.3374  0.2195
  140OSM     NF15277   1.641   2.013   6.595 -0.6490 -0.1218 -0.6203
  140OSM    HNF15278   1.732   2.051   6.584 -0.8598  0.5436 -0.1259
  140OSM    C2S15279   1.586   1.945   6.477 -0.3991 -0.6817 -0.4885
  140OSM    H2S15280   1.590   1.837   6.501  2.8152 -0.3231  1.1599
  140OSM    C3S15281   1.687   1.961   6.359 -1.0971 -0.1110 -0.4830
  140OSM    H3S15282   1.702   2.070   6.346 -1.1842  0.1353  1.3215
  140OSM     O315283   1.644   1.909   6.240 -0.1720  0.7932 -0.3625
  140OSM    HO315284   1.555   1.876   6.256  0.5396 -0.5055  1.2458
  140OSM    C4S15285   1.823   1.911   6.404 -0.4725  0.3319 -0.1874
  140OSM    H4S15286   1.896   1.987   6.434 -0.5261  0.9454 -1.5548
  140OSM    C5S15287   1.885   1.796   6.401  0.0371  0.4925 -0.8299
  140OSM    H5S15288   1.827   1.707   6.372 -0.2259  0.5667 -0.5303
  140OSM    C6S15289   2.023   1.764   6.451  0.0833  0.1320 -0.2703
  140OSM    H6S15290   2.068   1.853   6.499  0.6303 -0.9260  1.2374
  140OSM    H6T15291   2.088   1.739   6.364  0.7718  1.1009 -0.0422
  140OSM    C7S15292   2.017   1.649   6.548 -0.0547 -0.2694  0.1441
  140OSM    H7S15293   2.125   1.625   6.553 -0.0437 -0.9708 -2.1741
  140OSM    H7T15294   1.977   1.552   6.511 -0.7204 -0.4349  1.2536
  140OSM    C8S15295   1.939   1.668   6.677 -0.5128 -0.0529 -0.1355
  140OSM    H8S15296   1.836   1.699   6.651 -0.4200 -0.4187 -0.9449
  140OSM    H8T15297   1.980   1.762   6.721 -3.4283  1.0046  0.6105
  140OSM    C9S15298   1.945   1.547   6.771  0.5212 -0.2945  0.9394
  140OSM    H9S15299   1.902   1.458   6.720 -1.6390  0.9562  0.4905
  140OSM    H9T15300   1.890   1.563   6.866  1.1619  2.4624  0.9381
  140OSM   C10S15301   2.085   1.510   6.823  1.0382  0.3170 -0.3935
  140OSM   H10S15302   2.123   1.603   6.871  0.0917  0.1687  0.6790
  140OSM   H10T15303   2.149   1.485   6.736  2.1450 -1.6047  0.9060
  140OSM   C11S15304   2.085   1.401   6.933  0.5555  0.1242 -0.2799
  140OSM   H11S15305   2.188   1.364   6.951 -0.1437 -2.0549 -0.5082
  140OSM   H11T15306   2.033   1.311   6.893  1.2800  0.1471 -1.2849
  140OSM   C12S15307   2.025   1.457   7.063  0.6219 -0.5233  0.6319
  140OSM   H12S15308   1.924   1.502   7.051  1.2080  0.9552  0.9731
  140OSM   H12T15309   2.092   1.535   7.105  2.5845 -1.3622 -0.7783
  140OSM   C13S15310   2.031   1.360   7.185 -0.2330 -0.0834  0.4066
  140OSM   H13S15311   2.135   1.322   7.195  0.3083  1.0410 -0.6836
  140OSM   H13T15312   1.972   1.267   7.168  0.6411 -0.7785  1.0918
  140OSM   C14S15313   1.971   1.421   7.307 -0.3756  0.2888  0.5874
  140OSM   H14S15314   1.878   1.473   7.274 -1.3634 -1.6580  0.1607
  140OSM   H14T15315   2.041   1.499   7.343 -0.4753  0.4957  0.3391
  140OSM   C15S15316   1.947   1.304   7.409  0.0929 -0.1034  0.3371
  140OSM   H15S15317   2.045   1.260   7.436  0.3123  0.6360  0.7690
  140OSM   H15T15318   1.886   1.232   7.351  0.8923 -0.1410 -0.4736
  140OSM   C16S15319   1.860   1.334   7.536  0.3841 -0.0732 -0.3757
  140OSM   H16S15320   1.762   1.378   7.507  0.4507  0.0154 -0.4693
  140OSM   H16T15321   1.914   1.406   7.602 -0.1287 -0.5456  0.5838
  140OSM   C17S15322   1.837   1.205   7.627 -0.3235  0.5014  0.1459
  140OSM   H17S15323   1.931   1.169   7.674  0.0119 -0.5773 -1.2846
  140OSM   H17T15324   1.805   1.127   7.554 -0.3913  1.5071 -0.9422
  140OSM   C18S15325   1.742   1.207   7.750  0.8292  0.3560  0.1684
  140OSM   H18S15326   1.668   1.289   7.745  0.2720 -0.1994 -1.0471
  140OSM   H18T15327   1.802   1.210   7.843 -0.2757  1.4751  0.8803
  140OSM   H18U15328   1.688   1.110   7.763  1.1778  0.2072  0.5585
  140OSM    C1F15329   1.587   2.004   6.716 -0.5050  0.5115  0.6704
  140OSM     OF15330   1.490   1.926   6.735  0.1544  0.0391 -0.0914
  140OSM    C2F15331   1.661   2.063   6.829 -0.3331  0.3466 -0.2619
  140OSM    H2F15332   1.601   2.060   6.923  0.7199  0.7165  0.4301
  140OSM    H2G15333   1.687   2.171   6.828 -0.0467  0.3180  1.4984
  140OSM    C3F15334   1.793   1.990   6.851  0.1618  0.5600 -0.5350
  140OSM    H3F15335   1.872   2.049   6.800  1.5633  0.6500  1.6155
  140OSM    H3G15336   1.802   1.883   6.821  1.3260 -0.1210  1.9530
  140OSM    C4F15337   1.821   1.986   7.004  0.0714 -0.4088 -0.1956
  140OSM    H4F15338   1.735   1.946   7.062  0.3554  1.0431  1.3006
  140OSM    H4G15339   1.840   2.088   7.042  1.5148 -1.2928  1.6427
  140OSM    C5F15340   1.953   1.906   7.043  0.2726 -0.8739 -0.2118
  140OSM    H5F15341   2.042   1.943   6.988  0.6266 -1.4185 -0.0140
  140OSM    H5G15342   1.940   1.801   7.010  0.7278 -1.2066  0.6424
  140OSM    C6F15343   1.971   1.903   7.198 -0.1063 -0.2671 -0.4255
  140OSM    H6F15344   1.891   1.840   7.241 -0.1442  1.1625  1.7895
  140OSM    H6G15345   1.959   2.005   7.241 -0.0674 -0.4015 -0.0928
  140OSM    C7F15346   2.098   1.831   7.226 -0.3183 -0.3020 -0.4093
  140OSM    H7F15347   2.179   1.886   7.173  0.3039 -1.1637 -0.3824
  140OSM    H7G15348   2.091   1.737   7.167  0.5719  0.0651 -1.1174
  140OSM    C8F15349   2.130   1.817   7.376  0.2824 -0.8917 -0.4576
  140OSM    H8F15350   2.065   1.740   7.424  0.6235 -0.3666  0.9135
  140OSM    H8G15351   2.113   1.917   7.422  0.4840 -2.3708  3.2127
  140OSM    C9F15352   2.272   1.778   7.397  0.0360 -0.3398  0.3079
  140OSM    H9F15353   2.332   1.775   7.304  0.2865  1.7346  0.3458
  140OSM   C10F15354   2.330   1.747   7.515 -0.4086  0.5691  0.3332
  140OSM   H10F15355   2.431   1.706   7.531 -0.7048  0.8177  3.4471
  140OSM   C11F15356   2.253   1.742   7.643  0.6815  0.4353  0.3095
  140OSM   H11F15357   2.260   1.637   7.679 -2.4460  0.4182  1.1086
  140OSM   H11G15358   2.144   1.744   7.624  1.1094  0.6551 -2.6381
  140OSM   C12F15359   2.302   1.836   7.747 -0.1586  0.5048  0.6800
  140OSM   H12F15360   2.337   1.931   7.701  0.3221  0.4717  0.9735
  140OSM   H12G15361   2.391   1.798   7.802 -0.9936  0.9293  2.4120
  140OSM   C13F15362   2.193   1.865   7.853  0.9286 -0.2844  0.1394
  140OSM   H13F15363   2.111   1.920   7.801  1.3358  0.4156  0.2269
  140OSM   H13G15364   2.240   1.942   7.918 -0.7287  1.3760 -0.5191
  140OSM   C14F15365   2.158   1.754   7.947 -0.0037  0.3183 -0.5738
  140OSM   H14F15366   2.252   1.701   7.974 -1.2890 -0.9241  1.7513
  140OSM   H14G15367   2.093   1.676   7.903  1.3120 -1.0142 -0.2280
  140OSM   C15F15368   2.088   1.799   8.074 -0.3610 -0.0965  0.2890
  140OSM   H15F15369   1.999   1.738   8.101 -0.4092  0.2168  0.8509
  140OSM   H15G15370   2.050   1.901   8.050 -2.0651 -1.1918 -2.0890
  140OSM   C16F15371   2.181   1.792   8.197  0.1423 -0.1921  0.6388
  140OSM   H16F15372   2.280   1.826   8.159  0.6457 -2.3570 -0.1319
  140OSM   H16G15373   2.187   1.683   8.217 -2.0882 -0.2794  1.0209
  140OSM   C17F15374   2.129   1.873   8.321  0.3160 -0.2037  0.1268
  140OSM   H17F15375   2.219   1.899   8.380  1.9137 -0.7854 -1.9780
  140OSM   H17G15376   2.052   1.817   8.380  0.2985  0.3038  0.5901
  140OSM   C18F15377   2.060   2.003   8.281 -0.2377 -0.0428  0.8724
  140OSM   H18F15378   1.969   1.988   8.219  0.8955 -2.5163 -0.3360
  140OSM   H18G15379   2.116   2.071   8.215 -3.6042  1.2429 -0.8914
  140OSM   H18H15380   2.038   2.060   8.374  0.4859 -0.6210  1.4142
  141OSM      N15381   0.198   1.850   6.309 -0.0467 -0.0754 -0.4503
  141OSM    C1515382   0.213   1.984   6.249  0.7562 -0.0404 -0.1893
  141OSM   H15A15383   0.255   2.054   6.319  0.6218 -0.4385  0.2894
  141OSM   H15B15384   0.121   2.018   6.204  0.3308 -0.7574  0.1247
  141OSM   H15C15385   0.269   1.970   6.157 -2.6217 -2.3782 -2.1094
  141OSM    C1415386   0.072   1.840   6.387 -0.6027  0.5359  0.0157
  141OSM   H14A15387   0.061   1.918   6.460  2.0236  1.4854 -0.5245
  141OSM   H14B15388   0.068   1.745   6.438 -1.7624  1.3805  1.5687
  141OSM   H14C15389  -0.009   1.841   6.315  1.4933 -2.1656 -2.6407
  141OSM    C1315390   0.190   1.753   6.195 -0.9193  0.4228 -0.3558
  141OSM   H13A15391   0.114   1.783   6.125 -0.4446 -0.0392 -1.0714
  141OSM   H13B15392   0.160   1.658   6.235  0.2140  1.0192  2.1467
  141OSM   H13C15393   0.283   1.735   6.143  0.2573 -1.2545  2.0909
  141OSM    C1215394   0.319   1.826   6.392  0.0032  0.2936  0.3598
  141OSM   H12A15395   0.306   1.725   6.427  0.3919 -0.2102 -0.9022
  141OSM   H12B15396   0.318   1.898   6.473 -0.1978  2.4238 -1.4286
  141OSM    C1115397   0.463   1.843   6.329 -0.1937 -0.1612 -0.5608
  141OSM   H11A15398   0.481   1.762   6.255  0.3956  0.2633 -0.8958
  141OSM   H11B15399   0.538   1.817   6.407 -0.7631  1.7471  0.7113
  141OSM      P15400   0.518   2.093   6.366  0.4996  0.2422 -0.4926
  141OSM    O1315401   0.651   2.149   6.345  0.0900  0.7279  0.4168
  141OSM    O1415402   0.404   2.186   6.341  0.2421 -0.3678  0.3475
  141OSM    O1115403   0.492   2.028   6.515 -0.1505 -0.5669  0.2917
  141OSM    O1215404   0.497   1.967   6.277 -0.1961  0.8287  0.1422
  141OSM    C1S15405   0.597   1.988   6.601 -0.7750 -0.0378 -0.3045
  141OSM    H1S15406   0.686   2.055   6.592  1.0156 -2.4542 -2.0658
  141OSM    H1T15407   0.640   1.889   6.572 -0.9274 -0.1327 -0.2040
  141OSM     NF15408   0.677   1.957   6.835  0.1519  0.0182  0.5681
  141OSM    HNF15409   0.687   1.865   6.872 -0.2125 -1.2163 -2.1566
  141OSM    C2S15410   0.560   1.979   6.751  0.4340  0.6235  0.8666
  141OSM    H2S15411   0.520   2.076   6.786 -0.2309  1.0639 -0.9848
  141OSM    C3S15412   0.447   1.876   6.759 -0.7091 -0.6056 -0.4789
  141OSM    H3S15413   0.492   1.778   6.732  0.5548 -0.4782  1.0354
  141OSM     O315414   0.335   1.890   6.670 -0.4135  0.5809 -0.2693
  141OSM    HO315415   0.330   1.972   6.622 -2.8112  0.0636 -1.0571
  141OSM    C4S15416   0.404   1.879   6.903 -0.2587 -0.2695  0.6171
  141OSM    H4S15417   0.460   1.819   6.976  1.0831  1.5451  1.1433
  141OSM    C5S15418   0.297   1.941   6.957  0.0184 -0.3592  0.9798
  141OSM    H5S15419   0.226   1.994   6.893 -0.4567 -1.8587  0.2159
  141OSM    C6S15420   0.285   1.942   7.100 -0.1980  0.2770 -0.2687
  141OSM    H6S15421   0.253   1.840   7.130  1.5488  0.0716  1.0819
  141OSM    H6T15422   0.197   2.006   7.120  1.2259  2.3316 -0.2179
  141OSM    C7S15423   0.409   1.982   7.178  0.0377 -0.3557 -0.5179
  141OSM    H7S15424   0.449   2.077   7.136  1.9493 -1.5495 -1.5725
  141OSM    H7T15425   0.486   1.902   7.178  0.3941 -0.0155 -0.5902
  141OSM    C8S15426   0.364   2.011   7.323  1.0316  0.2807  0.7329
  141OSM    H8S15427   0.279   1.946   7.355  1.4817 -0.1230  1.1269
  141OSM    H8T15428   0.323   2.115   7.321  3.9361  1.5214  1.0493
  141OSM    C9S15429   0.488   1.999   7.413 -0.6068  0.1012  0.7942
  141OSM    H9S15430   0.567   2.073   7.387 -0.5463 -0.0896  0.4245
  141OSM    H9T15431   0.527   1.895   7.402 -2.7110 -0.8797  2.1172
  141OSM   C10S15432   0.457   2.025   7.566  0.3510 -0.2788  0.6971
  141OSM   H10S15433   0.386   1.946   7.597  0.0926 -0.6219 -0.6996
  141OSM   H10T15434   0.407   2.124   7.575 -2.4992 -1.5353 -0.2929
  141OSM   C11S15435   0.579   2.008   7.666  0.2019 -0.7217  0.6862
  141OSM   H11S15436   0.643   2.096   7.642 -0.2344 -0.9249 -1.4793
  141OSM   H11T15437   0.639   1.919   7.639 -0.8490 -0.9918 -0.8850
  141OSM   C12S15438   0.535   2.012   7.811 -0.7621 -0.6133  0.2956
  141OSM   H12S15439   0.447   1.945   7.820 -0.7700 -1.3421 -3.5135
  141OSM   H12T15440   0.508   2.119   7.826 -0.4917 -0.6213  0.8364
  141OSM   C13S15441   0.646   1.981   7.916  0.6034  0.3923  0.8340
  141OSM   H13S15442   0.623   2.051   7.999 -0.9484 -0.0236  0.7953
  141OSM   H13T15443   0.748   2.003   7.879  0.8363  1.4645  2.0522
  141OSM   C14S15444   0.624   1.839   7.971  0.3726 -0.8309  0.7300
  141OSM   H14S15445   0.685   1.779   7.901  1.9214  2.4048 -0.9013
  141OSM   H14T15446   0.514   1.821   7.969 -0.6476  3.9336  1.1191
  141OSM   C15S15447   0.684   1.818   8.113  0.7439  0.3242  0.5269
  141OSM   H15S15448   0.631   1.883   8.186 -0.4596  1.9303 -1.6698
  141OSM   H15T15449   0.793   1.838   8.107  0.5338  1.2017 -0.7208
  141OSM   C16S15450   0.656   1.677   8.161 -0.5716  0.0073  0.2992
  141OSM   H16S15451   0.717   1.611   8.097 -0.3643  1.9798 -1.6368
  141OSM   H16T15452   0.548   1.655   8.146 -0.6264  1.0544 -0.9097
  141OSM   C17S15453   0.679   1.647   8.307  0.6539 -0.2115  0.0107
  141OSM   H17S15454   0.621   1.553   8.316 -1.1227  0.5119 -2.6054
  141OSM   H17T15455   0.622   1.724   8.365  0.3727 -0.1258 -0.3752
  141OSM   C18S15456   0.817   1.640   8.372  0.5713 -0.9368  0.1743
  141OSM   H18S15457   0.807   1.636   8.482 -0.4742  1.1288  0.1955
  141OSM   H18T15458   0.872   1.732   8.342  1.2173 -0.7744  1.7786
  141OSM   H18U15459   0.870   1.548   8.339 -0.2590 -0.7693 -1.7738
  141OSM    C1F15460   0.778   2.041   6.843 -0.4537  0.6404  0.3412
  141OSM     OF15461   0.770   2.150   6.790 -0.1821 -0.3110 -0.5619
  141OSM    C2F15462   0.900   2.006   6.923  0.4031  0.1622 -0.5492
  141OSM    H2F15463   0.987   2.025   6.857 -0.5773  1.8585 -1.4057
  141OSM    H2G15464   0.890   1.901   6.959 -4.1767 -0.1791 -2.0910
  141OSM    C3F15465   0.920   2.087   7.054 -0.0278 -0.2206  0.4564
  141OSM    H3F15466   0.934   2.196   7.033  0.2575 -0.3459 -0.0154
  141OSM    H3G15467   1.016   2.057   7.100 -0.4476  0.0031  1.5031
  141OSM    C4F15468   0.808   2.077   7.154 -0.7099 -0.5633  0.0772
  141OSM    H4F15469   0.811   1.971   7.188 -0.5610 -1.1033 -1.5244
  141OSM    H4G15470   0.715   2.098   7.097 -0.0193  1.9902 -0.2011
  141OSM    C5F15471   0.833   2.180   7.273 -0.2918  0.4234  0.4210
  141OSM    H5F15472   0.740   2.192   7.333  0.3300 -0.5409  1.6278
  141OSM    H5G15473   0.867   2.274   7.224  0.0733 -1.1421 -2.5261
  141OSM    C6F15474   0.951   2.135   7.366  0.1987 -0.3856  0.5653
  141OSM    H6F15475   1.046   2.145   7.310 -0.6372 -2.0116 -1.2746
  141OSM    H6G15476   0.928   2.029   7.386 -2.0615 -0.0553  0.0644
  141OSM    C7F15477   0.944   2.217   7.496  0.5639  0.1648 -0.0767
  141OSM    H7F15478   0.839   2.198   7.528  0.1673 -0.0238 -1.4291
  141OSM    H7G15479   0.951   2.326   7.474  2.9690 -0.3378 -2.2569
  141OSM    C8F15480   1.039   2.167   7.601 -0.1070 -0.3690 -0.4649
  141OSM    H8F15481   1.058   2.248   7.675  1.9665  1.6841 -3.0440
  141OSM    H8G15482   1.134   2.158   7.543  1.0183 -1.6148  1.4686
  141OSM    C9F15483   0.991   2.039   7.667  0.4733 -1.0291 -0.5231
  141OSM    H9F15484   0.928   1.979   7.599  2.4763  0.1739 -3.6946
  141OSM   C10F15485   1.021   2.002   7.791  0.3476  0.0981  0.1024
  141OSM   H10F15486   0.982   1.905   7.827 -0.2267  0.2680 -0.0559
  141OSM   C11F15487   1.118   2.073   7.888 -0.6422 -0.0040  0.3357
  141OSM   H11F15488   1.063   2.099   7.981 -0.0573  0.5963  0.5112
  141OSM   H11G15489   1.168   2.161   7.844 -1.4335  0.0705 -0.4449
  141OSM   C12F15490   1.227   1.976   7.936 -0.5393 -0.1214 -0.3210
  141OSM   H12F15491   1.323   2.025   7.963  0.9208 -2.1886 -1.5140
  141OSM   H12G15492   1.251   1.908   7.852  1.2457  0.5703 -0.4041
  141OSM   C13F15493   1.198   1.881   8.054 -0.6195  0.0595  0.4764
  141OSM   H13F15494   1.249   1.786   8.027 -4.1897 -2.2360  0.9808
  141OSM   H13G15495   1.090   1.852   8.052  0.1089 -3.2771 -3.0429
  141OSM   C14F15496   1.239   1.939   8.186  0.2416  0.5757 -0.2497
  141OSM   H14F15497   1.192   2.039   8.196  1.8975  1.4181 -0.3870
  141OSM   H14G15498   1.349   1.949   8.201  0.1449 -0.1850  1.0926
  141OSM   C15F15499   1.189   1.854   8.304  0.7623 -0.4830  0.5770
  141OSM   H15F15500   1.239   1.755   8.307 -0.3634 -1.0552  2.2735
  141OSM   H15G15501   1.080   1.832   8.302  0.5642  0.4765 -0.9504
  141OSM   C16F15502   1.221   1.923   8.435 -0.1663 -0.3001 -0.1335
  141OSM   H16F15503   1.195   2.031   8.440  0.5396 -0.1179 -0.2950
  141OSM   H16G15504   1.331   1.926   8.447 -0.1706 -3.4637  1.9553
  141OSM   C17F15505   1.171   1.849   8.560  0.0819 -0.0527 -0.7140
  141OSM   H17F15506   1.214   1.747   8.556  0.3380 -0.0128  0.4666
  141OSM   H17G15507   1.062   1.839   8.545 -0.0941 -0.7005  0.7718
  141OSM   C18F15508   1.204   1.909   8.695 -0.4645 -0.2355 -0.0908
  141OSM   H18F15509   1.242   1.832   8.765  1.4861  0.1237 -0.7008
  141OSM   H18G15510   1.117   1.958   8.744  3.3264  3.9483  3.3327
  141OSM   H18H15511   1.271   1.996   8.681 -1.2761  0.5817  0.9183
  142OSM      N15512   1.181   4.456   5.928 -0.4826 -0.1776  0.4978
  142OSM    C1515513   1.217   4.315   5.978 -0.2013 -0.4476  0.2311
  142OSM   H15A15514   1.174   4.293   6.074  2.4924 -3.5235  0.9291
  142OSM   H15B15515   1.324   4.300   5.976 -0.3197 -1.1946 -1.4068
  142OSM   H15C15516   1.167   4.250   5.908  0.6419  0.8715 -1.7000
  142OSM    C1415517   1.242   4.482   5.795  0.4806  0.0897 -0.0585
  142OSM   H14A15518   1.346   4.453   5.795  0.5300  0.1140 -2.5327
  142OSM   H14B15519   1.232   4.579   5.749  0.6516  0.1962  0.1260
  142OSM   H14C15520   1.192   4.420   5.721  0.3962 -1.5180  1.2703
  142OSM    C1315521   1.030   4.468   5.915 -0.1528 -0.0415  0.0418
  142OSM   H13A15522   1.005   4.558   5.860 -1.2961 -0.6381 -0.4517
  142OSM   H13B15523   0.979   4.461   6.010 -2.2004 -0.6515 -1.0491
  142OSM   H13C15524   1.014   4.379   5.856  1.4444  0.7594 -1.7216
  142OSM    C1215525   1.231   4.561   6.027 -0.5181  0.9968 -0.5743
  142OSM   H12A15526   1.207   4.659   5.988 -0.5540  0.8938 -0.8116
  142OSM   H12B15527   1.339   4.552   6.033 -0.5693 -2.2122 -2.3766
  142OSM    C1115528   1.175   4.555   6.170  0.4169  0.7276 -0.0537
  142OSM   H11A15529   1.226   4.621   6.243 -0.8198  1.9460 -0.2473
  142OSM   H11B15530   1.185   4.454   6.214 -1.3467  0.8895  0.7888
  142OSM      P15531   0.975   4.737   6.153  0.0584 -0.5464 -0.3623
  142OSM    O1315532   1.056   4.804   6.048 -0.4078 -0.4480 -0.5143
  142OSM    O1415533   0.830   4.725   6.129 -0.3124  0.4788  0.3356
  142OSM    O1115534   0.989   4.805   6.301 -0.2886 -0.2620 -0.2755
  142OSM    O1215535   1.037   4.591   6.180  0.0471 -0.4474  0.0234
  142OSM    C1S15536   0.973   4.734   6.420  0.3715 -0.0532 -0.4163
  142OSM    H1S15537   1.058   4.666   6.444  0.3739  0.3435  0.7367
  142OSM    H1T15538   0.882   4.671   6.432  1.0373 -0.6112  2.7444
  142OSM     NF15539   0.967   4.742   6.658 -0.3644 -0.2321  0.1982
  142OSM    HNF15540   0.876   4.703   6.672 -0.5038  0.2339  0.6085
  142OSM    C2S15541   0.967   4.821   6.542  0.1973 -0.9803 -0.1688
  142OSM    H2S15542   1.051   4.892   6.551 -2.1637  2.1641 -1.0451
  142OSM    C3S15543   0.837   4.905   6.532  0.5103  0.2214 -0.6106
  142OSM    H3S15544   0.739   4.854   6.542 -0.3533  2.2675  3.0445
  142OSM     O315545   0.838   5.000   6.431  0.3848 -0.7321  0.5225
  142OSM    HO315546   0.870   4.958   6.351 -3.2961  1.0015 -2.1741
  142OSM    C4S15547   0.836   4.983   6.667  0.4114 -1.2726 -0.1466
  142OSM    H4S15548   0.782   4.937   6.751  0.4477  0.3146  0.7759
  142OSM    C5S15549   0.881   5.111   6.694  0.3288 -0.2690 -0.8233
  142OSM    H5S15550   0.923   5.174   6.615  0.2284 -0.9194 -1.4023
  142OSM    C6S15551   0.868   5.180   6.827 -0.6725 -0.7396 -1.0321
  142OSM    H6S15552   0.795   5.263   6.818 -0.2024 -0.4516 -2.4600
  142OSM    H6T15553   0.966   5.225   6.852 -0.9856 -1.3532  1.5583
  142OSM    C7S15554   0.824   5.099   6.953 -0.3599 -0.9016 -0.2674
  142OSM    H7S15555   0.881   5.005   6.972 -1.1490 -0.9084  2.5034
  142OSM    H7T15556   0.720   5.070   6.927 -1.2322  0.4718  1.5025
  142OSM    C8S15557   0.820   5.199   7.075 -1.2277 -0.1296  0.6965
  142OSM    H8S15558   0.779   5.297   7.043 -0.9791  0.6699  2.7118
  142OSM    H8T15559   0.930   5.216   7.086 -0.7222 -2.1888 -0.5501
  142OSM    C9S15560   0.759   5.148   7.203 -0.5948  0.5806  0.1790
  142OSM    H9S15561   0.794   5.048   7.235 -2.1139  0.1906  0.7399
  142OSM    H9T15562   0.650   5.135   7.185 -0.8040  1.1760  0.9494
  142OSM   C10S15563   0.786   5.247   7.311  0.0268 -0.0803 -0.5765
  142OSM   H10S15564   0.726   5.340   7.300 -0.1761 -0.2951 -1.3328
  142OSM   H10T15565   0.887   5.292   7.316  0.0785 -0.3385  2.1026
  142OSM   C11S15566   0.764   5.173   7.451 -0.7968  0.3740 -0.2461
  142OSM   H11S15567   0.847   5.100   7.459 -2.2218 -1.3650 -0.7110
  142OSM   H11T15568   0.666   5.121   7.445 -2.3188  2.8210  1.4547
  142OSM   C12S15569   0.759   5.265   7.568 -0.0428 -0.1395  0.5943
  142OSM   H12S15570   0.669   5.330   7.561  1.1589  2.1343  3.8511
  142OSM   H12T15571   0.845   5.334   7.569  0.7534 -1.1026  1.4915
  142OSM   C13S15572   0.761   5.183   7.698  0.2987  0.1130  0.2510
  142OSM   H13S15573   0.838   5.104   7.693 -2.1657 -2.3900 -0.4665
  142OSM   H13T15574   0.660   5.140   7.715  1.0493 -1.1768  1.6339
  142OSM   C14S15575   0.801   5.272   7.824  0.1716  0.5176 -0.0420
  142OSM   H14S15576   0.731   5.358   7.821  0.6318  0.9136  0.2961
  142OSM   H14T15577   0.909   5.297   7.836  0.6722 -0.2418 -2.3555
  142OSM   C15S15578   0.773   5.195   7.953 -0.0757 -0.1997  0.2143
  142OSM   H15S15579   0.810   5.091   7.937 -0.7058 -0.7686  2.2489
  142OSM   H15T15580   0.663   5.201   7.967  0.0845  1.4505  1.0009
  142OSM   C16S15581   0.850   5.246   8.074  0.5897 -1.2590 -0.3791
  142OSM   H16S15582   0.957   5.218   8.070  1.6102  2.1733 -0.2238
  142OSM   H16T15583   0.811   5.201   8.167  3.7678 -0.1009  1.6821
  142OSM   C17S15584   0.844   5.400   8.085  0.2671 -0.6957  0.1781
  142OSM   H17S15585   0.743   5.441   8.107  1.0561  0.4304  1.9696
  142OSM   H17T15586   0.878   5.446   7.990  1.3750  0.3491  1.0479
  142OSM   C18S15587   0.933   5.446   8.199  0.0786  0.2057  0.3158
  142OSM   H18S15588   1.035   5.412   8.168  0.4545  1.0795  0.5880
  142OSM   H18T15589   0.913   5.395   8.296  0.6914 -0.8520 -0.0906
  142OSM   H18U15590   0.916   5.554   8.217  0.1054  0.4299 -0.8910
  142OSM    C1F15591   1.069   4.677   6.707 -0.4464 -0.4436 -0.3277
  142OSM     OF15592   1.184   4.693   6.664  0.0451 -0.2132 -0.0913
  142OSM    C2F15593   1.046   4.596   6.834 -0.8908 -0.1891  0.2101
  142OSM    H2F15594   0.953   4.536   6.838 -1.3241  0.3915 -0.7385
  142OSM    H2G15595   1.045   4.661   6.924 -2.3502 -1.2195  0.9696
  142OSM    C3F15596   1.157   4.482   6.853 -0.4497 -0.2387  0.0865
  142OSM    H3F15597   1.258   4.528   6.856 -1.1231  1.2427  0.9836
  142OSM    H3G15598   1.155   4.416   6.764  0.0805  2.5565 -2.1157
  142OSM    C4F15599   1.140   4.399   6.978 -0.2298  0.3819  0.3581
  142OSM    H4F15600   1.034   4.366   6.988 -0.2107 -0.1448 -0.9344
  142OSM    H4G15601   1.154   4.469   7.063  0.7302  0.6942 -0.0500
  142OSM    C5F15602   1.228   4.278   6.981  0.3660 -0.3913  0.1872
  142OSM    H5F15603   1.335   4.308   6.989  1.3513 -3.4826  0.2194
  142OSM    H5G15604   1.221   4.225   6.884 -1.7689  1.9466 -1.0583
  142OSM    C6F15605   1.201   4.181   7.105  0.1384  0.1378 -0.5293
  142OSM    H6F15606   1.099   4.136   7.104 -0.2341  0.9348  0.2439
  142OSM    H6G15607   1.214   4.233   7.202 -0.8067  2.2064 -1.4237
  142OSM    C7F15608   1.298   4.057   7.091 -0.3259  0.2651 -0.2814
  142OSM    H7F15609   1.401   4.097   7.102 -0.5892  1.2838 -1.3992
  142OSM    H7G15610   1.296   4.005   6.993 -1.4328 -1.0850  0.4169
  142OSM    C8F15611   1.277   3.966   7.205  0.2008 -0.9248 -0.3874
  142OSM    H8F15612   1.291   4.015   7.303 -2.2436 -1.9939  0.5786
  142OSM    H8G15613   1.354   3.888   7.186  1.5164 -0.2600  1.8770
  142OSM    C9F15614   1.148   3.895   7.205  0.4137  0.5091 -0.2124
  142OSM    H9F15615   1.100   3.877   7.108  0.7707 -0.6234 -0.1957
  142OSM   C10F15616   1.086   3.848   7.317 -0.4286 -0.2474  0.5768
  142OSM   H10F15617   0.985   3.806   7.310 -0.3592 -0.1552 -1.5981
  142OSM   C11F15618   1.141   3.870   7.454 -0.2041  0.2691 -0.8058
  142OSM   H11F15619   1.250   3.852   7.455 -0.0670  0.9941 -1.5269
  142OSM   H11G15620   1.095   3.790   7.516  1.9339  0.0838  0.6200
  142OSM   C12F15621   1.088   4.008   7.499  0.0463  0.3329  0.2014
  142OSM   H12F15622   0.980   3.996   7.523  0.1489 -1.8317 -0.2468
  142OSM   H12G15623   1.082   4.072   7.409  0.6242  0.5330  0.3005
  142OSM   C13F15624   1.153   4.067   7.621 -0.3986  0.7645  0.5652
  142OSM   H13F15625   1.096   4.162   7.630 -2.0465  0.1770 -2.3105
  142OSM   H13G15626   1.257   4.098   7.597  0.2394  0.3604  2.6194
  142OSM   C14F15627   1.136   3.980   7.749  0.2918  0.8257 -0.3742
  142OSM   H14F15628   1.186   3.882   7.736 -3.7105 -1.4538 -0.1657
  142OSM   H14G15629   1.028   3.967   7.773  0.3118  0.0859 -0.6679
  142OSM   C15F15630   1.200   4.062   7.860 -0.4271 -0.9055 -0.4808
  142OSM   H15F15631   1.159   4.164   7.844 -0.3004 -0.8831 -0.6605
  142OSM   H15G15632   1.309   4.053   7.839 -0.2200 -2.1086  1.0110
  142OSM   C16F15633   1.149   4.015   8.001 -0.1040 -0.1406  0.4060
  142OSM   H16F15634   1.047   3.974   7.992 -0.0041 -0.4593  0.7029
  142OSM   H16G15635   1.133   4.109   8.060 -1.7040 -0.4196  0.4654
  142OSM   C17F15636   1.234   3.905   8.069  0.4428 -0.4636 -0.8954
  142OSM   H17F15637   1.340   3.936   8.057  1.0062 -0.2374  3.3181
  142OSM   H17G15638   1.234   3.814   8.005 -2.0281 -0.2881 -1.2244
  142OSM   C18F15639   1.200   3.877   8.218 -0.4836  0.3263 -0.4701
  142OSM   H18F15640   1.101   3.916   8.248 -0.6030 -1.2878  1.4434
  142OSM   H18G15641   1.265   3.917   8.299  0.7188 -1.2167 -0.6249
  142OSM   H18H15642   1.201   3.767   8.237  0.5206  0.2248 -1.0651
  143OSM      N15643   1.878   0.435   5.841 -0.3971 -0.2215  0.4659
  143OSM    C1515644   1.900   0.489   5.706  0.4005  0.3746 -0.0741
  143OSM   H15A15645   1.990   0.445   5.665  0.1236 -2.1962  1.8974
  143OSM   H15B15646   1.903   0.597   5.702  0.3110  0.3481 -1.5992
  143OSM   H15C15647   1.818   0.467   5.639  0.0182 -0.2501  0.5866
  143OSM    C1415648   1.739   0.463   5.892  0.4426  0.4424 -0.5740
  143OSM   H14A15649   1.714   0.567   5.904 -5.1163 -0.7159  0.9451
  143OSM   H14B15650   1.716   0.426   5.991  0.7372  3.3501  0.6768
  143OSM   H14C15651   1.667   0.427   5.820  0.1050 -1.2834  0.5643
  143OSM    C1315652   1.882   0.284   5.830 -0.7062 -0.5407  0.2707
  143OSM   H13A15653   1.808   0.249   5.759  0.5367  0.9784 -1.9137
  143OSM   H13B15654   1.868   0.252   5.932 -1.3605  1.8309  0.9739
  143OSM   H13C15655   1.982   0.255   5.802 -0.0931  1.2412  0.5296
  143OSM    C1215656   1.983   0.486   5.935  0.7292 -0.3229  0.2461
  143OSM   H12A15657   1.945   0.488   6.036  0.8401  0.6823  0.2746
  143OSM   H12B15658   2.001   0.588   5.904  2.8985 -1.3615 -2.3236
  143OSM    C1115659   2.133   0.430   5.938 -0.0598 -0.2141  0.4234
  143OSM   H11A15660   2.203   0.501   5.987 -0.5156  0.0635  0.6810
  143OSM   H11B15661   2.172   0.422   5.835  1.2088  2.4764  0.6165
  143OSM      P15662   2.069   0.273   6.132  0.2717  0.1242  0.0482
  143OSM    O1315663   1.939   0.213   6.100  0.4118  0.2390  0.7037
  143OSM    O1415664   2.158   0.197   6.222 -0.6230  0.1237  0.0434
  143OSM    O1115665   2.044   0.421   6.191  0.0628  0.2372 -0.4595
  143OSM    O1215666   2.146   0.305   5.996 -1.1447 -0.4628  0.0950
  143OSM    C1S15667   1.968   0.430   6.312  0.3827 -0.3216  0.4754
  143OSM    H1S15668   1.896   0.345   6.320  0.5979 -0.6919 -1.1625
  143OSM    H1T15669   1.913   0.526   6.306 -0.1151 -0.5193  1.5137
  143OSM     NF15670   2.001   0.430   6.569 -0.1150  0.2540 -0.1825
  143OSM    HNF15671   2.003   0.515   6.623 -1.3447  1.0996 -1.4154
  143OSM    C2S15672   2.062   0.446   6.436  0.3688  0.9997  0.3206
  143OSM    H2S15673   2.130   0.359   6.425 -1.9598 -1.0266  0.9868
  143OSM    C3S15674   2.143   0.574   6.436  0.1686  0.2991  0.2842
  143OSM    H3S15675   2.075   0.660   6.453  0.7148  0.3494  2.5441
  143OSM     O315676   2.202   0.611   6.309  0.1536 -0.5233 -0.2303
  143OSM    HO315677   2.151   0.556   6.248  0.8306  0.2484 -1.5429
  143OSM    C4S15678   2.249   0.585   6.551 -0.0408 -0.1857  0.3372
  143OSM    H4S15679   2.206   0.624   6.644 -1.9452 -0.3022 -0.4324
  143OSM    C5S15680   2.379   0.550   6.547  0.2455 -0.0189  0.0020
  143OSM    H5S15681   2.416   0.505   6.454  0.5406  3.1446 -1.5569
  143OSM    C6S15682   2.481   0.578   6.657  0.5467  0.0480  0.3483
  143OSM    H6S15683   2.536   0.668   6.624 -2.4372  1.3326 -1.6332
  143OSM    H6T15684   2.545   0.488   6.672  0.2925 -0.2251 -0.1537
  143OSM    C7S15685   2.433   0.622   6.794 -0.0163  0.8911 -0.1883
  143OSM    H7S15686   2.387   0.538   6.850 -0.5784  0.8741 -0.6548
  143OSM    H7T15687   2.358   0.705   6.784  1.4480  2.5817  1.9466
  143OSM    C8S15688   2.553   0.683   6.877 -0.0780  0.6378  0.2671
  143OSM    H8S15689   2.587   0.771   6.818 -0.5030 -0.0271 -1.0050
  143OSM    H8T15690   2.638   0.611   6.872 -0.1690  0.5146  0.4950
  143OSM    C9S15691   2.512   0.727   7.022  0.7521  0.7075  0.0086
  143OSM    H9S15692   2.412   0.772   7.009  1.0380  1.1829 -0.6588
  143OSM    H9T15693   2.592   0.794   7.061  0.2055  1.3870 -0.0227
  143OSM   C10S15694   2.514   0.611   7.126 -0.3662  0.7534 -0.1970
  143OSM   H10S15695   2.618   0.573   7.136 -0.1047  1.5000 -0.0183
  143OSM   H10T15696   2.446   0.528   7.098 -1.1063  0.7971  1.3573
  143OSM   C11S15697   2.459   0.658   7.261  0.0225 -0.4133  0.3377
  143OSM   H11S15698   2.353   0.626   7.266 -0.2527  0.5734  1.0966
  143OSM   H11T15699   2.449   0.768   7.263 -0.0409 -0.4034 -0.4293
  143OSM   C12S15700   2.544   0.613   7.381 -0.1652  0.4502  0.7913
  143OSM   H12S15701   2.648   0.654   7.374  0.5985 -1.5829 -0.4405
  143OSM   H12T15702   2.554   0.503   7.379  2.7511  0.5829  2.0457
  143OSM   C13S15703   2.478   0.656   7.506  1.0787  1.1562 -0.0096
  143OSM   H13S15704   2.379   0.610   7.528  0.7300  1.2331 -1.3759
  143OSM   H13T15705   2.451   0.763   7.511 -0.9027  0.6905  0.3769
  143OSM   C14S15706   2.569   0.631   7.628 -0.1645 -0.4435  0.4457
  143OSM   H14S15707   2.673   0.650   7.594  0.9278 -4.1123  1.2626
  143OSM   H14T15708   2.569   0.521   7.643 -0.5409 -0.8002 -1.8700
  143OSM   C15S15709   2.542   0.721   7.747  0.1144 -0.2796 -0.4348
  143OSM   H15S15710   2.560   0.829   7.727 -0.4180 -0.3195 -1.1677
  143OSM   H15T15711   2.623   0.692   7.819  0.3328  0.4447 -0.3821
  143OSM   C16S15712   2.403   0.701   7.800  0.6861 -1.0902  0.0479
  143OSM   H16S15713   2.352   0.605   7.776 -2.0515  0.6634 -1.6642
  143OSM   H16T15714   2.347   0.761   7.725  3.0736 -0.8893 -1.6873
  143OSM   C17S15715   2.382   0.751   7.945  0.5624  0.3264  0.3498
  143OSM   H17S15716   2.301   0.826   7.952  0.1988  0.0375 -0.7279
  143OSM   H17T15717   2.472   0.810   7.976  0.9698  0.0654 -0.3264
  143OSM   C18S15718   2.349   0.636   8.037 -0.1035  0.6560 -0.5238
  143OSM   H18S15719   2.238   0.627   8.029 -0.2992  1.9803  0.4538
  143OSM   H18T15720   2.367   0.659   8.144 -0.6471 -0.0023 -0.2815
  143OSM   H18U15721   2.395   0.539   8.009  0.4239  0.8100 -0.1986
  143OSM    C1F15722   1.945   0.317   6.604 -0.6934 -0.1412 -0.5873
  143OSM     OF15723   1.984   0.214   6.547  0.2595 -0.1723 -0.0413
  143OSM    C2F15724   1.848   0.314   6.710 -0.1585  0.0896 -0.2257
  143OSM    H2F15725   1.761   0.376   6.681  0.8657  1.9609  0.5256
  143OSM    H2G15726   1.884   0.367   6.801  0.8957  1.6365 -1.4844
  143OSM    C3F15727   1.798   0.173   6.740  0.0950 -0.1817  0.2860
  143OSM    H3F15728   1.878   0.101   6.768 -0.9035 -0.3553  2.9197
  143OSM    H3G15729   1.736   0.137   6.655 -0.9229  1.6166  0.2143
  143OSM    C4F15730   1.719   0.170   6.868  0.3944  0.1483 -0.5868
  143OSM    H4F15731   1.669   0.070   6.868  0.5581  0.0669 -0.3626
  143OSM    H4G15732   1.643   0.251   6.861 -0.5896 -0.9053 -3.3281
  143OSM    C5F15733   1.796   0.177   6.996  0.3700  0.4661  0.0957
  143OSM    H5F15734   1.872   0.259   6.989  0.8489  0.0893  0.7855
  143OSM    H5G15735   1.849   0.085   7.030  0.0432  0.2678  0.0722
  143OSM    C6F15736   1.713   0.206   7.119 -0.6027 -0.9137 -0.0380
  143OSM    H6F15737   1.630   0.131   7.125 -0.7183 -1.0252 -2.2199
  143OSM    H6G15738   1.675   0.310   7.113  3.0391  0.6639  1.3041
  143OSM    C7F15739   1.795   0.182   7.250  0.0958  0.7543 -0.4030
  143OSM    H7F15740   1.894   0.233   7.243  0.9750 -0.9872 -1.5483
  143OSM    H7G15741   1.806   0.071   7.251  1.1201  0.8411  1.2265
  143OSM    C8F15742   1.720   0.221   7.381 -0.1926  0.0817 -0.4069
  143OSM    H8F15743   1.697   0.326   7.355  1.3235  0.1975 -1.4038
  143OSM    H8G15744   1.786   0.232   7.470  0.2106 -4.6132  0.1435
  143OSM    C9F15745   1.597   0.140   7.404  0.9853  0.0461 -0.1732
  143OSM    H9F15746   1.505   0.194   7.373 -0.5933 -1.2237  2.0216
  143OSM   C10F15747   1.591   0.019   7.470 -0.1878 -0.4065  0.7906
  143OSM   H10F15748   1.494  -0.031   7.483  0.0440 -0.2457  3.9313
  143OSM   C11F15749   1.707  -0.055   7.525  0.3807 -0.1356 -0.4469
  143OSM   H11F15750   1.795   0.009   7.502 -0.7930  1.4988 -0.5716
  143OSM   H11G15751   1.723  -0.156   7.483  0.0076 -0.6914  0.7102
  143OSM   C12F15752   1.709  -0.078   7.675  0.3336 -0.7201 -0.2776
  143OSM   H12F15753   1.792  -0.149   7.693  1.3550 -0.0994 -2.1692
  143OSM   H12G15754   1.618  -0.121   7.722  0.3859  1.6403  2.2249
  143OSM   C13F15755   1.725   0.056   7.748  0.1662  0.7987  0.1254
  143OSM   H13F15756   1.632   0.114   7.762  1.4889  3.3046 -0.7612
  143OSM   H13G15757   1.793   0.118   7.685 -0.3156  0.5246 -0.6865
  143OSM   C14F15758   1.798   0.034   7.881 -0.2616  0.3033 -0.1291
  143OSM   H14F15759   1.896  -0.015   7.862 -1.4833 -1.4798 -2.2939
  143OSM   H14G15760   1.754  -0.047   7.943 -1.3792  0.0546 -1.2080
  143OSM   C15F15761   1.819   0.163   7.960  0.0345  0.1075  0.2072
  143OSM   H15F15762   1.719   0.194   7.999 -0.1956 -0.2913 -0.0517
  143OSM   H15G15763   1.841   0.239   7.882 -0.9593 -0.6116 -0.8119
  143OSM   C16F15764   1.926   0.150   8.073 -0.7510  0.1108  0.3605
  143OSM   H16F15765   2.027   0.127   8.032 -0.5198  1.8666 -0.1347
  143OSM   H16G15766   1.901   0.067   8.143 -0.7942  0.4072  0.7051
  143OSM   C17F15767   1.930   0.277   8.160  1.0305  0.4185  0.3267
  143OSM   H17F15768   1.825   0.312   8.174  1.6107  2.3434  0.1407
  143OSM   H17G15769   1.978   0.357   8.099  3.8067  0.0123  1.8436
  143OSM   C18F15770   1.986   0.257   8.301 -0.5220  0.8878  0.2071
  143OSM   H18F15771   1.972   0.348   8.363 -0.2718  0.0092  1.5791
  143OSM   H18G15772   2.095   0.240   8.299 -0.4482  1.2923  0.6325
  143OSM   H18H15773   1.919   0.188   8.356 -0.2708  0.5794  0.1220
  144OSM      N15774   1.838   6.023   5.902 -0.0240  0.4050 -0.7867
  144OSM    C1515775   1.830   5.954   5.774 -0.4268 -0.4832 -0.4654
  144OSM   H15A15776   1.910   5.982   5.708 -0.8450  3.8229  0.5503
  144OSM   H15B15777   1.746   5.999   5.723  1.0954  1.4198 -1.4594
  144OSM   H15C15778   1.816   5.848   5.791  2.6435 -0.5843  2.4891
  144OSM    C1415779   1.876   6.166   5.895  0.1036 -0.8404 -0.3167
  144OSM   H14A15780   1.877   6.212   5.992 -1.1059 -1.7492  0.1493
  144OSM   H14B15781   1.802   6.214   5.832  0.7083 -0.7207 -0.9560
  144OSM   H14C15782   1.977   6.180   5.859  0.2738  0.4984  0.6050
  144OSM    C1315783   1.703   6.023   5.971  0.0856  0.7430  0.0325
  144OSM   H13A15784   1.714   6.035   6.078 -0.7348  2.1913 -0.0284
  144OSM   H13B15785   1.649   5.932   5.951 -0.2322  1.3383 -2.0850
  144OSM   H13C15786   1.635   6.093   5.926 -0.6614  0.2389  0.3613
  144OSM    C1215787   1.945   5.943   5.989 -0.2567  0.0473  0.0494
  144OSM   H12A15788   2.041   5.937   5.939 -1.1631 -0.6142 -1.7144
  144OSM   H12B15789   1.920   5.838   5.987  1.0591 -0.3115  1.2745
  144OSM    C1115790   1.960   5.973   6.134 -0.4938 -0.7900  0.0804
  144OSM   H11A15791   1.971   6.084   6.134  1.5481 -0.8916  2.8247
  144OSM   H11B15792   2.046   5.924   6.183  0.4957  1.3298  0.5485
  144OSM      P15793   1.791   5.794   6.230  0.6408 -0.2994 -0.1836
  144OSM    O1315794   1.640   5.798   6.231  0.1289  0.1615 -0.4503
  144OSM    O1415795   1.860   5.699   6.135  0.2667 -0.3471  0.1511
  144OSM    O1115796   1.834   5.755   6.376  0.1280  0.4176 -0.6215
  144OSM    O1215797   1.846   5.947   6.210  0.3069  0.8226 -0.5994
  144OSM    C1S15798   1.823   5.839   6.488  1.0164  0.0764 -0.3285
  144OSM    H1S15799   1.739   5.910   6.473  1.3985  0.4311 -0.8100
  144OSM    H1T15800   1.903   5.910   6.520 -1.0319  0.9400  3.4372
  144OSM     NF15801   1.742   5.835   6.719  0.3013 -0.8291 -0.3995
  144OSM    HNF15802   1.799   5.892   6.777 -1.4234 -0.1100  0.6607
  144OSM    C2S15803   1.807   5.755   6.612 -0.0423 -0.5968 -0.1908
  144OSM    H2S15804   1.744   5.665   6.593  0.7593 -1.2290  0.0812
  144OSM    C3S15805   1.940   5.698   6.660 -0.3440  0.2045  0.3925
  144OSM    H3S15806   2.006   5.785   6.684  1.9667 -1.2475 -0.3801
  144OSM     O315807   2.017   5.623   6.557  0.3350  0.4277 -0.1396
  144OSM    HO315808   1.987   5.661   6.473  0.9092 -0.2233 -0.6458
  144OSM    C4S15809   1.928   5.610   6.778 -0.2895  1.0854 -0.2788
  144OSM    H4S15810   1.855   5.529   6.761 -1.8187  2.6499 -1.4866
  144OSM    C5S15811   1.993   5.608   6.897  0.0462  0.2783 -0.1323
  144OSM    H5S15812   2.063   5.689   6.924  0.9212 -0.8210  1.0402
  144OSM    C6S15813   1.965   5.502   6.999 -0.0941  0.2828 -0.1527
  144OSM    H6S15814   2.061   5.469   7.042 -0.5503 -0.8467  0.0438
  144OSM    H6T15815   1.912   5.412   6.961 -2.0362  0.7771  1.2344
  144OSM    C7S15816   1.894   5.562   7.115  0.7411  0.0342  0.0197
  144OSM    H7S15817   1.865   5.487   7.191  0.7743 -1.0803 -1.0235
  144OSM    H7T15818   1.791   5.593   7.085  0.9494  0.3039 -0.4237
  144OSM    C8S15819   1.971   5.676   7.186  0.2186 -0.3558  0.5190
  144OSM    H8S15820   1.980   5.761   7.114 -1.3418 -0.2094  0.4538
  144OSM    H8T15821   2.067   5.630   7.215  0.2613 -0.1370  0.7289
  144OSM    C9S15822   1.890   5.730   7.306 -0.2028  0.1959  0.2106
  144OSM    H9S15823   1.781   5.731   7.286 -0.4562  1.3662  1.4933
  144OSM    H9T15824   1.925   5.835   7.315 -0.3813  0.3980 -1.2458
  144OSM   C10S15825   1.926   5.664   7.437  0.4748  0.1709  0.2288
  144OSM   H10S15826   2.034   5.640   7.447  0.2347 -0.7415  0.7690
  144OSM   H10T15827   1.870   5.568   7.433  0.0718  0.4258 -0.3589
  144OSM   C11S15828   1.873   5.740   7.558  0.3845  0.2782  0.1000
  144OSM   H11S15829   1.770   5.775   7.539 -1.2898 -3.4205  1.4972
  144OSM   H11T15830   1.932   5.834   7.563 -1.5041  1.6444 -1.8078
  144OSM   C12S15831   1.878   5.664   7.696  0.4945  0.1915 -0.0372
  144OSM   H12S15832   1.983   5.632   7.706  1.2839  2.9449  1.4274
  144OSM   H12T15833   1.807   5.579   7.685  0.2804  0.0638  1.9895
  144OSM   C13S15834   1.831   5.749   7.807 -0.4603  0.1208 -0.2787
  144OSM   H13S15835   1.731   5.791   7.783 -2.0354 -1.8106  2.3495
  144OSM   H13T15836   1.898   5.837   7.806 -0.1845 -0.0551  1.2584
  144OSM   C14S15837   1.839   5.670   7.941  0.1612  0.2738 -0.2484
  144OSM   H14S15838   1.944   5.632   7.941  1.1547  2.7534  1.3129
  144OSM   H14T15839   1.771   5.582   7.939 -0.4959  0.6287  2.3623
  144OSM   C15S15840   1.805   5.748   8.070 -0.1226 -0.5109  0.9978
  144OSM   H15S15841   1.709   5.801   8.048  0.3703 -0.3723 -0.9733
  144OSM   H15T15842   1.882   5.828   8.064 -1.7679  1.1743  1.1136
  144OSM   C16S15843   1.810   5.667   8.197 -0.2685 -0.5233 -0.0616
  144OSM   H16S15844   1.748   5.575   8.186 -0.3322 -0.4414 -0.3928
  144OSM   H16T15845   1.770   5.723   8.285  0.4550  1.1766 -0.7763
  144OSM   C17S15846   1.957   5.633   8.226  0.3094  0.1808  0.2169
  144OSM   H17S15847   2.026   5.715   8.197  0.3363  0.1676  0.2438
  144OSM   H17T15848   1.986   5.540   8.172  0.0227  1.4035 -2.1946
  144OSM   C18S15849   1.985   5.607   8.379 -0.5269 -0.3420  0.6257
  144OSM   H18S15850   1.970   5.700   8.438  0.4514 -0.8646  1.7186
  144OSM   H18T15851   2.091   5.574   8.386  0.3761  2.4367  1.2284
  144OSM   H18U15852   1.922   5.527   8.422  0.1436 -1.9257 -1.2036
  144OSM    C1F15853   1.611   5.881   6.715 -0.1395 -0.2479 -0.3521
  144OSM     OF15854   1.534   5.849   6.628  0.0472  0.3011 -0.6161
  144OSM    C2F15855   1.572   5.990   6.818  0.6412  0.2089  0.9264
  144OSM    H2F15856   1.462   6.006   6.811  0.6432 -0.2885 -0.9512
  144OSM    H2G15857   1.629   6.081   6.790 -2.9333  2.7906  1.3673
  144OSM    C3F15858   1.606   5.940   6.958  0.2651  0.8226  0.3106
  144OSM    H3F15859   1.711   5.902   6.960 -0.8310 -2.8685 -1.8599
  144OSM    H3G15860   1.541   5.853   6.984  0.6352  0.3683 -0.2372
  144OSM    C4F15861   1.595   6.051   7.067  0.3685 -0.1544  0.1853
  144OSM    H4F15862   1.487   6.073   7.087  0.4859  2.5416 -1.6288
  144OSM    H4G15863   1.626   6.148   7.022 -1.3576  0.5002  0.3013
  144OSM    C5F15864   1.672   6.015   7.194  0.2181 -0.5601  1.3050
  144OSM    H5F15865   1.769   5.970   7.168  0.8806  0.7686  1.3887
  144OSM    H5G15866   1.619   5.936   7.251 -0.8124  0.7707  2.2914
  144OSM    C6F15867   1.699   6.138   7.282  0.7463  0.0340 -0.0447
  144OSM    H6F15868   1.616   6.211   7.277  1.3830  0.8531  0.9779
  144OSM    H6G15869   1.795   6.183   7.247  0.6201  0.6763  0.4230
  144OSM    C7F15870   1.740   6.088   7.421  0.0482 -0.0599  0.5051
  144OSM    H7F15871   1.825   6.018   7.407  1.3503  1.7233 -0.9204
  144OSM    H7G15872   1.646   6.038   7.453 -0.1329  0.1586  0.3203
  144OSM    C8F15873   1.763   6.193   7.530  0.8846  0.5211 -0.1113
  144OSM    H8F15874   1.672   6.254   7.547  2.3409  2.3109  1.9290
  144OSM    H8G15875   1.838   6.266   7.494 -0.1813  1.0937 -1.2249
  144OSM    C9F15876   1.787   6.119   7.665 -0.3076  0.2428  0.5643
  144OSM    H9F15877   1.890   6.107   7.701 -0.8504 -0.3443  1.9682
  144OSM   C10F15878   1.695   6.074   7.748  0.6931 -0.0330  0.2325
  144OSM   H10F15879   1.732   6.004   7.825  2.2792  0.0436 -0.4267
  144OSM   C11F15880   1.543   6.079   7.739  0.3586  0.1451 -0.2902
  144OSM   H11F15881   1.500   6.058   7.639 -3.0952  0.4929  0.9738
  144OSM   H11G15882   1.505   6.179   7.768 -2.2595 -1.1294  1.0724
  144OSM   C12F15883   1.480   5.989   7.846  0.3826 -0.1556  0.2993
  144OSM   H12F15884   1.536   5.893   7.847 -1.2677 -1.1739 -0.3910
  144OSM   H12G15885   1.372   5.971   7.827  0.7026 -0.4912 -1.3082
  144OSM   C13F15886   1.476   6.063   7.984  0.5174  0.9221  0.8096
  144OSM   H13F15887   1.432   6.164   7.993 -0.6251  0.3279  2.2441
  144OSM   H13G15888   1.579   6.073   8.026  1.5289 -3.4996 -0.0900
  144OSM   C14F15889   1.395   5.971   8.090 -0.3463 -1.1794 -0.2485
  144OSM   H14F15890   1.410   5.867   8.053 -0.4063 -1.4097  0.3702
  144OSM   H14G15891   1.290   6.004   8.084 -0.4463 -1.4578 -0.0163
  144OSM   C15F15892   1.460   5.981   8.231 -0.7233 -1.2503 -0.2929
  144OSM   H15F15893   1.513   6.077   8.249  0.8204 -2.2107  0.4520
  144OSM   H15G15894   1.535   5.899   8.237 -0.0084 -0.5654  0.3115
  144OSM   C16F15895   1.347   5.962   8.340  0.3189  0.5219  0.0112
  144OSM   H16F15896   1.300   5.863   8.330  1.1199 -0.0430  1.5068
  144OSM   H16G15897   1.260   6.031   8.330 -0.6060 -0.8180 -1.6602
  144OSM   C17F15898   1.410   5.968   8.483  0.5605  0.1558 -0.5443
  144OSM   H17F15899   1.444   6.071   8.505  0.2605  0.1081  0.1762
  144OSM   H17G15900   1.502   5.906   8.476  0.3870 -0.5175  2.1726
  144OSM   C18F15901   1.316   5.936   8.598  0.0325 -0.4588 -0.1997
  144OSM   H18F15902   1.211   5.968   8.580  0.2700  0.4135 -0.1028
  144OSM   H18G15903   1.352   5.982   8.692  1.7833  1.0542 -1.5300
  144OSM   H18H15904   1.299   5.828   8.617 -1.3461 -0.1996  0.1469
  145SAPE     N15905   0.576   1.066  10.704  0.6858  0.5230 -0.1745
  145SAPE   HN115906   0.644   1.072  10.625  0.5697 -0.5621 -0.3746
  145SAPE   HN215907   0.578   0.968  10.739  2.2920 -0.0912 -1.8075
  145SAPE   HN315908   0.482   1.087  10.666  0.5059 -1.7332 -1.1434
  145SAPE   C1215909   0.595   1.167  10.818 -0.6652  0.0325  0.3766
  145SAPE  H12A15910   0.704   1.166  10.839 -0.6838  0.2516  0.4841
  145SAPE  H12B15911   0.544   1.127  10.908 -0.0590 -0.9794  0.2892
  145SAPE   C1115912   0.560   1.319  10.791 -0.8895 -0.3441 -0.4827
  145SAPE  H11A15913   0.634   1.357  10.717  1.1801 -2.7984  0.1543
  145SAPE  H11B15914   0.568   1.367  10.891  1.1044 -0.3144 -0.6135
  145SAPE     P15915   0.385   1.381  10.607 -0.1141 -0.2703  0.3765
  145SAPE   O1315916   0.237   1.396  10.603  0.0594  0.4798 -0.7841
  145SAPE   O1415917   0.464   1.500  10.560 -0.5823 -0.1089 -0.4356
  145SAPE   O1215918   0.422   1.336  10.752 -0.3369 -0.2957 -0.0539
  145SAPE   O1115919   0.429   1.258  10.529  0.5045  0.2473  0.2957
  145SAPE    C115920   0.342   1.191  10.436  0.2680 -0.2797  0.0996
  145SAPE    HA15921   0.345   1.083  10.460  1.1849 -0.3432 -0.2750
  145SAPE    HB15922   0.235   1.220  10.438 -0.2286 -1.9611 -0.6306
  145SAPE    C215923   0.397   1.218  10.301  0.3254  0.2802  0.5540
  145SAPE    HS15924   0.503   1.186  10.299  0.5911  1.0126  1.9798
  145SAPE   O2115925   0.370   1.354  10.267 -0.2978  0.1828 -0.4137
  145SAPE   C2115926   0.472   1.409  10.200  0.4929  0.4090  0.6456
  145SAPE   O2215927   0.571   1.345  10.154  0.3320 -0.5938 -0.0279
  145SAPE   C2215928   0.444   1.559  10.187  0.1434  0.6068 -0.0044
  145SAPE   H2R15929   0.430   1.602  10.289  0.7355  1.5893 -0.3138
  145SAPE   H2S15930   0.539   1.603  10.150  1.8586 -1.9329  1.1340
  145SAPE    C315931   0.331   1.121  10.209  0.4030 -0.7670  0.5611
  145SAPE    HX15932   0.221   1.128  10.222  0.2709 -0.1902 -0.6437
  145SAPE    HY15933   0.352   1.016  10.236  1.0133 -0.7998 -0.0295
  145SAPE   O3115934   0.366   1.144  10.066 -0.2507 -0.6488 -0.1985
  145SAPE   C3115935   0.479   1.081  10.024 -0.0779 -0.7622  0.0874
  145SAPE   O3215936   0.554   1.016  10.095 -0.2420 -0.1021 -0.8124
  145SAPE   C3215937   0.501   1.098   9.873 -0.3007 -0.1192  0.3616
  145SAPE   H2X15938   0.502   1.207   9.849  1.0897 -0.5462 -1.8703
  145SAPE   H2Y15939   0.413   1.051   9.824 -1.2352  0.6669  1.2708
  145SAPE   C2315940   0.316   1.596  10.113 -0.2672  1.0086  0.2091
  145SAPE   H3R15941   0.304   1.703  10.140  0.6306  1.3574 -0.7122
  145SAPE   H3S15942   0.221   1.544  10.134 -1.3761  2.7517 -0.3050
  145SAPE   C2415943   0.344   1.576   9.963  0.5708  0.3373  0.3753
  145SAPE   H4R15944   0.362   1.467   9.960  0.7611  0.3697 -2.4805
  145SAPE   H4S15945   0.436   1.629   9.931 -0.3597  2.0885  0.4923
  145SAPE   C2515946   0.234   1.626   9.875 -0.1194 -0.0162  0.1179
  145SAPE   H5R15947   0.172   1.708   9.913  0.3597 -0.1257  1.1779
  145SAPE   C2615948   0.212   1.577   9.746  0.4917  0.1225  0.4567
  145SAPE   H6R15949   0.141   1.628   9.679 -0.8554 -1.3285  0.7040
  145SAPE   C2715950   0.286   1.468   9.685 -1.2086  0.2789 -0.3467
  145SAPE   H7R15951   0.394   1.484   9.706 -0.8884  0.8197 -2.1759
  145SAPE   H7S15952   0.271   1.480   9.575 -0.8249 -0.1900 -0.4542
  145SAPE   C2815953   0.246   1.334   9.734  0.0374 -0.1779  0.4349
  145SAPE   H8R15954   0.214   1.327   9.840  0.7806 -0.9125  0.6178
  145SAPE   C2915955   0.229   1.222   9.659 -0.5121 -1.1294 -1.4225
  145SAPE   H9R15956   0.201   1.129   9.712 -0.8176 -0.0052  0.4816
  145SAPE  C21015957   0.254   1.204   9.511  0.5949 -0.7523 -0.1471
  145SAPE  H10R15958   0.196   1.282   9.458  1.9627  0.2041 -0.2836
  145SAPE  H10S15959   0.200   1.116   9.470 -0.8982  0.4538 -0.8891
  145SAPE  C21115960   0.400   1.197   9.476  0.0229 -0.1349 -0.0453
  145SAPE  H11R15961   0.468   1.161   9.555  1.7468  0.7911 -1.0569
  145SAPE  C21215962   0.458   1.228   9.357 -0.0300 -0.1334 -0.3609
  145SAPE  H12R15963   0.567   1.219   9.346  0.1826  0.2236  1.1711
  145SAPE  C21315964   0.387   1.273   9.226  0.0271  0.1654  0.1597
  145SAPE  H13R15965   0.460   1.341   9.177 -1.6671  0.2021 -2.4995
  145SAPE  H13S15966   0.294   1.329   9.249 -0.1468  0.1386 -0.4695
  145SAPE  C21415967   0.327   1.164   9.138  0.2450 -0.1164 -0.3518
  145SAPE  H14R15968   0.219   1.166   9.116  0.0600 -0.2091  0.5350
  145SAPE  C21515969   0.400   1.066   9.082  0.1673  0.5637  0.1391
  145SAPE  H15R15970   0.343   0.990   9.027  0.5751  1.3580 -1.4306
  145SAPE  C21615971   0.550   1.049   9.078 -0.2129  0.1802  0.0713
  145SAPE  H16R15972   0.570   0.943   9.051  1.4066 -0.1838  2.3521
  145SAPE  H16S15973   0.581   1.051   9.185 -1.5085 -6.1923  1.0085
  145SAPE  C21715974   0.613   1.150   8.980  0.8311  0.0611 -0.5131
  145SAPE  H17R15975   0.576   1.250   9.011 -0.3860 -0.4867 -0.1285
  145SAPE  H17S15976   0.560   1.129   8.885 -2.7912 -1.3928  1.6412
  145SAPE  C21815977   0.764   1.148   8.984  0.6244  0.1786  0.1002
  145SAPE  H18R15978   0.788   1.045   8.951 -2.0996 -0.4468 -0.1971
  145SAPE  H18S15979   0.795   1.159   9.090  1.8949  1.2771 -0.3640
  145SAPE  C21915980   0.818   1.260   8.900  0.6209  0.0546 -0.4767
  145SAPE  H19R15981   0.925   1.279   8.924  0.3063  3.2111 -1.1225
  145SAPE  H19S15982   0.759   1.350   8.926  0.0395 -0.8116  1.3729
  145SAPE  C22015983   0.808   1.232   8.747 -0.0826 -0.0530  0.1726
  145SAPE  H20R15984   0.704   1.251   8.715 -0.0332  2.2091  1.0902
  145SAPE  H20S15985   0.845   1.133   8.714  1.0725  0.7101 -0.9344
  145SAPE  H20T15986   0.867   1.310   8.695 -1.3545  1.5195  0.9893
  145SAPE   C3315987   0.638   1.040   9.835  0.0763  0.3016 -0.1191
  145SAPE   H3X15988   0.640   0.935   9.870  1.5067  0.4757  0.3647
  145SAPE   H3Y15989   0.713   1.099   9.891  0.5371 -0.0797 -0.3328
  145SAPE   C3415990   0.672   1.040   9.684  0.0923  1.4470  0.4973
  145SAPE   H4X15991   0.655   1.145   9.650 -1.5204  0.6321 -1.3809
  145SAPE   H4Y15992   0.614   0.966   9.626  0.5872  2.1288 -0.9004
  145SAPE   C3515993   0.825   1.021   9.653  0.1510 -0.3894 -0.7954
  145SAPE   H5X15994   0.845   0.924   9.704 -3.0997 -0.5124  0.4960
  145SAPE   H5Y15995   0.883   1.104   9.698  1.1285 -0.1648 -2.3905
  145SAPE   C3615996   0.864   1.019   9.507  0.4680  0.5502  0.1072
  145SAPE   H6X15997   0.974   1.013   9.493  0.6769 -0.9114  1.9512
  145SAPE   H6Y15998   0.833   1.116   9.463 -1.8696  0.0811  0.5600
  145SAPE   C3715999   0.788   0.913   9.427  0.3668 -0.2877 -0.6122
  145SAPE   H7X16000   0.680   0.941   9.421  1.2046  3.1970 -1.6694
  145SAPE   H7Y16001   0.805   0.814   9.475 -0.0679 -1.2920 -2.4477
  145SAPE   C3816002   0.843   0.896   9.289 -0.5310 -0.6336 -0.2676
  145SAPE   H8X16003   0.954   0.887   9.289 -0.4129  0.4297  0.8690
  145SAPE   H8Y16004   0.830   0.989   9.229  0.7752  1.1918  2.0630
  145SAPE   C3916005   0.796   0.774   9.216  0.2567 -0.2969 -0.9118
  145SAPE   H9X16006   0.687   0.784   9.202  0.1054  0.2681  0.4959
  145SAPE   H9Y16007   0.797   0.680   9.275 -1.5637 -0.0622 -0.4529
  145SAPE  C31016008   0.883   0.762   9.085 -0.3631  0.0295  0.5669
  145SAPE  H10X16009   0.987   0.743   9.119 -0.4751 -1.0878  0.3169
  145SAPE  H10Y16010   0.885   0.858   9.028  1.3146 -1.1555 -1.5013
  145SAPE  C31116011   0.846   0.642   8.997 -0.3304  0.8475 -0.5863
  145SAPE  H11X16012   0.745   0.666   8.957 -0.7967 -0.5030 -0.2891
  145SAPE  H11Y16013   0.851   0.558   9.071  0.6961  0.9797 -0.4859
  145SAPE  C31216014   0.937   0.601   8.879 -0.3410  0.0540  0.2274
  145SAPE  H12X16015   0.945   0.492   8.899  0.9508  0.1424  0.3229
  145SAPE  H12Y16016   1.038   0.643   8.900 -0.1404 -0.5251  0.4444
  145SAPE  C31316017   0.886   0.627   8.737  0.5099  0.6124  0.7022
  145SAPE  H13X16018   0.792   0.572   8.714  0.4209  0.9859  0.1320
  145SAPE  H13Y16019   0.965   0.593   8.666 -1.1318 -0.3018 -0.7792
  145SAPE  C31416020   0.846   0.770   8.704 -0.2097 -0.3698  0.0097
  145SAPE  H14X16021   0.926   0.835   8.746  0.1494 -1.1640  0.5834
  145SAPE  H14Y16022   0.759   0.796   8.768  0.6218  1.8816  0.3211
  145SAPE  C31516023   0.826   0.804   8.556  0.3423  0.7636 -0.5650
  145SAPE  H15X16024   0.757   0.890   8.545 -0.5284 -0.1941 -3.1977
  145SAPE  H15Y16025   0.774   0.723   8.501 -1.0599  0.9328  0.4561
  145SAPE  C31616026   0.954   0.817   8.472 -0.2035 -0.2168  0.2052
  145SAPE  H16X16027   0.997   0.716   8.451 -0.3176 -0.5539  1.4814
  145SAPE  H16Y16028   1.034   0.866   8.532  0.5644 -1.4316  0.2339
  145SAPE  C31716029   0.935   0.908   8.350  0.3920 -0.4131 -0.1401
  145SAPE  H17X16030   0.907   1.012   8.377 -2.0304 -0.9904 -0.2027
  145SAPE  H17Y16031   0.850   0.878   8.286 -0.6073 -1.4871  1.6208
  145SAPE  C31816032   1.060   0.916   8.263  0.3010 -0.0702  0.3706
  145SAPE  H18X16033   1.040   0.989   8.181  2.4786 -0.2134 -0.3564
  145SAPE  H18Y16034   1.062   0.819   8.209  1.5950  2.1106 -3.9681
  145SAPE  H18Z16035   1.153   0.944   8.317 -0.2975 -2.4635  2.8577
  146SAPE     N16036   6.432   2.251  10.492 -0.4610  0.0470  0.4209
  146SAPE   HN116037   6.507   2.208  10.434  0.7128  1.3575  0.9128
  146SAPE   HN216038   6.365   2.318  10.450  0.2671  0.8853  0.5747
  146SAPE   HN316039   6.479   2.313  10.561 -0.3563  1.0928 -0.5506
  146SAPE   C1216040   6.362   2.134  10.556  0.2503  0.0519  0.6241
  146SAPE  H12A16041   6.295   2.087  10.480 -0.0218  1.7797 -0.2619
  146SAPE  H12B16042   6.297   2.186  10.630  0.8044  0.9173  0.5179
  146SAPE   C1116043   6.463   2.039  10.623  0.0896  0.4055 -0.8330
  146SAPE  H11A16044   6.401   1.970  10.685 -1.2739  0.8486 -1.6629
  146SAPE  H11B16045   6.529   2.105  10.683 -1.4194 -0.5612  2.0985
  146SAPE     P16046   6.550   1.816  10.508  0.2088  0.2168 -0.0835
  146SAPE   O1316047   6.676   1.790  10.438 -0.2606 -0.2849 -0.0819
  146SAPE   O1416048   6.529   1.743  10.633  0.3679  0.1661  0.5765
  146SAPE   O1216049   6.544   1.965  10.532 -0.0568  0.3946 -0.0278
  146SAPE   O1116050   6.434   1.792  10.407  0.2220  0.7500 -0.0691
  146SAPE    C116051   6.438   1.864  10.281  0.2829 -0.1183  0.4070
  146SAPE    HA16052   6.336   1.901  10.260  1.3415  1.0764 -3.3603
  146SAPE    HB16053   6.496   1.959  10.283  1.7885 -0.9277 -1.6513
  146SAPE    C216054   6.498   1.772  10.175  0.0413  0.0373 -0.0357
  146SAPE    HS16055   6.598   1.750  10.218  0.0123  0.6463  0.3506
  146SAPE   O2116056   6.508   1.842  10.052  0.3408  0.1394  0.1730
  146SAPE   C2116057   6.589   1.783   9.960 -0.4601 -0.1242 -0.0179
  146SAPE   O2216058   6.678   1.701   9.984  0.6046  0.2480 -0.1815
  146SAPE   C2216059   6.568   1.859   9.830 -0.2842  0.2491 -0.1962
  146SAPE   H2R16060   6.461   1.844   9.803 -0.6630  1.7587  0.3625
  146SAPE   H2S16061   6.589   1.965   9.858 -0.9626  0.7454 -1.4942
  146SAPE    C316062   6.417   1.641  10.165 -0.1275 -0.2746  0.0858
  146SAPE    HX16063   6.404   1.580  10.257 -0.1743 -1.1731 -0.5082
  146SAPE    HY16064   6.461   1.588  10.078 -3.1536 -0.0177 -1.7258
  146SAPE   O3116065   6.290   1.685  10.123 -0.3668  0.7362  0.7946
  146SAPE   C3116066   6.200   1.580  10.090  0.3420 -0.6743  0.1335
  146SAPE   O3216067   6.231   1.465  10.101 -0.1862  0.3899  0.0895
  146SAPE   C3216068   6.063   1.642  10.041  0.3321  0.2585 -0.0332
  146SAPE   H2X16069   6.039   1.710  10.126  0.3536  1.6990 -1.1350
  146SAPE   H2Y16070   5.995   1.554  10.032 -0.0870  0.7874 -3.0796
  146SAPE   C2316071   6.662   1.815   9.712 -0.3905 -0.7340  0.5916
  146SAPE   H3R16072   6.768   1.814   9.745  0.4577 -0.9392 -1.8887
  146SAPE   H3S16073   6.643   1.891   9.633  1.6256 -0.2108  0.5583
  146SAPE   C2416074   6.636   1.674   9.653 -0.5591 -0.3563  0.3118
  146SAPE   H4R16075   6.625   1.594   9.730 -0.5264 -1.0005 -0.3435
  146SAPE   H4S16076   6.727   1.637   9.601 -0.3654  1.2801 -0.5677
  146SAPE   C2516077   6.525   1.679   9.554 -0.3591 -0.7639 -0.0410
  146SAPE   H5R16078   6.427   1.708   9.594  0.7464  2.7843  0.4848
  146SAPE   C2616079   6.529   1.674   9.420 -0.4608  1.1482  0.0482
  146SAPE   H6R16080   6.432   1.673   9.368 -0.9161 -3.9026  0.4943
  146SAPE   C2716081   6.654   1.666   9.331  0.1313  0.7474 -0.2764
  146SAPE   H7R16082   6.669   1.563   9.291  0.5623  0.6741  0.0712
  146SAPE   H7S16083   6.744   1.681   9.394  1.0516 -1.6784 -0.8920
  146SAPE   C2816084   6.668   1.762   9.217 -0.3779  0.2230 -0.2926
  146SAPE   H8R16085   6.619   1.860   9.228 -2.0630 -0.3320 -2.2348
  146SAPE   C2916086   6.718   1.725   9.093  0.6180 -0.6073 -0.7948
  146SAPE   H9R16087   6.727   1.812   9.026 -1.8618 -0.2094 -0.7018
  146SAPE  C21016088   6.773   1.599   9.037  0.4111  0.2377  0.2111
  146SAPE  H10R16089   6.747   1.599   8.930  1.6334  0.4092 -0.1010
  146SAPE  H10S16090   6.710   1.518   9.079 -1.8632  1.0706 -1.3729
  146SAPE  C21116091   6.923   1.587   9.063  0.8073  0.2949  1.0720
  146SAPE  H11R16092   6.950   1.597   9.169 -0.2252  2.4767  1.1881
  146SAPE  C21216093   7.025   1.593   8.969 -0.0834  0.1215 -0.0266
  146SAPE  H12R16094   7.130   1.579   8.998 -0.2983 -0.4470  0.4806
  146SAPE  C21316095   7.017   1.607   8.823  0.6608 -0.4771 -0.0018
  146SAPE  H13R16096   7.117   1.589   8.778  0.9892 -1.3464  1.0614
  146SAPE  H13S16097   6.979   1.709   8.799  1.0557 -0.4803 -0.6839
  146SAPE  C21416098   6.928   1.512   8.749  0.0921  1.0017 -0.3170
  146SAPE  H14R16099   6.828   1.548   8.719 -0.7836 -0.7615  0.3557
  146SAPE  C21516100   6.950   1.373   8.735 -0.0946 -1.4312 -0.2514
  146SAPE  H15R16101   6.877   1.309   8.683  1.4736 -1.6740 -2.2912
  146SAPE  C21616102   7.073   1.299   8.787  0.2278  0.6219  0.5065
  146SAPE  H16R16103   7.053   1.246   8.883 -1.9367  0.3968 -0.0145
  146SAPE  H16S16104   7.150   1.376   8.808  0.5305  1.1234 -2.1563
  146SAPE  C21716105   7.139   1.212   8.677  0.4157  0.6859  0.3345
  146SAPE  H17R16106   7.224   1.164   8.730 -0.3769 -1.1080  0.0251
  146SAPE  H17S16107   7.173   1.273   8.590  1.1374 -0.0772  0.0701
  146SAPE  C21816108   7.050   1.100   8.622  0.5106 -0.6039 -0.7713
  146SAPE  H18R16109   7.125   1.026   8.586  0.2993 -0.2977 -1.8624
  146SAPE  H18S16110   6.999   1.133   8.529  0.3151  1.8975  0.1532
  146SAPE  C21916111   6.961   1.031   8.722  0.4351 -0.4634  0.0784
  146SAPE  H19R16112   6.885   1.101   8.763  0.8433  1.0449 -1.6270
  146SAPE  H19S16113   7.017   0.993   8.810  1.8422 -1.7032 -1.3051
  146SAPE  C22016114   6.874   0.923   8.653  0.0925  0.0874  0.3925
  146SAPE  H20R16115   6.823   0.960   8.562 -0.0565 -0.2805  0.3210
  146SAPE  H20S16116   6.798   0.876   8.719 -0.3955 -0.2695 -0.4054
  146SAPE  H20T16117   6.939   0.837   8.627 -0.6230 -0.6090  0.8317
  146SAPE   C3316118   6.077   1.708   9.902  0.6472 -0.7171  0.0989
  146SAPE   H3X16119   6.151   1.789   9.915 -0.3888 -0.1811  4.0266
  146SAPE   H3Y16120   5.983   1.759   9.870  1.0226  0.6662  1.1163
  146SAPE   C3416121   6.128   1.599   9.797  0.0793 -0.0220 -0.1392
  146SAPE   H4X16122   6.070   1.504   9.802  0.8938 -0.5299 -0.2171
  146SAPE   H4Y16123   6.233   1.566   9.814 -0.3220 -0.3989  1.9271
  146SAPE   C3516124   6.141   1.656   9.651 -0.1381 -0.2495 -0.1693
  146SAPE   H5X16125   6.209   1.586   9.597  0.1110 -0.4483  0.3907
  146SAPE   H5Y16126   6.193   1.754   9.646 -0.0066 -0.2726  0.5174
  146SAPE   C3616127   6.012   1.648   9.575 -0.2522 -0.2816  0.0030
  146SAPE   H6X16128   5.928   1.688   9.637  0.2465  0.5005  0.1856
  146SAPE   H6Y16129   5.990   1.541   9.552  0.1057 -0.2955 -0.2836
  146SAPE   C3716130   6.005   1.724   9.438  0.1005 -0.9204 -0.3356
  146SAPE   H7X16131   6.043   1.828   9.442 -0.8473 -0.5966  0.6716
  146SAPE   H7Y16132   5.903   1.717   9.395  0.4370  1.7659 -1.7896
  146SAPE   C3816133   6.084   1.660   9.323  0.8729  0.6490 -0.2436
  146SAPE   H8X16134   6.053   1.559   9.289  0.3546  1.1359 -1.2535
  146SAPE   H8Y16135   6.187   1.658   9.365  1.2078  0.4334 -1.0583
  146SAPE   C3916136   6.089   1.749   9.198  0.3833 -0.5617  0.4602
  146SAPE   H9X16137   6.097   1.858   9.221 -2.6327 -0.6516  2.5086
  146SAPE   H9Y16138   5.986   1.742   9.158  0.5543 -1.5861  0.1656
  146SAPE  C31016139   6.191   1.703   9.095 -0.8195 -0.4754 -1.0642
  146SAPE  H10X16140   6.180   1.596   9.066  0.3333 -0.8195 -0.3043
  146SAPE  H10Y16141   6.288   1.703   9.150 -0.6812 -1.7924 -1.2631
  146SAPE  C31116142   6.203   1.789   8.974  0.3910 -0.1915  0.0195
  146SAPE  H11X16143   6.311   1.800   8.951  0.8409  1.1904  2.4644
  146SAPE  H11Y16144   6.162   1.888   9.004 -0.9986 -0.9112  0.5850
  146SAPE  C31216145   6.125   1.731   8.858 -0.3880  0.7093  1.2673
  146SAPE  H12X16146   6.027   1.690   8.890 -1.7327  2.3970 -0.4797
  146SAPE  H12Y16147   6.167   1.639   8.812 -0.3438  1.5566 -0.4841
  146SAPE  C31316148   6.125   1.830   8.735  0.0985 -0.4958  0.2248
  146SAPE  H13X16149   6.062   1.917   8.763 -1.0871  0.1227 -3.7373
  146SAPE  H13Y16150   6.074   1.793   8.643  0.1341  1.4896 -0.6561
  146SAPE  C31416151   6.249   1.907   8.686 -0.1834  1.0471 -0.8138
  146SAPE  H14X16152   6.311   1.829   8.637 -0.3014 -0.4936  1.3483
  146SAPE  H14Y16153   6.300   1.954   8.773  0.1974  0.4458 -0.7080
  146SAPE  C31516154   6.204   2.018   8.601 -0.2330 -0.1259 -0.5893
  146SAPE  H15X16155   6.121   2.065   8.658  1.0720  1.1296  0.3916
  146SAPE  H15Y16156   6.164   1.974   8.508 -0.4943  0.7187 -0.8847
  146SAPE  C31616157   6.311   2.130   8.584  0.3187  0.0875  0.1519
  146SAPE  H16X16158   6.293   2.175   8.484 -3.5220 -0.9335  0.2109
  146SAPE  H16Y16159   6.411   2.082   8.586  0.0198 -0.6588 -1.4025
  146SAPE  C31716160   6.300   2.240   8.692 -0.5657 -0.2322  0.2095
  146SAPE  H17X16161   6.403   2.280   8.688 -0.3539 -0.8348 -0.8700
  146SAPE  H17Y16162   6.275   2.204   8.794  0.1819 -2.8205 -0.4454
  146SAPE  C31816163   6.211   2.356   8.656  0.5631 -1.1171 -0.5321
  146SAPE  H18X16164   6.110   2.316   8.632 -0.1548 -0.3555  1.0516
  146SAPE  H18Y16165   6.254   2.415   8.573  1.6508  0.2846  0.9653
  146SAPE  H18Z16166   6.212   2.425   8.743 -0.4437 -0.6672 -0.8595
  147SAPE     N16167   0.329   4.201  11.013 -0.0500 -0.3674 -0.3154
  147SAPE   HN116168   0.346   4.107  10.973 -0.6992 -0.7602  0.2983
  147SAPE   HN216169   0.302   4.179  11.111  1.8628  0.0740  0.3591
  147SAPE   HN316170   0.251   4.250  10.966 -0.9366 -0.0250  1.4178
  147SAPE   C1216171   0.460   4.278  11.011 -0.3392 -0.5898  0.6078
  147SAPE  H12A16172   0.523   4.209  11.071 -1.0871 -1.2092  0.7083
  147SAPE  H12B16173   0.449   4.376  11.061  0.5107  1.0984 -2.2688
  147SAPE   C1116174   0.513   4.282  10.868 -0.4938  0.7893  0.6013
  147SAPE  H11A16175   0.453   4.364  10.824 -3.2206 -0.4947  1.6989
  147SAPE  H11B16176   0.485   4.187  10.818  0.3096  1.1957 -0.6665
  147SAPE     P16177   0.729   4.400  10.762 -0.2973  0.2145 -0.3093
  147SAPE   O1316178   0.686   4.539  10.803 -0.3916  0.4009 -0.1303
  147SAPE   O1416179   0.875   4.368  10.763  0.2625 -0.1622  0.4681
  147SAPE   O1216180   0.658   4.299  10.866 -0.1210  0.1033 -0.5495
  147SAPE   O1116181   0.653   4.364  10.630  0.5675 -0.2444  0.3536
  147SAPE    C116182   0.721   4.269  10.544  0.2113  0.3744  0.2937
  147SAPE    HA16183   0.777   4.336  10.476 -1.8890  1.3639 -0.5636
  147SAPE    HB16184   0.775   4.183  10.589 -1.6049 -1.9213 -1.6194
  147SAPE    C216185   0.618   4.202  10.451  0.6171  0.1414 -0.3552
  147SAPE    HS16186   0.544   4.143  10.509  0.4845  0.5736 -0.0779
  147SAPE   O2116187   0.693   4.118  10.363 -0.2523 -0.5572 -0.2831
  147SAPE   C2116188   0.640   4.005  10.334 -0.3000  0.0018 -0.0179
  147SAPE   O2216189   0.529   3.963  10.371 -0.0173 -0.0527 -0.7645
  147SAPE   C2216190   0.724   3.923  10.230 -0.5880 -0.0909 -0.5108
  147SAPE   H2R16191   0.655   3.867  10.162  1.7818 -2.0818 -1.4357
  147SAPE   H2S16192   0.789   3.994  10.175  0.4301  0.9852  1.9475
  147SAPE    C316193   0.543   4.312  10.368  0.3441  0.3186 -0.0107
  147SAPE    HX16194   0.619   4.377  10.321  0.4190  2.3264  2.6755
  147SAPE    HY16195   0.482   4.377  10.435 -2.7096 -2.8739  0.6189
  147SAPE   O3116196   0.457   4.256  10.270 -0.2141 -0.3123 -0.5927
  147SAPE   C3116197   0.333   4.213  10.309  0.3956 -0.4955 -0.2049
  147SAPE   O3216198   0.304   4.205  10.430 -0.8191 -0.4736  0.0493
  147SAPE   C3216199   0.245   4.180  10.194 -0.7819  0.3461  0.4516
  147SAPE   H2X16200   0.149   4.137  10.232 -1.0121  0.7755  0.3686
  147SAPE   H2Y16201   0.296   4.100  10.137 -0.7337  1.1161 -0.6164
  147SAPE   C2316202   0.818   3.814  10.293  0.5457  0.2556 -0.2253
  147SAPE   H3R16203   0.766   3.730  10.343 -0.9723 -1.2370 -3.9394
  147SAPE   H3S16204   0.880   3.858  10.374  0.3941  1.2093 -0.6121
  147SAPE   C2416205   0.920   3.740  10.198 -0.5612 -0.5616  0.6739
  147SAPE   H4R16206   0.864   3.661  10.144 -0.3225 -0.9503  0.9904
  147SAPE   H4S16207   0.985   3.678  10.263 -1.1321 -1.6358  0.2422
  147SAPE   C2516208   1.004   3.834  10.116  0.0426  0.7854  0.3000
  147SAPE   H5R16209   1.062   3.907  10.174 -1.1625  2.1467 -0.1518
  147SAPE   C2616210   0.998   3.841   9.976 -0.6253 -0.0619 -1.1192
  147SAPE   H6R16211   1.086   3.885   9.926  0.8096 -1.5485  0.0195
  147SAPE   C2716212   0.921   3.746   9.885  0.3380  0.0683  0.4182
  147SAPE   H7R16213   0.821   3.719   9.926 -0.5843 -0.0356 -1.7734
  147SAPE   H7S16214   0.978   3.651   9.888 -0.3116 -0.3119  3.2183
  147SAPE   C2816215   0.907   3.795   9.747 -0.1185  0.9525  0.1372
  147SAPE   H8R16216   0.849   3.888   9.744 -2.7338 -0.5782 -1.4642
  147SAPE   C2916217   0.952   3.745   9.631 -0.1804  0.3277 -0.4402
  147SAPE   H9R16218   0.915   3.797   9.542 -2.6290 -0.8049 -0.1654
  147SAPE  C21016219   1.043   3.620   9.597  0.1085 -0.3107  0.1348
  147SAPE  H10R16220   1.007   3.583   9.499  0.3021 -1.0416  0.3367
  147SAPE  H10S16221   1.011   3.533   9.657  0.2616 -0.7428 -0.4014
  147SAPE  C21116222   1.192   3.647   9.595  0.2326 -0.0741  0.5808
  147SAPE  H11R16223   1.244   3.664   9.690  0.8728  0.6642  0.1084
  147SAPE  C21216224   1.274   3.638   9.491  0.6978  0.2372 -0.1132
  147SAPE  H12R16225   1.382   3.646   9.505  0.4629  1.5721  1.1827
  147SAPE  C21316226   1.235   3.601   9.349  0.3706  0.1502  0.0082
  147SAPE  H13R16227   1.284   3.673   9.280  0.9131  0.4238  0.6651
  147SAPE  H13S16228   1.127   3.623   9.337  0.3097 -0.1872 -0.0708
  147SAPE  C21416229   1.283   3.459   9.313  0.4387 -0.4975  0.2396
  147SAPE  H14R16230   1.260   3.376   9.381 -0.4236 -2.0824 -1.8662
  147SAPE  C21516231   1.346   3.428   9.199  0.7543  0.4702 -0.0115
  147SAPE  H15R16232   1.386   3.326   9.187 -0.5342 -0.0787  0.1530
  147SAPE  C21616233   1.379   3.513   9.080  0.0105 -0.6806 -0.1853
  147SAPE  H16R16234   1.457   3.587   9.106  0.5260 -0.8381 -1.2525
  147SAPE  H16S16235   1.289   3.568   9.045 -0.1237 -2.9052 -3.9901
  147SAPE  C21716236   1.433   3.435   8.962 -0.3302  0.6071 -0.2122
  147SAPE  H17R16237   1.410   3.489   8.868 -1.5800  0.0723 -0.2294
  147SAPE  H17S16238   1.367   3.347   8.956 -0.8988  0.9873  0.3068
  147SAPE  C21816239   1.581   3.382   8.969 -0.2582  0.2683  0.4082
  147SAPE  H18R16240   1.593   3.317   8.880  0.0897 -0.8491  1.2508
  147SAPE  H18S16241   1.581   3.327   9.065  2.9329  0.7520  0.7868
  147SAPE  C21916242   1.678   3.498   8.953 -0.0775 -0.1160  0.3637
  147SAPE  H19R16243   1.666   3.562   9.043  0.6460 -0.3182  0.6076
  147SAPE  H19S16244   1.656   3.560   8.863 -0.2627 -2.8248 -1.5851
  147SAPE  C22016245   1.821   3.454   8.944 -0.5124 -0.0888  0.8428
  147SAPE  H20R16246   1.842   3.394   9.035  3.6204 -1.3405 -0.7364
  147SAPE  H20S16247   1.888   3.542   8.938 -1.9218  0.9965  0.5231
  147SAPE  H20T16248   1.840   3.402   8.848 -3.0649 -0.5947  0.5422
  147SAPE   C3316249   0.226   4.296  10.098 -0.7233 -0.5643  0.4479
  147SAPE   H3X16250   0.323   4.339  10.065 -0.4733  0.2822  2.2149
  147SAPE   H3Y16251   0.171   4.382  10.142  2.5624  2.1429 -0.3516
  147SAPE   C3416252   0.158   4.242   9.965 -0.4983  0.1339  0.3450
  147SAPE   H4X16253   0.050   4.231   9.990 -1.0045  0.7807 -1.4375
  147SAPE   H4Y16254   0.197   4.138   9.954 -1.5742 -0.2897  0.4328
  147SAPE   C3516255   0.172   4.335   9.842 -0.0392  0.5867  0.2519
  147SAPE   H5X16256   0.278   4.365   9.831  0.0172  0.9388  1.6059
  147SAPE   H5Y16257   0.113   4.427   9.861 -0.1016  1.0583 -1.8882
  147SAPE   C3616258   0.130   4.278   9.706  0.5071 -0.1775 -0.5747
  147SAPE   H6X16259   0.027   4.236   9.711  0.2469  0.4907 -0.0089
  147SAPE   H6Y16260   0.200   4.196   9.682  0.0568  0.0943 -3.1215
  147SAPE   C3716261   0.134   4.388   9.600 -0.4306 -0.4380 -0.4025
  147SAPE   H7X16262   0.229   4.441   9.621 -2.3574  2.6417  1.2174
  147SAPE   H7Y16263   0.050   4.448   9.642 -0.1378 -0.3755  0.0948
  147SAPE   C3816264   0.131   4.319   9.463 -0.1020 -0.2305 -0.1302
  147SAPE   H8X16265   0.047   4.247   9.459 -1.1035  0.9140 -0.3645
  147SAPE   H8Y16266   0.223   4.257   9.455  0.2390  0.2031  0.3514
  147SAPE   C3916267   0.115   4.420   9.351 -0.1554 -0.8748 -0.2962
  147SAPE   H9X16268   0.194   4.498   9.353 -0.8012 -0.1788 -0.9755
  147SAPE   H9Y16269   0.020   4.479   9.353  0.0204 -0.5917  2.0149
  147SAPE  C31016270   0.122   4.352   9.214 -0.4830  0.0325  0.0731
  147SAPE  H10X16271   0.023   4.311   9.185 -0.4484 -1.3453  1.7145
  147SAPE  H10Y16272   0.195   4.269   9.201  0.3230  1.0027 -1.9155
  147SAPE  C31116273   0.150   4.463   9.111 -0.3427 -0.7655 -0.1428
  147SAPE  H11X16274   0.258   4.489   9.110 -0.1593 -1.5115 -0.9684
  147SAPE  H11Y16275   0.097   4.557   9.139  0.9290 -0.3544  0.9489
  147SAPE  C31216276   0.109   4.430   8.963 -0.3099  0.4015  0.4210
  147SAPE  H12X16277   0.155   4.507   8.897 -0.0834 -0.7780 -0.8663
  147SAPE  H12Y16278   0.000   4.418   8.946 -0.0785 -1.8274  0.2560
  147SAPE  C31316279   0.175   4.298   8.932  0.1644  0.3722  0.9187
  147SAPE  H13X16280   0.137   4.216   8.996 -2.7949  0.1666 -0.9027
  147SAPE  H13Y16281   0.284   4.319   8.941  0.4947 -1.5967  1.9247
  147SAPE  C31416282   0.151   4.256   8.780 -0.8514  0.2102 -0.0760
  147SAPE  H14X16283   0.193   4.343   8.725 -1.3141 -0.3801 -1.4103
  147SAPE  H14Y16284   0.040   4.259   8.773 -0.8583  0.9300  0.2229
  147SAPE  C31516285   0.203   4.124   8.724  0.4330 -0.2365 -0.6852
  147SAPE  H15X16286   0.309   4.126   8.759  0.4469  2.5660 -0.6367
  147SAPE  H15Y16287   0.186   4.129   8.614 -3.5910 -0.9723 -0.2398
  147SAPE  C31616288   0.134   3.991   8.772 -0.1132  0.0319 -0.2130
  147SAPE  H16X16289   0.128   3.913   8.693 -0.2951  0.0250 -0.1941
  147SAPE  H16Y16290   0.029   4.021   8.797 -0.6414 -1.2845 -0.7653
  147SAPE  C31716291   0.215   3.942   8.884  0.2095  0.0938 -0.7477
  147SAPE  H17X16292   0.246   4.024   8.953  3.1132 -0.8309 -0.8254
  147SAPE  H17Y16293   0.311   3.907   8.842  0.3787  0.5838 -0.7808
  147SAPE  C31816294   0.142   3.841   8.973  0.1253  0.9954 -0.5480
  147SAPE  H18X16295   0.215   3.806   9.050  0.2345 -3.0423 -2.2956
  147SAPE  H18Y16296   0.125   3.749   8.914  1.0688  0.4850 -0.0488
  147SAPE  H18Z16297   0.057   3.881   9.033  0.3075 -0.3064  0.6300
  148SAPE     N16298   1.455   6.783  10.674 -0.0067  0.1685 -0.2551
  148SAPE   HN116299   1.525   6.786  10.752 -2.5910  0.1877  2.2286
  148SAPE   HN216300   1.380   6.721  10.712  2.3391 -0.2433  4.5386
  148SAPE   HN316301   1.506   6.723  10.606 -0.7057 -0.6044 -0.1070
  148SAPE   C1216302   1.419   6.918  10.616  1.0955 -0.4036 -0.0007
  148SAPE  H12A16303   1.351   6.968  10.687  0.5098 -3.9442  2.2170
  148SAPE  H12B16304   1.367   6.909  10.518  1.7142  1.7868 -0.5894
  148SAPE   C1116305   1.550   6.996  10.597 -0.3099 -0.1193 -1.2119
  148SAPE  H11A16306   1.592   7.009  10.699 -0.1284 -0.8612 -1.1857
  148SAPE  H11B16307   1.520   7.098  10.565 -0.2379  0.1901 -0.3221
  148SAPE     P16308   1.783   6.903  10.545 -0.2535 -0.3416  0.0384
  148SAPE   O1316309   1.761   6.790  10.640  0.2354 -0.1845  0.5689
  148SAPE   O1416310   1.875   6.882  10.429  0.0382 -0.5748 -0.5033
  148SAPE   O1216311   1.639   6.940  10.494 -0.0914 -0.3786  0.4035
  148SAPE   O1116312   1.829   7.031  10.632  0.1793  0.0167  0.5230
  148SAPE    C116313   1.969   7.077  10.653 -0.0200  0.2141 -0.3784
  148SAPE    HA16314   1.981   7.099  10.761 -1.5114  0.7199 -0.2871
  148SAPE    HB16315   2.056   7.015  10.621  0.5096  0.5456  0.4128
  148SAPE    C216316   1.990   7.215  10.589  0.4117 -0.0943  0.3755
  148SAPE    HS16317   1.910   7.277  10.634 -1.4552 -2.1120 -0.0040
  148SAPE   O2116318   1.963   7.199  10.451 -0.2512 -0.3789  0.0890
  148SAPE   C2116319   1.836   7.210  10.415  0.2954 -1.0299  0.6947
  148SAPE   O2216320   1.744   7.255  10.481 -0.3832  0.3166 -0.5244
  148SAPE   C2216321   1.814   7.171  10.272 -0.5771 -0.0263  0.1169
  148SAPE   H2R16322   1.899   7.112  10.232  0.2658  1.6365 -0.6334
  148SAPE   H2S16323   1.721   7.110  10.267 -0.4715 -0.0966 -2.8742
  148SAPE    C316324   2.133   7.281  10.604  0.2300  0.1195  0.1833
  148SAPE    HX16325   2.213   7.234  10.543  0.1151 -0.0388  0.1546
  148SAPE    HY16326   2.161   7.256  10.708  1.6891  0.7195 -0.0504
  148SAPE   O3116327   2.127   7.428  10.594 -0.2906  0.2311  0.3216
  148SAPE   C3116328   2.172   7.472  10.476  0.3852  0.1541  0.6903
  148SAPE   O3216329   2.206   7.399  10.382  0.8350 -0.0473  0.1023
  148SAPE   C3216330   2.172   7.634  10.493 -0.5674  0.1546  0.7088
  148SAPE   H2X16331   2.248   7.653  10.572 -0.1259 -1.4409  0.6969
  148SAPE   H2Y16332   2.074   7.682  10.518  0.1663  1.5638  0.9970
  148SAPE   C2316333   1.796   7.305  10.192 -0.1649  0.3149 -0.1156
  148SAPE   H3R16334   1.712   7.364  10.235  0.7707  0.2268  1.9330
  148SAPE   H3S16335   1.753   7.275  10.094 -1.0050  2.0361 -0.3317
  148SAPE   C2416336   1.922   7.391  10.172  0.6161  0.0560  0.0640
  148SAPE   H4R16337   1.964   7.436  10.265 -1.5220 -1.1274  1.6962
  148SAPE   H4S16338   1.891   7.482  10.116 -1.6273 -0.8619 -0.2820
  148SAPE   C2516339   2.034   7.317  10.105  0.0668 -0.2125  0.1610
  148SAPE   H5R16340   2.086   7.243  10.168 -0.0530 -4.0760 -3.8431
  148SAPE   C2616341   2.056   7.314   9.970  0.1587  0.0756 -0.3256
  148SAPE   H6R16342   2.132   7.243   9.934  1.7130  0.3768  2.1359
  148SAPE   C2716343   1.976   7.380   9.856 -0.2388  0.2845  0.3085
  148SAPE   H7R16344   2.051   7.449   9.811 -1.2618  0.7111 -0.8161
  148SAPE   H7S16345   1.894   7.444   9.895 -1.1182 -0.2252 -0.6336
  148SAPE   C2816346   1.930   7.284   9.752 -0.1962 -0.2823  0.8469
  148SAPE   H8R16347   1.900   7.187   9.795  0.6737 -0.8642  0.1662
  148SAPE   C2916348   1.936   7.289   9.616 -0.2425 -0.4043 -0.1977
  148SAPE   H9R16349   1.890   7.206   9.560 -2.3547 -0.0924  0.9434
  148SAPE  C21016350   1.991   7.403   9.530  0.0013  0.5960 -0.7541
  148SAPE  H10R16351   1.950   7.501   9.560  1.1644 -0.1123  3.8748
  148SAPE  H10S16352   1.948   7.395   9.428 -0.4985 -0.1212 -0.4983
  148SAPE  C21116353   2.140   7.408   9.529  0.1161 -0.3789  0.0296
  148SAPE  H11R16354   2.180   7.403   9.631 -0.4407  0.8377  0.3144
  148SAPE  C21216355   2.219   7.428   9.418 -1.1290 -0.5581 -0.2054
  148SAPE  H12R16356   2.324   7.447   9.446 -1.1308 -1.6616  0.6654
  148SAPE  C21316357   2.183   7.444   9.270  0.0886  0.0176 -0.1851
  148SAPE  H13R16358   2.181   7.553   9.247 -1.0693  0.0374 -0.0521
  148SAPE  H13S16359   2.081   7.406   9.250 -0.1627 -0.4609  1.8227
  148SAPE  C21416360   2.269   7.376   9.164  0.2413 -0.2333 -0.1146
  148SAPE  H14R16361   2.238   7.274   9.138 -1.5792  0.8519 -2.6128
  148SAPE  C21516362   2.381   7.426   9.107  0.1943  0.2475 -0.2650
  148SAPE  H15R16363   2.422   7.367   9.024 -1.0543  0.3334 -0.9617
  148SAPE  C21616364   2.449   7.554   9.133 -0.0691 -0.7367  0.9877
  148SAPE  H16R16365   2.555   7.531   9.157  0.2790 -0.2359  0.0013
  148SAPE  H16S16366   2.410   7.606   9.223  0.9917  1.6771  0.1499
  148SAPE  C21716367   2.452   7.642   9.007 -0.4892  0.4310 -0.1833
  148SAPE  H17R16368   2.496   7.591   8.919 -1.3723 -1.3413  0.3486
  148SAPE  H17S16369   2.508   7.735   9.027  2.1904 -0.5367 -2.5665
  148SAPE  C21816370   2.307   7.686   8.964 -0.2115  0.4892 -0.1924
  148SAPE  H18R16371   2.283   7.792   8.989  0.0116  0.5091 -0.0625
  148SAPE  H18S16372   2.235   7.627   9.026 -2.8634  3.6335  0.0212
  148SAPE  C21916373   2.263   7.649   8.825  0.4782 -0.1661  0.3847
  148SAPE  H19R16374   2.336   7.676   8.745  0.7776  0.1769  0.7729
  148SAPE  H19S16375   2.180   7.721   8.809  1.5868  1.2690  0.8960
  148SAPE  C22016376   2.213   7.512   8.804 -0.2167 -0.7423  0.7630
  148SAPE  H20R16377   2.290   7.441   8.841  1.5758  0.5112 -0.3953
  148SAPE  H20S16378   2.188   7.487   8.698 -2.9804  1.4618  0.7688
  148SAPE  H20T16379   2.121   7.509   8.867  0.5300  3.0127  2.2434
  148SAPE   C3316380   2.222   7.699  10.362  0.0567 -0.0778 -0.6520
  148SAPE   H3X16381   2.326   7.668  10.339  0.0934 -1.8943  1.5422
  148SAPE   H3Y16382   2.237   7.808  10.382  0.7794 -0.2824 -0.0495
  148SAPE   C3416383   2.129   7.679  10.242  0.3301  0.0736 -0.0798
  148SAPE   H4X16384   2.025   7.682  10.278  0.2172  1.4209 -0.4829
  148SAPE   H4Y16385   2.135   7.580  10.191 -0.2351  0.1176 -0.2396
  148SAPE   C3516386   2.166   7.771  10.118  0.4823  0.5858  0.0797
  148SAPE   H5X16387   2.264   7.754  10.069 -1.0640 -1.1458 -2.6572
  148SAPE   H5Y16388   2.157   7.877  10.152 -1.5367  1.5843 -3.1142
  148SAPE   C3616389   2.071   7.746  10.005 -0.2956 -0.4600  0.2014
  148SAPE   H6X16390   1.974   7.777  10.051  1.3210  0.0891  3.5806
  148SAPE   H6Y16391   2.076   7.636   9.994 -0.3745 -0.5415  0.9191
  148SAPE   C3716392   2.116   7.838   9.886  0.0992 -0.5929 -0.6002
  148SAPE   H7X16393   2.220   7.811   9.858  0.4625  1.7359 -1.6946
  148SAPE   H7Y16394   2.125   7.943   9.919  1.6355 -1.0201  0.4559
  148SAPE   C3816395   2.017   7.828   9.776 -0.3148 -0.5554 -0.0084
  148SAPE   H8X16396   1.918   7.860   9.815  0.7636  1.5765  1.2066
  148SAPE   H8Y16397   1.993   7.723   9.749 -2.4432  0.5175 -2.8362
  148SAPE   C3916398   2.058   7.909   9.656 -0.3884  0.4017 -1.1674
  148SAPE   H9X16399   2.167   7.904   9.635  0.0114 -0.5593  0.9453
  148SAPE   H9Y16400   2.052   8.016   9.684 -2.2693  0.2821 -0.9904
  148SAPE  C31016401   1.968   7.894   9.535  0.3067 -0.1803 -0.4336
  148SAPE  H10X16402   1.872   7.943   9.561 -1.3381 -3.6690  0.6672
  148SAPE  H10Y16403   1.948   7.787   9.511  1.1936 -0.7879  1.4093
  148SAPE  C31116404   2.033   7.956   9.402  0.6226 -0.1255  0.1487
  148SAPE  H11X16405   2.137   7.921   9.385  0.3313 -0.2567 -1.4989
  148SAPE  H11Y16406   2.045   8.066   9.409 -0.0360  0.1171 -1.8265
  148SAPE  C31216407   1.952   7.939   9.273  0.1627  0.8191  0.1470
  148SAPE  H12X16408   1.986   8.013   9.197 -2.2492  3.3289  1.3551
  148SAPE  H12Y16409   1.843   7.949   9.292  0.3467  3.2593  0.3290
  148SAPE  C31316410   1.982   7.796   9.214 -0.6340 -0.2177  0.5755
  148SAPE  H13X16411   1.964   7.719   9.292  0.2160  1.4430  2.4944
  148SAPE  H13Y16412   2.092   7.798   9.195 -0.6497 -0.8032  0.4011
  148SAPE  C31416413   1.910   7.759   9.082  0.3425  0.2367 -0.4000
  148SAPE  H14X16414   1.803   7.787   9.088  1.2950  4.4382  0.2510
  148SAPE  H14Y16415   1.929   7.652   9.058 -1.0338  0.0516 -0.7384
  148SAPE  C31516416   1.959   7.844   8.966 -0.0364  0.7716  0.7026
  148SAPE  H15X16417   2.066   7.823   8.946 -0.0507  1.1627  0.1922
  148SAPE  H15Y16418   1.956   7.949   9.002  0.1294  0.6629  1.0417
  148SAPE  C31616419   1.874   7.811   8.836  0.2868  0.3945  0.6123
  148SAPE  H16X16420   1.766   7.806   8.862 -0.2447  2.1774 -0.9725
  148SAPE  H16Y16421   1.897   7.715   8.785 -0.1682  1.6856 -2.2378
  148SAPE  C31716422   1.888   7.924   8.732  0.5288 -0.1169 -0.0282
  148SAPE  H17X16423   1.995   7.927   8.702  1.6051 -1.1340  3.2286
  148SAPE  H17Y16424   1.862   8.026   8.768  0.6724  0.1337 -0.6233
  148SAPE  C31816425   1.800   7.895   8.616 -0.2144 -0.8188  0.0358
  148SAPE  H18X16426   1.788   7.787   8.596  0.5384 -1.1222  1.1272
  148SAPE  H18Y16427   1.851   7.944   8.530 -0.9227 -0.2616 -0.0750
  148SAPE  H18Z16428   1.696   7.933   8.627  0.0968  0.3372 -0.7419
  149SAPE     N16429   5.886   2.306  10.905 -0.5147 -0.1481 -0.0729
  149SAPE   HN116430   5.935   2.229  10.855 -0.7840 -0.9125  0.8108
  149SAPE   HN216431   5.959   2.376  10.931  0.3446 -1.8102  2.3926
  149SAPE   HN316432   5.847   2.269  10.994  0.5844 -3.6755 -0.9026
  149SAPE   C1216433   5.763   2.351  10.831 -0.1748 -0.3904 -0.3371
  149SAPE  H12A16434   5.793   2.398  10.735  1.6173 -1.2023 -0.2187
  149SAPE  H12B16435   5.710   2.420  10.901  1.7826 -1.3542  2.2720
  149SAPE   C1116436   5.665   2.231  10.803  0.4987 -0.5413  0.5099
  149SAPE  H11A16437   5.725   2.162  10.740  1.3454 -0.5055  1.2714
  149SAPE  H11B16438   5.589   2.277  10.735  2.0902 -0.4158 -1.2902
  149SAPE     P16439   5.490   2.210  11.001  0.1227  0.0200 -0.2806
  149SAPE   O1316440   5.487   2.131  11.125 -0.0730  0.0712  0.1444
  149SAPE   O1416441   5.491   2.358  11.020  0.0516  0.1010 -0.3122
  149SAPE   O1216442   5.617   2.159  10.915  0.0640  0.5703 -0.4360
  149SAPE   O1116443   5.376   2.153  10.914 -0.0990 -0.4838  0.1135
  149SAPE    C116444   5.353   2.020  10.866 -0.0404  0.3554 -0.0806
  149SAPE    HA16445   5.442   1.986  10.807 -0.4022 -0.5867 -0.0950
  149SAPE    HB16446   5.327   1.958  10.954 -1.0384  1.2261  0.2548
  149SAPE    C216447   5.232   2.011  10.769 -0.4858  0.6699  0.2533
  149SAPE    HS16448   5.268   1.963  10.675 -1.7251  3.1583 -1.5994
  149SAPE   O2116449   5.182   2.142  10.726 -0.3026  0.6937  0.3366
  149SAPE   C2116450   5.252   2.197  10.625 -0.1090  0.1112  0.4409
  149SAPE   O2216451   5.364   2.157  10.592 -0.2291 -0.0563  0.2017
  149SAPE   C2216452   5.178   2.302  10.555  0.0715  0.1374  0.0323
  149SAPE   H2R16453   5.173   2.387  10.627 -0.5837  0.3651 -0.2694
  149SAPE   H2S16454   5.216   2.337  10.457 -0.6509 -2.2555 -1.1688
  149SAPE    C316455   5.119   1.937  10.843  0.1718  0.1006 -0.1714
  149SAPE    HX16456   5.073   2.011  10.911  1.7840 -0.3342  1.4669
  149SAPE    HY16457   5.145   1.845  10.901  0.4433 -1.2046 -2.2410
  149SAPE   O3116458   5.021   1.901  10.739 -0.0087  0.1304 -0.0004
  149SAPE   C3116459   5.031   1.783  10.685 -0.3069 -0.1463  0.2142
  149SAPE   O3216460   5.082   1.688  10.737 -0.4836 -0.1250  0.3735
  149SAPE   C3216461   4.952   1.782  10.554  0.3554 -0.9079  0.3410
  149SAPE   H2X16462   4.892   1.688  10.549  0.1614 -0.7299 -2.5397
  149SAPE   H2Y16463   5.017   1.795  10.465  2.3333  0.5014  1.8915
  149SAPE   C2316464   5.024   2.280  10.538  0.0776 -0.5602  0.5942
  149SAPE   H3R16465   4.967   2.371  10.566  0.5368 -0.0604 -0.0512
  149SAPE   H3S16466   4.990   2.192  10.597 -1.4821 -1.7159 -1.8488
  149SAPE   C2416467   4.970   2.252  10.392  0.1927 -0.6683 -0.4629
  149SAPE   H4R16468   4.942   2.348  10.345 -2.7265 -1.3233 -0.2216
  149SAPE   H4S16469   4.873   2.202  10.411  0.4511 -1.1025 -0.2608
  149SAPE   C2516470   5.057   2.161  10.303  0.1747 -0.1867  0.2456
  149SAPE   H5R16471   5.060   2.053  10.325  3.1574 -0.4146 -0.7698
  149SAPE   C2616472   5.141   2.209  10.207  0.0796 -0.5386  0.1563
  149SAPE   H6R16473   5.192   2.139  10.139 -1.3116 -0.8779 -0.5700
  149SAPE   C2716474   5.169   2.350  10.160  0.4420 -0.9262 -1.0652
  149SAPE   H7R16475   5.116   2.414  10.235  0.5987 -2.5524  0.5086
  149SAPE   H7S16476   5.123   2.376  10.062 -1.3848  0.0862  0.0002
  149SAPE   C2816477   5.318   2.356  10.165  0.0178 -1.1761 -0.5615
  149SAPE   H8R16478   5.370   2.399  10.252 -2.1125  1.8047 -0.6332
  149SAPE   C2916479   5.390   2.312  10.065 -0.1703  0.3497  0.6949
  149SAPE   H9R16480   5.500   2.318  10.069 -0.1688  0.4027  0.5899
  149SAPE  C21016481   5.341   2.251   9.939  0.3522 -0.3896 -0.2107
  149SAPE  H10R16482   5.244   2.301   9.916  0.0351 -0.5783  0.7051
  149SAPE  H10S16483   5.319   2.144   9.961 -0.2106 -0.0245  1.0516
  149SAPE  C21116484   5.442   2.272   9.825 -1.1161 -1.3247  0.1886
  149SAPE  H11R16485   5.545   2.257   9.860 -0.8919  0.1325  0.2250
  149SAPE  C21216486   5.405   2.295   9.696 -0.0375 -0.1515 -0.4715
  149SAPE  H12R16487   5.486   2.306   9.622 -1.5981 -0.7283 -2.3649
  149SAPE  C21316488   5.260   2.301   9.648 -0.0830 -0.4690 -0.1918
  149SAPE  H13R16489   5.209   2.396   9.674 -1.2708 -0.7537 -1.3593
  149SAPE  H13S16490   5.208   2.217   9.698 -0.9172  0.7610  1.0969
  149SAPE  C21416491   5.233   2.268   9.502  0.3763  0.5379 -0.1722
  149SAPE  H14R16492   5.156   2.192   9.487 -0.0139  1.2193 -1.9529
  149SAPE  C21516493   5.281   2.326   9.388 -0.1195 -0.5302 -0.5791
  149SAPE  H15R16494   5.247   2.286   9.292 -0.5453  1.0033 -1.0926
  149SAPE  C21616495   5.375   2.447   9.379 -0.5900  0.5255  0.3483
  149SAPE  H16R16496   5.393   2.477   9.484 -1.6548 -2.8141  1.6398
  149SAPE  H16S16497   5.330   2.527   9.318 -1.4154  0.9892  1.5208
  149SAPE  C21716498   5.506   2.401   9.313 -0.6152  0.2582  0.7176
  149SAPE  H17R16499   5.566   2.349   9.390  0.3890  0.5632  0.1701
  149SAPE  H17S16500   5.567   2.488   9.280 -0.6840  0.2258  0.5003
  149SAPE  C21816501   5.495   2.323   9.171 -0.0154  0.1884  0.4453
  149SAPE  H18R16502   5.440   2.228   9.187 -0.8498  1.0677  3.7511
  149SAPE  H18S16503   5.598   2.307   9.132 -0.3164  2.2998 -1.4276
  149SAPE  C21916504   5.415   2.406   9.063 -0.2355 -0.4938 -0.0156
  149SAPE  H19R16505   5.479   2.496   9.055 -0.8809 -0.0791 -0.6153
  149SAPE  H19S16506   5.317   2.442   9.100 -0.6521 -1.3897 -0.2031
  149SAPE  C22016507   5.397   2.338   8.931 -0.0815  0.3820  0.4183
  149SAPE  H20R16508   5.334   2.249   8.949 -0.9268  0.9004  0.1031
  149SAPE  H20S16509   5.490   2.303   8.882  0.0196 -1.1025  1.5968
  149SAPE  H20T16510   5.355   2.401   8.850 -1.2665 -0.3483  0.4407
  149SAPE   C3316511   4.850   1.899  10.553 -0.1538 -0.4442 -0.2801
  149SAPE   H3X16512   4.901   1.997  10.538 -0.5980 -0.1442  0.1381
  149SAPE   H3Y16513   4.795   1.898  10.650 -2.5553 -0.0061 -1.5788
  149SAPE   C3416514   4.741   1.898  10.444  0.2390 -0.2545 -0.2070
  149SAPE   H4X16515   4.680   1.990  10.451  2.7036  1.4720  0.0236
  149SAPE   H4Y16516   4.670   1.818  10.473  1.1914 -0.9818  0.1867
  149SAPE   C3516517   4.794   1.859  10.308 -0.1246 -0.2955 -0.7737
  149SAPE   H5X16518   4.855   1.767  10.300  2.2287  1.0018  1.1424
  149SAPE   H5Y16519   4.871   1.937  10.287  0.3275 -0.1605  1.2447
  149SAPE   C3616520   4.679   1.853  10.206  0.0998 -0.2503  0.1805
  149SAPE   H6X16521   4.637   1.954  10.185 -2.9427 -2.0980 -3.8500
  149SAPE   H6Y16522   4.601   1.788  10.252  0.5206 -0.2255  0.9547
  149SAPE   C3716523   4.733   1.796  10.064  1.1264 -1.0117 -0.1176
  149SAPE   H7X16524   4.732   1.685  10.067 -1.9129 -1.0757 -0.9844
  149SAPE   H7Y16525   4.840   1.822  10.047  0.5730  0.8926 -1.0029
  149SAPE   C3816526   4.653   1.844   9.941  0.7133  0.0477 -0.0538
  149SAPE   H8X16527   4.641   1.954   9.943  1.6622  0.1464  0.6315
  149SAPE   H8Y16528   4.557   1.791   9.956  0.1706  0.8277 -0.6890
  149SAPE   C3916529   4.712   1.811   9.803 -0.7080 -0.1430 -0.4953
  149SAPE   H9X16530   4.722   1.700   9.797 -1.8502 -0.3717  1.1835
  149SAPE   H9Y16531   4.816   1.849   9.801 -0.5091 -0.6404  0.0812
  149SAPE  C31016532   4.640   1.868   9.680 -0.5000  0.1285 -0.3216
  149SAPE  H10X16533   4.618   1.976   9.684 -1.9935 -0.0937 -1.7288
  149SAPE  H10Y16534   4.544   1.818   9.657  1.4332 -4.5493  0.5416
  149SAPE  C31116535   4.742   1.865   9.563 -0.3250 -0.9689  0.3029
  149SAPE  H11X16536   4.777   1.763   9.534 -0.6545  0.2250 -5.6013
  149SAPE  H11Y16537   4.828   1.934   9.576 -0.2254 -0.4764 -2.3739
  149SAPE  C31216538   4.673   1.911   9.439  0.5208 -0.5283  0.1432
  149SAPE  H12X16539   4.612   1.999   9.469  1.5504 -0.2004  1.3333
  149SAPE  H12Y16540   4.599   1.839   9.399  0.4842 -1.2274  1.3951
  149SAPE  C31316541   4.770   1.947   9.321  0.3326  0.4061 -0.6418
  149SAPE  H13X16542   4.835   2.034   9.343 -0.8461  0.7173  1.9258
  149SAPE  H13Y16543   4.704   1.980   9.238 -1.5259  1.5016  1.1987
  149SAPE  C31416544   4.850   1.830   9.273  0.0272  0.7414 -0.1404
  149SAPE  H14X16545   4.785   1.741   9.257 -0.1807  0.8753 -0.0459
  149SAPE  H14Y16546   4.919   1.816   9.359  2.4041 -0.3321 -2.1165
  149SAPE  C31516547   4.944   1.847   9.152 -0.0109  0.0221  0.2587
  149SAPE  H15X16548   4.978   1.746   9.122  0.0477  0.2177 -0.3588
  149SAPE  H15Y16549   5.030   1.906   9.190 -1.6455  1.1605  2.3864
  149SAPE  C31616550   4.886   1.911   9.027  0.2312  0.5946  0.2881
  149SAPE  H16X16551   4.833   2.003   9.060  0.1555  0.1298  1.5115
  149SAPE  H16Y16552   4.817   1.832   8.991 -0.7299  1.6381 -0.2242
  149SAPE  C31716553   4.996   1.939   8.930  0.7077 -0.8719  0.1350
  149SAPE  H17X16554   5.059   1.851   8.905  0.1893 -0.7279 -1.8100
  149SAPE  H17Y16555   5.063   2.010   8.984  0.9121 -1.2356  0.3656
  149SAPE  C31816556   4.955   2.013   8.802  0.0872  0.3537  0.6171
  149SAPE  H18X16557   5.040   2.015   8.731  0.7313  0.7205  1.3799
  149SAPE  H18Y16558   4.917   2.117   8.815 -2.3229  0.1596 -3.4652
  149SAPE  H18Z16559   4.879   1.957   8.744  1.2471 -0.2902 -0.3226
  150SAPE     N16560   5.263   1.030  10.900 -0.3292 -0.2524 -1.3999
  150SAPE   HN116561   5.324   1.099  10.949 -0.6288 -1.2311  0.4137
  150SAPE   HN216562   5.257   1.055  10.799 -1.6219  0.8521 -1.0782
  150SAPE   HN316563   5.165   1.044  10.933  0.0232  1.9806 -1.0884
  150SAPE   C1216564   5.326   0.891  10.917  0.4192  0.2183 -0.1302
  150SAPE  H12A16565   5.254   0.826  10.865  0.7287 -1.0004  0.9250
  150SAPE  H12B16566   5.320   0.864  11.025  2.8720  1.0857  0.3030
  150SAPE   C1116567   5.462   0.861  10.861 -0.1693 -0.0362  0.7737
  150SAPE  H11A16568   5.457   0.839  10.753  1.5539  0.3719  0.5800
  150SAPE  H11B16569   5.500   0.779  10.926  2.3249 -0.4626 -1.0722
  150SAPE     P16570   5.709   0.954  10.853  0.3105 -0.1214  0.1719
  150SAPE   O1316571   5.789   1.032  10.948 -0.2816 -0.1109  0.1990
  150SAPE   O1416572   5.745   0.810  10.848  0.0544  0.1238 -0.3590
  150SAPE   O1216573   5.550   0.969  10.884  0.0365  0.1114  0.3665
  150SAPE   O1116574   5.726   1.007  10.707 -0.3414 -0.1749  0.4988
  150SAPE    C116575   5.636   1.095  10.648  0.4486 -0.5627  0.2929
  150SAPE    HA16576   5.528   1.067  10.657 -0.0358  0.3298 -1.9590
  150SAPE    HB16577   5.649   1.189  10.706  0.6234  0.9219 -2.0217
  150SAPE    C216578   5.656   1.118  10.493 -0.0475 -0.0205  0.1986
  150SAPE    HS16579   5.569   1.173  10.451 -1.8395 -2.3224  0.6891
  150SAPE   O2116580   5.669   0.989  10.428  0.1451 -0.6817  0.0003
  150SAPE   C2116581   5.554   0.930  10.391 -0.3312 -0.3984  0.2497
  150SAPE   O2216582   5.444   0.980  10.420 -0.3049 -0.4742 -0.3792
  150SAPE   C2216583   5.577   0.817  10.303  0.1180 -0.5290  0.0027
  150SAPE   H2R16584   5.685   0.796  10.294  0.2586 -0.6331  1.6543
  150SAPE   H2S16585   5.531   0.727  10.348  0.5520  0.1848  1.9832
  150SAPE    C316586   5.791   1.192  10.476  0.3798  0.0658 -0.4139
  150SAPE    HX16587   5.876   1.122  10.465  0.8439  0.3939  0.9015
  150SAPE    HY16588   5.809   1.249  10.570  1.6360 -1.3370  0.2233
  150SAPE   O3116589   5.787   1.264  10.356  0.0413 -0.0275 -0.3782
  150SAPE   C3116590   5.740   1.385  10.359 -0.4033  1.1532  0.5089
  150SAPE   O3216591   5.712   1.454  10.454 -0.2833 -0.1368 -0.6756
  150SAPE   C3216592   5.738   1.427  10.212 -0.1667  0.1442  0.1871
  150SAPE   H2X16593   5.694   1.342  10.155 -0.0471  0.1650  0.0622
  150SAPE   H2Y16594   5.845   1.425  10.181 -0.5899 -1.9410 -1.4382
  150SAPE   C2316595   5.518   0.833  10.156  0.3592  0.2921  0.2402
  150SAPE   H3R16596   5.410   0.861  10.154 -0.6461 -2.9406  2.1264
  150SAPE   H3S16597   5.524   0.737  10.101  0.6306  1.8090 -2.6059
  150SAPE   C2416598   5.597   0.945  10.084 -0.1963 -0.3177  0.6585
  150SAPE   H4R16599   5.604   1.025  10.161  0.8495 -0.5338  0.8033
  150SAPE   H4S16600   5.538   0.983   9.998  1.2259  1.4942  0.4247
  150SAPE   C2516601   5.728   0.894  10.031  0.0066 -0.0232  0.1259
  150SAPE   H5R16602   5.793   0.868  10.115 -0.1409 -3.1453 -0.6156
  150SAPE   C2616603   5.777   0.872   9.907 -0.3900 -0.3453  0.1085
  150SAPE   H6R16604   5.875   0.823   9.902  1.2998  2.7428  0.6618
  150SAPE   C2716605   5.701   0.883   9.773 -0.4853 -0.0167 -0.6319
  150SAPE   H7R16606   5.778   0.886   9.693 -0.2908  1.1472 -0.4127
  150SAPE   H7S16607   5.659   0.985   9.758 -0.5363 -0.2069 -1.9195
  150SAPE   C2816608   5.591   0.781   9.750 -0.3631 -0.3630  0.3692
  150SAPE   H8R16609   5.629   0.678   9.746  1.4438  0.1937  2.0356
  150SAPE   C2916610   5.458   0.807   9.739 -0.4586 -0.1963 -0.4339
  150SAPE   H9R16611   5.396   0.716   9.742 -2.4991  1.0781 -1.4304
  150SAPE  C21016612   5.387   0.940   9.747 -0.1158  0.3721  0.7186
  150SAPE  H10R16613   5.463   1.020   9.753  0.3917 -0.0449  0.0634
  150SAPE  H10S16614   5.315   0.958   9.830 -1.3773  0.3615 -0.3366
  150SAPE  C21116615   5.313   0.977   9.619  0.4111  0.7382 -0.2811
  150SAPE  H11R16616   5.203   0.964   9.617  0.6207 -1.3411 -2.3850
  150SAPE  C21216617   5.370   1.029   9.503 -0.5726  0.3731  0.1466
  150SAPE  H12R16618   5.303   1.045   9.418  2.4122  2.1677 -2.0621
  150SAPE  C21316619   5.519   1.048   9.487  0.2577  0.2663 -0.2150
  150SAPE  H13R16620   5.569   0.950   9.479  1.4313  0.8296 -0.0384
  150SAPE  H13S16621   5.579   1.104   9.562  1.2247  0.3398 -1.0235
  150SAPE  C21416622   5.557   1.131   9.368  0.3935 -0.3103  0.3277
  150SAPE  H14R16623   5.621   1.219   9.384  2.2135 -1.5497  0.3055
  150SAPE  C21516624   5.543   1.094   9.239 -0.9955  0.5603 -0.5249
  150SAPE  H15R16625   5.569   1.171   9.165  1.5132 -0.2313 -0.5692
  150SAPE  C21616626   5.496   0.965   9.183  0.1469 -0.9943 -0.9373
  150SAPE  H16R16627   5.489   0.896   9.269  1.4210 -1.1640 -0.9611
  150SAPE  H16S16628   5.580   0.919   9.127  0.9112 -2.6575  1.4443
  150SAPE  C21716629   5.359   0.977   9.117 -0.3301 -0.0440  0.2619
  150SAPE  H17R16630   5.281   1.009   9.189 -0.5433  0.7340 -0.2986
  150SAPE  H17S16631   5.343   0.879   9.068 -0.5223  0.1889 -0.1434
  150SAPE  C21816632   5.349   1.081   9.002  0.3555 -0.6003 -0.8091
  150SAPE  H18R16633   5.375   1.173   9.058  0.9642 -0.0596 -1.9368
  150SAPE  H18S16634   5.245   1.089   8.965 -0.0564 -0.4788  0.3357
  150SAPE  C21916635   5.447   1.063   8.890 -0.9330 -0.0015 -0.5389
  150SAPE  H19R16636   5.430   0.967   8.838  0.1694 -1.3668  1.4807
  150SAPE  H19S16637   5.549   1.062   8.935 -1.0996  0.4754 -0.1343
  150SAPE  C22016638   5.444   1.177   8.795  0.0984  0.6516 -0.5503
  150SAPE  H20R16639   5.519   1.152   8.717  0.1133 -2.6368  0.3688
  150SAPE  H20S16640   5.478   1.272   8.841  2.6389 -0.8662  0.9027
  150SAPE  H20T16641   5.342   1.188   8.753  0.4601  1.1551 -1.3206
  150SAPE   C3316642   5.679   1.559  10.197  0.0505 -0.4345  0.1422
  150SAPE   H3X16643   5.736   1.646  10.235  0.4296 -0.8637  0.5735
  150SAPE   H3Y16644   5.582   1.563  10.251  0.2992  2.2452  0.5438
  150SAPE   C3416645   5.651   1.593  10.048  1.0061  0.0070 -0.6546
  150SAPE   H4X16646   5.746   1.583   9.991  2.1107 -1.7805  1.3302
  150SAPE   H4Y16647   5.635   1.701  10.032  1.8182 -0.0733 -2.2399
  150SAPE   C3516648   5.546   1.508   9.977 -0.4772 -0.1081  0.3919
  150SAPE   H5X16649   5.444   1.507  10.021  0.2441 -2.9627  2.2900
  150SAPE   H5Y16650   5.568   1.399   9.985  2.3962  0.2567 -1.1529
  150SAPE   C3616651   5.542   1.552   9.826  0.1231  0.0243  0.1246
  150SAPE   H6X16652   5.545   1.663   9.825 -1.5480  0.1027  0.5092
  150SAPE   H6Y16653   5.447   1.517   9.780  0.2262  0.4214 -0.4031
  150SAPE   C3716654   5.652   1.485   9.739 -0.3661  0.7104 -0.4240
  150SAPE   H7X16655   5.656   1.377   9.762 -0.4986  0.9227  0.6884
  150SAPE   H7Y16656   5.746   1.532   9.774 -0.4273  0.6981 -0.2413
  150SAPE   C3816657   5.643   1.496   9.586 -0.7764 -0.5248 -0.1505
  150SAPE   H8X16658   5.557   1.434   9.554 -0.2351 -0.5385 -1.6607
  150SAPE   H8Y16659   5.730   1.447   9.536  1.7167  1.7866  1.6001
  150SAPE   C3916660   5.607   1.632   9.520 -0.0778 -0.4360  0.5534
  150SAPE   H9X16661   5.674   1.720   9.530 -0.8915  0.1483  1.0450
  150SAPE   H9Y16662   5.514   1.679   9.559  2.2505  3.0443  2.4953
  150SAPE  C31016663   5.577   1.611   9.374  0.6840 -0.4272  0.3475
  150SAPE  H10X16664   5.514   1.695   9.338  0.2680 -0.2728  1.4280
  150SAPE  H10Y16665   5.509   1.524   9.378  0.3176 -0.1318  0.6985
  150SAPE  C31116666   5.700   1.582   9.289  0.2890  0.0388 -0.1198
  150SAPE  H11X16667   5.782   1.528   9.341  0.4368 -1.9608 -2.2791
  150SAPE  H11Y16668   5.745   1.683   9.274  0.3286  0.2611  1.3842
  150SAPE  C31216669   5.662   1.517   9.155 -0.2066 -0.1742  0.2763
  150SAPE  H12X16670   5.571   1.560   9.108 -0.0347 -0.7912 -0.6287
  150SAPE  H12Y16671   5.643   1.408   9.171 -0.5819 -0.3982 -1.5346
  150SAPE  C31316672   5.766   1.537   9.046  0.0871 -0.0976  0.0731
  150SAPE  H13X16673   5.854   1.476   9.075 -1.5428 -1.3904  2.6786
  150SAPE  H13Y16674   5.794   1.645   9.042 -0.0885  0.0702  2.4093
  150SAPE  C31416675   5.713   1.496   8.915 -0.4105 -0.3767  0.7910
  150SAPE  H14X16676   5.637   1.569   8.880 -0.5955 -1.9884 -2.6292
  150SAPE  H14Y16677   5.659   1.399   8.919  0.6890 -1.0020  0.9247
  150SAPE  C31516678   5.822   1.483   8.810 -1.1408 -0.8162  0.0276
  150SAPE  H15X16679   5.903   1.412   8.837  1.3326  0.7457 -2.6629
  150SAPE  H15Y16680   5.852   1.588   8.791 -2.4534 -0.2102  1.1052
  150SAPE  C31616681   5.767   1.428   8.672 -0.1077 -0.2469  0.4966
  150SAPE  H16X16682   5.700   1.500   8.622 -0.3023 -0.3989  0.5358
  150SAPE  H16Y16683   5.719   1.329   8.687 -2.4881  0.9266  1.1633
  150SAPE  C31716684   5.876   1.393   8.570 -0.2535  0.4989 -0.2896
  150SAPE  H17X16685   5.942   1.314   8.614 -1.8440 -1.0847 -0.6214
  150SAPE  H17Y16686   5.934   1.486   8.552 -0.9412  1.2274  1.1062
  150SAPE  C31816687   5.804   1.339   8.451  0.0746  0.1081  0.0459
  150SAPE  H18X16688   5.735   1.418   8.413  2.0394  3.3777  2.6779
  150SAPE  H18Y16689   5.767   1.235   8.464 -0.0159 -0.2994 -2.8900
  150SAPE  H18Z16690   5.873   1.327   8.366 -0.7154  0.6974 -0.6967
  151SAPE     N16691   3.638   5.115  10.490  0.3639 -0.0755 -0.0374
  151SAPE   HN116692   3.708   5.077  10.558  2.2494  1.7583 -0.8445
  151SAPE   HN216693   3.632   5.218  10.506 -0.3792 -0.1310  0.0655
  151SAPE   HN316694   3.550   5.084  10.534  0.2788  1.6844  1.1389
  151SAPE   C1216695   3.653   5.076  10.344  0.4706  0.0382 -0.1354
  151SAPE  H12A16696   3.756   5.104  10.315  0.1170  1.0374 -0.4546
  151SAPE  H12B16697   3.573   5.125  10.284  1.8640  0.9528 -1.3037
  151SAPE   C1116698   3.639   4.922  10.339 -0.4731  0.1655 -0.1736
  151SAPE  H11A16699   3.741   4.891  10.371 -0.3789  1.9107  1.3776
  151SAPE  H11B16700   3.629   4.890  10.233 -1.0657  1.7373 -0.6128
  151SAPE     P16701   3.541   4.724  10.464 -0.2680  0.2715  0.2976
  151SAPE   O1316702   3.661   4.714  10.549 -0.0094  0.5333 -0.6799
  151SAPE   O1416703   3.412   4.676  10.518 -0.3904  1.0853 -0.6860
  151SAPE   O1216704   3.527   4.874  10.417 -0.0562 -1.0842  0.2361
  151SAPE   O1116705   3.574   4.646  10.332  0.4310 -0.0879  0.1968
  151SAPE    C116706   3.473   4.571  10.267  0.2868  0.4389  0.5476
  151SAPE    HA16707   3.470   4.476  10.325 -0.9558  0.7288  0.9946
  151SAPE    HB16708   3.374   4.618  10.254  0.4081  0.1375 -1.8325
  151SAPE    C216709   3.516   4.533  10.118  0.4520  0.0215 -0.6527
  151SAPE    HS16710   3.422   4.498  10.071  0.4835 -1.2859  0.2104
  151SAPE   O2116711   3.622   4.436  10.128 -0.2825  0.4244 -0.0952
  151SAPE   C2116712   3.638   4.363  10.012 -0.0859 -0.4389 -0.2989
  151SAPE   O2216713   3.565   4.363   9.916  0.5774 -0.0105 -0.5872
  151SAPE   C2216714   3.760   4.271  10.020 -0.7786  0.0570  1.0741
  151SAPE   H2R16715   3.742   4.187  10.091 -1.1046  0.3856  1.3830
  151SAPE   H2S16716   3.767   4.222   9.921  0.9326 -0.1183  1.2425
  151SAPE    C316717   3.546   4.662  10.034 -0.2331 -0.3718  0.3958
  151SAPE    HX16718   3.633   4.706  10.088 -0.9354  0.8954  0.5198
  151SAPE    HY16719   3.470   4.743  10.033 -2.5215 -2.4023  0.1899
  151SAPE   O3116720   3.591   4.642   9.899  0.4507 -0.3131 -0.0057
  151SAPE   C3116721   3.479   4.624   9.818  0.0725 -0.0285  0.1688
  151SAPE   O3216722   3.362   4.619   9.855 -0.7363 -0.7085  0.2378
  151SAPE   C3216723   3.528   4.619   9.675  0.2920  0.1732 -0.2283
  151SAPE   H2X16724   3.524   4.517   9.632 -0.5757  0.8986 -1.9292
  151SAPE   H2Y16725   3.635   4.651   9.677  0.1803  0.5859  1.6990
  151SAPE   C2316726   3.890   4.343  10.049 -0.4163 -0.3333 -0.2780
  151SAPE   H3R16727   3.957   4.269  10.097  1.3843  0.0993 -1.9874
  151SAPE   H3S16728   3.882   4.419  10.129  2.0569 -0.1820 -0.0911
  151SAPE   C2416729   3.964   4.393   9.922  0.3982  0.5983  0.5535
  151SAPE   H4R16730   3.965   4.311   9.846 -1.1096  1.0078  0.0548
  151SAPE   H4S16731   4.069   4.408   9.953  0.3360  2.7623 -0.1608
  151SAPE   C2516732   3.915   4.527   9.877  0.1950  0.4075  0.0994
  151SAPE   H5R16733   3.903   4.605   9.954 -1.2838 -0.9111  1.2744
  151SAPE   C2616734   3.905   4.565   9.748 -0.2355 -0.4122 -0.0058
  151SAPE   H6R16735   3.861   4.662   9.722 -0.8155 -0.5879  0.3061
  151SAPE   C2716736   3.931   4.480   9.627  0.7706 -0.4749 -0.8694
  151SAPE   H7R16737   4.026   4.424   9.640  0.6165 -1.2164 -2.6255
  151SAPE   H7S16738   3.944   4.552   9.543 -0.3547 -0.1587 -0.7836
  151SAPE   C2816739   3.813   4.391   9.612  0.4760  0.5661 -0.2046
  151SAPE   H8R16740   3.774   4.336   9.698  0.2927  1.4568  0.2942
  151SAPE   C2916741   3.748   4.360   9.496 -0.0080 -0.1810 -0.4439
  151SAPE   H9R16742   3.663   4.290   9.494  1.3976 -2.1570  2.0601
  151SAPE  C21016743   3.786   4.418   9.360 -0.3129  0.4239 -0.4173
  151SAPE  H10R16744   3.882   4.373   9.325  0.0908 -0.1157  1.3123
  151SAPE  H10S16745   3.813   4.524   9.375  0.8350  0.2105 -0.9026
  151SAPE  C21116746   3.675   4.412   9.259  0.1492 -0.1924 -0.2694
  151SAPE  H11R16747   3.574   4.437   9.295  0.6114 -1.2913  1.9524
  151SAPE  C21216748   3.684   4.384   9.125 -0.1720  0.5203 -0.1655
  151SAPE  H12R16749   3.594   4.369   9.063 -0.8515  1.7008  0.5088
  151SAPE  C21316750   3.804   4.365   9.040 -0.6578  0.4709  0.4483
  151SAPE  H13R16751   3.876   4.449   9.052  1.4222 -1.1247 -0.1478
  151SAPE  H13S16752   3.775   4.371   8.933  0.2908  0.1006  0.1576
  151SAPE  C21416753   3.864   4.230   9.062  0.3621  0.4892 -0.2818
  151SAPE  H14R16754   3.832   4.171   9.149 -0.0597  0.5865 -0.3695
  151SAPE  C21516755   3.977   4.188   8.997  0.4405 -0.2497 -1.2515
  151SAPE  H15R16756   4.027   4.097   9.033  1.9331  0.5468 -1.2571
  151SAPE  C21616757   4.037   4.262   8.882 -0.6761  0.4778  0.9744
  151SAPE  H16R16758   4.144   4.282   8.905 -0.7336 -1.5408  3.4036
  151SAPE  H16S16759   3.985   4.358   8.865  0.1368  0.5706 -1.3032
  151SAPE  C21716760   4.046   4.197   8.742  0.3651 -0.0533  0.7280
  151SAPE  H17R16761   3.940   4.182   8.711  0.6651  0.1046 -0.4040
  151SAPE  H17S16762   4.100   4.100   8.746  0.2832 -0.1312  0.0979
  151SAPE  C21816763   4.123   4.284   8.635  0.0446  0.1509  0.6826
  151SAPE  H18R16764   4.147   4.236   8.538 -1.0415  1.1206 -0.0800
  151SAPE  H18S16765   4.225   4.303   8.677  0.8536  2.9661 -2.2027
  151SAPE  C21916766   4.054   4.425   8.612 -0.2145 -0.5479  0.8217
  151SAPE  H19R16767   4.032   4.484   8.704  0.8455  0.2713  0.5728
  151SAPE  H19S16768   3.952   4.394   8.580  0.1886 -2.1234  0.9745
  151SAPE  C22016769   4.134   4.525   8.522  0.6427  0.0485  0.0303
  151SAPE  H20R16770   4.151   4.487   8.420  1.2362  1.7895 -0.5563
  151SAPE  H20S16771   4.230   4.556   8.569  0.4500  0.6409  0.0441
  151SAPE  H20T16772   4.073   4.618   8.514  0.5345  0.1405  1.5903
  151SAPE   C3316773   3.433   4.698   9.574 -1.0168  0.2614  0.4642
  151SAPE   H3X16774   3.456   4.804   9.595  1.2266 -0.1278  0.2048
  151SAPE   H3Y16775   3.325   4.684   9.599 -0.6522 -0.9113  1.4978
  151SAPE   C3416776   3.462   4.659   9.433 -0.9757 -0.2380  0.1493
  151SAPE   H4X16777   3.444   4.550   9.424 -0.4096 -0.2806 -0.4889
  151SAPE   H4Y16778   3.568   4.673   9.405 -1.6579 -0.1490 -2.6464
  151SAPE   C3516779   3.387   4.745   9.326 -0.6856 -0.2025 -0.0942
  151SAPE   H5X16780   3.426   4.849   9.322  0.8390 -0.7304  0.4373
  151SAPE   H5Y16781   3.276   4.741   9.334 -0.7205 -2.2308 -1.0063
  151SAPE   C3616782   3.425   4.688   9.187  0.3314 -0.2368 -0.0744
  151SAPE   H6X16783   3.395   4.581   9.189 -2.0336  0.3697  0.5854
  151SAPE   H6Y16784   3.534   4.699   9.172  0.1927  2.5116  0.3787
  151SAPE   C3716785   3.349   4.758   9.067 -0.2403 -0.0090 -0.7956
  151SAPE   H7X16786   3.392   4.860   9.069 -0.3335  0.0987  2.7912
  151SAPE   H7Y16787   3.242   4.763   9.096 -0.2866 -0.0554 -0.9570
  151SAPE   C3816788   3.363   4.691   8.931 -1.0305 -0.5098  0.2632
  151SAPE   H8X16789   3.313   4.765   8.865  0.2999  0.7938  0.6529
  151SAPE   H8Y16790   3.302   4.598   8.928  0.2161 -1.4733  2.2528
  151SAPE   C3916791   3.507   4.666   8.884 -0.2517  0.3734 -0.1707
  151SAPE   H9X16792   3.561   4.592   8.948  1.1677 -0.5907 -2.3413
  151SAPE   H9Y16793   3.557   4.760   8.916 -2.7297  0.9390  2.4219
  151SAPE  C31016794   3.518   4.637   8.735 -0.0794  0.3968 -0.3472
  151SAPE  H10X16795   3.451   4.554   8.705 -1.1123  1.8537 -2.3035
  151SAPE  H10Y16796   3.619   4.594   8.719 -0.1026 -0.4621  1.5220
  151SAPE  C31116797   3.498   4.757   8.644  0.0800 -0.8682  0.0427
  151SAPE  H11X16798   3.542   4.843   8.699 -5.6135  1.7111  1.3618
  151SAPE  H11Y16799   3.390   4.782   8.646  0.8404  3.0314  1.5141
  151SAPE  C31216800   3.553   4.741   8.503  0.4344  0.2772 -0.5537
  151SAPE  H12X16801   3.658   4.703   8.508  0.7779  1.3326  1.1285
  151SAPE  H12Y16802   3.548   4.834   8.441 -0.0239  1.4391  1.1614
  151SAPE  C31316803   3.480   4.623   8.430  0.1988  0.5901 -0.3137
  151SAPE  H13X16804   3.376   4.656   8.409  0.7244  1.3517 -1.9018
  151SAPE  H13Y16805   3.479   4.535   8.498  1.2298  0.1095 -0.8939
  151SAPE  C31416806   3.539   4.558   8.306  0.2598  0.1571  0.4001
  151SAPE  H14X16807   3.640   4.516   8.325  0.6282  1.3995  1.3497
  151SAPE  H14Y16808   3.545   4.624   8.217 -0.9641 -0.5766 -0.2523
  151SAPE  C31516809   3.445   4.439   8.271  0.6785  0.1769  0.5510
  151SAPE  H15X16810   3.340   4.473   8.254  0.4406  0.1325  1.7857
  151SAPE  H15Y16811   3.452   4.364   8.353  0.0508  1.3852  1.7497
  151SAPE  C31616812   3.475   4.377   8.125  0.5793  0.0503 -0.1339
  151SAPE  H16X16813   3.571   4.321   8.132  0.7469  0.4507  1.2114
  151SAPE  H16Y16814   3.483   4.461   8.053 -0.0439  1.2495  1.1449
  151SAPE  C31716815   3.362   4.283   8.083 -0.4214  0.0267  0.0097
  151SAPE  H17X16816   3.263   4.329   8.104  0.1533  0.5743  1.7491
  151SAPE  H17Y16817   3.371   4.194   8.148 -1.1845 -0.0997 -0.0509
  151SAPE  C31816818   3.359   4.248   7.939 -0.3972  0.0293  1.2898
  151SAPE  H18X16819   3.274   4.176   7.934 -0.4571  0.1696  0.1705
  151SAPE  H18Y16820   3.452   4.196   7.908 -1.6403 -0.3434 -2.2313
  151SAPE  H18Z16821   3.363   4.333   7.868  4.7919 -2.3486 -1.8215
  152SAPE     N16822   5.381   5.364  10.923  0.6550  0.3410 -0.5194
  152SAPE   HN116823   5.381   5.353  11.026 -0.4105  1.5687 -0.3647
  152SAPE   HN216824   5.444   5.446  10.908  0.3753  0.8676  1.0247
  152SAPE   HN316825   5.283   5.389  10.896 -0.6157 -2.1316  1.4506
  152SAPE   C1216826   5.446   5.247  10.860 -0.2825  0.5469  0.0700
  152SAPE  H12A16827   5.547   5.235  10.905 -1.0160 -1.9937  1.2326
  152SAPE  H12B16828   5.465   5.276  10.755  2.0012 -0.7662  0.0537
  152SAPE   C1116829   5.374   5.109  10.860  0.0084  0.2294 -0.6193
  152SAPE  H11A16830   5.371   5.070  10.964  2.1507 -0.3908 -0.7377
  152SAPE  H11B16831   5.452   5.044  10.814  0.3678  0.7067 -0.6974
  152SAPE     P16832   5.206   5.022  10.684  0.3612  0.0555 -0.1695
  152SAPE   O1316833   5.234   4.889  10.732  0.6243  0.2190  0.0452
  152SAPE   O1416834   5.070   5.049  10.632 -0.0903 -0.0907  0.3527
  152SAPE   O1216835   5.251   5.119  10.791  0.6075  0.4667 -0.7926
  152SAPE   O1116836   5.309   5.037  10.570  0.9659  0.3565 -0.3157
  152SAPE    C116837   5.311   5.159  10.497  0.0730 -0.9418 -0.0456
  152SAPE    HA16838   5.243   5.242  10.526 -0.8078 -0.4921 -3.0743
  152SAPE    HB16839   5.414   5.201  10.505 -0.4695  0.0973  2.6451
  152SAPE    C216840   5.282   5.129  10.351  0.3248 -0.1758  0.4705
  152SAPE    HS16841   5.308   5.228  10.307  0.3881 -0.4010 -0.0099
  152SAPE   O2116842   5.141   5.097  10.333 -0.0030  0.5767  0.4406
  152SAPE   C2116843   5.060   5.207  10.328 -0.3009 -0.4445 -0.1157
  152SAPE   O2216844   5.101   5.322  10.318  0.0914 -0.3000 -0.3152
  152SAPE   C2216845   4.909   5.161  10.340 -0.5094 -0.6148 -0.0267
  152SAPE   H2R16846   4.901   5.094  10.428 -1.3472 -0.4027  0.0699
  152SAPE   H2S16847   4.858   5.250  10.385  0.5978 -0.0032  0.0545
  152SAPE    C316848   5.368   5.019  10.294 -0.4152 -0.5158 -0.3680
  152SAPE    HX16849   5.340   4.924  10.345  0.1882 -0.0843  0.8193
  152SAPE    HY16850   5.476   5.023  10.320 -0.4319 -1.7050 -0.0762
  152SAPE   O3116851   5.354   5.015  10.149 -0.4044 -0.0248  0.3833
  152SAPE   C3116852   5.258   4.934  10.102  0.2778 -0.0924  0.2951
  152SAPE   O3216853   5.188   4.863  10.172  0.3377 -0.4341  0.1910
  152SAPE   C3216854   5.260   4.937   9.948  0.5090 -0.3480 -0.1919
  152SAPE   H2X16855   5.338   4.866   9.914 -0.1432 -0.8477 -0.6930
  152SAPE   H2Y16856   5.291   5.036   9.906 -0.6249 -0.1250 -0.5530
  152SAPE   C2316857   4.840   5.126  10.204  0.2190  0.1109  0.0213
  152SAPE   H3R16858   4.737   5.092  10.225  0.5158 -0.3017  0.8696
  152SAPE   H3S16859   4.883   5.029  10.169 -0.4031  0.4286 -1.7014
  152SAPE   C2416860   4.836   5.250  10.110 -0.6883 -0.2367 -0.5961
  152SAPE   H4R16861   4.836   5.341  10.173 -1.1261  0.4545 -1.5668
  152SAPE   H4S16862   4.738   5.248  10.057  0.3727  0.5295 -2.7405
  152SAPE   C2516863   4.947   5.271  10.019 -0.8150 -0.2406  0.6667
  152SAPE   H5R16864   5.027   5.329  10.068 -0.7661  0.5968 -0.3603
  152SAPE   C2616865   4.960   5.236   9.888  0.4837  0.2654  0.2528
  152SAPE   H6R16866   5.054   5.257   9.836  0.8056 -1.6217  0.0059
  152SAPE   C2716867   4.857   5.162   9.812  0.0580  0.0644 -0.1387
  152SAPE   H7R16868   4.781   5.115   9.877 -1.7013  0.9330 -1.4903
  152SAPE   H7S16869   4.898   5.079   9.750 -2.3530  0.0171 -1.7984
  152SAPE   C2816870   4.774   5.247   9.725  0.4231 -0.8504  0.3492
  152SAPE   H8R16871   4.681   5.278   9.773 -1.1007  1.2083 -3.4706
  152SAPE   C2916872   4.799   5.297   9.602  0.6625 -0.0438 -0.9077
  152SAPE   H9R16873   4.723   5.356   9.550  0.4571  0.3249 -0.2041
  152SAPE  C21016874   4.923   5.267   9.517 -0.1015 -0.2371  0.0961
  152SAPE  H10R16875   4.891   5.254   9.412  0.1067  0.4865 -0.0607
  152SAPE  H10S16876   4.980   5.177   9.547  0.7436 -0.1363 -1.1683
  152SAPE  C21116877   5.016   5.385   9.531  0.3234 -0.7609 -0.1047
  152SAPE  H11R16878   5.054   5.401   9.633 -0.7717 -0.4413  0.2611
  152SAPE  C21216879   5.061   5.469   9.436  0.1354  0.0734  0.5465
  152SAPE  H12R16880   5.152   5.528   9.456  0.6972 -1.0143  1.3084
  152SAPE  C21316881   5.020   5.454   9.290  0.3319  0.1365  0.7197
  152SAPE  H13R16882   5.036   5.554   9.245  0.5981 -0.4894 -0.6059
  152SAPE  H13S16883   4.911   5.432   9.297  0.1497  1.2096  1.7736
  152SAPE  C21416884   5.098   5.344   9.222  0.5829  0.0329  0.1989
  152SAPE  H14R16885   5.113   5.252   9.280 -2.2591 -0.2614  0.6071
  152SAPE  C21516886   5.158   5.370   9.107  0.6276 -0.2305  1.4405
  152SAPE  H15R16887   5.216   5.285   9.068  3.4274  2.3312 -0.4830
  152SAPE  C21616888   5.179   5.499   9.025 -0.7599 -0.0352  0.4061
  152SAPE  H16R16889   5.257   5.563   9.070 -1.9638  1.4300  0.4868
  152SAPE  H16S16890   5.087   5.561   9.025 -0.3456  0.6005 -0.8516
  152SAPE  C21716891   5.232   5.457   8.886  0.1609  0.4482  0.7016
  152SAPE  H17R16892   5.329   5.405   8.899  0.9816  1.0163 -2.2823
  152SAPE  H17S16893   5.262   5.550   8.832  1.1597  1.3591  2.7208
  152SAPE  C21816894   5.137   5.368   8.811 -0.1121 -0.1726  0.5622
  152SAPE  H18R16895   5.038   5.417   8.828  0.9305  2.6594 -0.9220
  152SAPE  H18S16896   5.144   5.266   8.854  2.6868 -1.0403 -1.6537
  152SAPE  C21916897   5.171   5.336   8.665 -0.0638 -0.1490 -0.4676
  152SAPE  H19R16898   5.273   5.292   8.665  0.3530  0.7501  0.7853
  152SAPE  H19S16899   5.167   5.428   8.602 -2.1675 -1.1373 -1.9050
  152SAPE  C22016900   5.067   5.248   8.590  0.1587 -0.1707  0.6003
  152SAPE  H20R16901   4.971   5.303   8.597  0.8019  0.9254  1.3121
  152SAPE  H20S16902   5.066   5.141   8.619  1.3847 -0.6475 -0.9609
  152SAPE  H20T16903   5.097   5.248   8.483 -2.1929 -0.4300 -0.1153
  152SAPE   C3316904   5.120   4.912   9.895  0.4524 -0.5928 -0.5451
  152SAPE   H3X16905   5.057   4.998   9.929 -0.7700 -1.1561 -1.2970
  152SAPE   H3Y16906   5.064   4.820   9.922 -1.0614 -0.5072 -3.0032
  152SAPE   C3416907   5.118   4.907   9.744  0.5445 -0.6275  0.4142
  152SAPE   H4X16908   5.176   4.998   9.718  1.5145 -0.4025  3.0075
  152SAPE   H4Y16909   5.018   4.909   9.697  0.1604 -2.5086  1.0660
  152SAPE   C3516910   5.180   4.782   9.686  0.6699  0.3180 -0.1839
  152SAPE   H5X16911   5.124   4.699   9.735  1.0571  1.4261  2.2358
  152SAPE   H5Y16912   5.281   4.776   9.731 -0.4293  0.2869  2.4649
  152SAPE   C3616913   5.187   4.766   9.536 -1.0071  0.2339  0.5277
  152SAPE   H6X16914   5.081   4.777   9.506 -1.4499 -0.4580  1.7654
  152SAPE   H6Y16915   5.211   4.661   9.509 -1.7412 -0.1589  1.3618
  152SAPE   C3716916   5.260   4.879   9.459  0.7607 -0.1472 -0.6527
  152SAPE   H7X16917   5.361   4.897   9.501  0.6988 -0.0086 -0.5635
  152SAPE   H7Y16918   5.200   4.972   9.466 -1.6586 -1.7445  3.3551
  152SAPE   C3816919   5.294   4.859   9.313  0.0918 -0.6759 -0.1644
  152SAPE   H8X16920   5.316   4.752   9.295 -0.5379 -0.5805 -1.6703
  152SAPE   H8Y16921   5.382   4.923   9.290 -0.4911  0.9695  1.7923
  152SAPE   C3916922   5.169   4.895   9.233  0.1555 -0.3826  0.0292
  152SAPE   H9X16923   5.160   5.005   9.245  0.9851 -0.2189 -0.7255
  152SAPE   H9Y16924   5.071   4.854   9.266 -1.0035  1.0755 -1.4425
  152SAPE  C31016925   5.174   4.866   9.084 -0.3126 -0.0993  0.4593
  152SAPE  H10X16926   5.178   4.755   9.071 -1.9230 -0.3314  1.6132
  152SAPE  H10Y16927   5.270   4.902   9.042 -1.3213  1.0668 -0.9215
  152SAPE  C31116928   5.054   4.925   9.003 -0.0335  0.1365  0.0731
  152SAPE  H11X16929   5.052   5.035   9.013 -0.8162  0.3084 -1.6149
  152SAPE  H11Y16930   4.967   4.878   9.053  1.4512 -1.7049  1.0536
  152SAPE  C31216931   5.046   4.876   8.852 -0.5036 -0.5212  0.0646
  152SAPE  H12X16932   5.044   4.765   8.846 -2.5840 -0.5039 -0.1082
  152SAPE  H12Y16933   5.133   4.924   8.802 -0.2263  0.4002  1.4036
  152SAPE  C31316934   4.922   4.926   8.783  0.2685 -0.1189 -0.5805
  152SAPE  H13X16935   4.916   5.036   8.773 -0.6646 -0.0261  0.7238
  152SAPE  H13Y16936   4.837   4.881   8.837 -0.2064  1.0564 -0.3275
  152SAPE  C31416937   4.902   4.862   8.648  0.5467  0.3763  0.0302
  152SAPE  H14X16938   4.917   4.752   8.640  2.3851  0.5392  0.8529
  152SAPE  H14Y16939   4.989   4.905   8.594 -2.2874  4.0163 -2.0852
  152SAPE  C31516940   4.777   4.912   8.569 -0.0834 -1.2223 -0.2629
  152SAPE  H15X16941   4.795   4.889   8.462  0.1788  0.0817 -0.5085
  152SAPE  H15Y16942   4.787   5.022   8.579 -0.3533 -1.3466  1.7684
  152SAPE  C31616943   4.640   4.868   8.625 -0.3599 -0.6750  0.2374
  152SAPE  H16X16944   4.642   4.881   8.736  1.0967  1.1763  0.0339
  152SAPE  H16Y16945   4.637   4.758   8.606  3.0966 -1.0936  1.4497
  152SAPE  C31716946   4.520   4.947   8.574 -1.0018 -0.8876  0.6946
  152SAPE  H17X16947   4.512   4.976   8.467 -1.5391  2.0967  1.4546
  152SAPE  H17Y16948   4.527   5.050   8.615  2.3544 -0.7461  0.0176
  152SAPE  C31816949   4.397   4.876   8.605  0.2958  0.5618 -0.4431
  152SAPE  H18X16950   4.306   4.936   8.583 -1.1583 -1.2931  0.2637
  152SAPE  H18Y16951   4.387   4.852   8.713  0.1846  0.5787 -0.4486
  152SAPE  H18Z16952   4.380   4.777   8.559 -3.6787  0.6815  0.3936
  153SAPE     N16953   6.084   6.250  10.682  0.0692  0.2172 -1.0243
  153SAPE   HN116954   6.156   6.229  10.754 -0.9688  0.8555  0.2397
  153SAPE   HN216955   6.017   6.171  10.675  1.3305 -1.0112  0.2588
  153SAPE   HN316956   6.123   6.261  10.587 -1.0840 -0.1471 -1.5597
  153SAPE   C1216957   6.004   6.367  10.721  0.4820 -0.2630  0.5578
  153SAPE  H12A16958   5.948   6.405  10.633  0.1639  1.2224  1.3748
  153SAPE  H12B16959   6.074   6.450  10.744  0.4878  0.0381 -0.4784
  153SAPE   C1116960   5.914   6.337  10.843 -0.2373  0.3275  0.0222
  153SAPE  H11A16961   5.855   6.427  10.872  1.8164  1.6810  0.1705
  153SAPE  H11B16962   5.976   6.305  10.929 -0.2806 -1.1850 -0.4632
  153SAPE     P16963   5.678   6.256  10.758  0.6109  0.3365 -0.4940
  153SAPE   O1316964   5.605   6.129  10.751 -0.0436  0.2562 -0.2998
  153SAPE   O1416965   5.614   6.354  10.846  0.1338 -0.1626  0.3347
  153SAPE   O1216966   5.829   6.228  10.813 -0.3958  0.2617  0.3004
  153SAPE   O1116967   5.705   6.313  10.608  0.0058  0.3022  0.2593
  153SAPE    C116968   5.587   6.371  10.543  0.0108  0.1711  0.0590
  153SAPE    HA16969   5.526   6.282  10.520  1.1910 -1.0023  1.2321
  153SAPE    HB16970   5.531   6.439  10.610  1.2225 -0.4561  1.8121
  153SAPE    C216971   5.623   6.461  10.417  0.0260  0.1783 -0.5633
  153SAPE    HS16972   5.529   6.520  10.405 -0.6255  0.3453  3.7869
  153SAPE   O2116973   5.654   6.379  10.304 -0.4596  0.2043  0.2068
  153SAPE   C2116974   5.550   6.312  10.252 -0.5463  0.3168 -0.1324
  153SAPE   O2216975   5.436   6.331  10.284  0.1932 -0.4332 -0.4568
  153SAPE   C2216976   5.608   6.221  10.136  1.2057 -0.0007  0.3200
  153SAPE   H2R16977   5.709   6.248  10.100  1.0727  0.0970  0.0212
  153SAPE   H2S16978   5.613   6.118  10.177  0.8460 -1.0274 -2.1089
  153SAPE    C316979   5.736   6.568  10.448  0.6954  0.0522 -0.8468
  153SAPE    HX16980   5.818   6.519  10.505  1.9417  1.4546 -1.3487
  153SAPE    HY16981   5.695   6.644  10.518  1.7163 -0.7587  0.6761
  153SAPE   O3116982   5.795   6.618  10.328 -0.1957 -0.3026 -0.1196
  153SAPE   C3116983   5.717   6.711  10.276 -0.3479  0.0009 -0.3870
  153SAPE   O3216984   5.614   6.748  10.334  0.2149 -0.2753  0.1257
  153SAPE   C3216985   5.782   6.758  10.147 -0.5384 -0.7261  0.3137
  153SAPE   H2X16986   5.733   6.853  10.118  0.8695 -0.0651  0.0454
  153SAPE   H2Y16987   5.754   6.679  10.074  0.3762 -0.2568 -0.5787
  153SAPE   C2316988   5.519   6.238  10.008  0.4239  0.1449  0.7290
  153SAPE   H3R16989   5.414   6.208  10.028  0.1806  0.3187 -0.2309
  153SAPE   H3S16990   5.549   6.156   9.939  0.2181  0.8480 -0.2138
  153SAPE   C2416991   5.533   6.377   9.937  0.7355  0.2305  0.0352
  153SAPE   H4R16992   5.492   6.437  10.021  0.6645 -0.0391  0.1925
  153SAPE   H4S16993   5.470   6.378   9.845 -0.3059  1.7611  0.7212
  153SAPE   C2516994   5.669   6.430   9.906 -0.0503 -0.7487  0.3951
  153SAPE   H5R16995   5.708   6.473   9.999  0.7581  2.0135 -1.1128
  153SAPE   C2616996   5.734   6.438   9.785  0.0871 -0.9247  0.4490
  153SAPE   H6R16997   5.830   6.492   9.782 -1.2964  1.8081 -3.1900
  153SAPE   C2716998   5.678   6.394   9.651  0.4631 -0.9164 -0.0692
  153SAPE   H7R16999   5.570   6.420   9.656  0.8968  1.3830 -1.1628
  153SAPE   H7S17000   5.692   6.286   9.630  0.9566 -0.6290 -1.3299
  153SAPE   C2817001   5.737   6.461   9.529 -0.2663  0.3754  0.0334
  153SAPE   H8R17002   5.827   6.522   9.547  0.0188 -0.3389  1.1375
  153SAPE   C2917003   5.695   6.448   9.401  0.9931 -0.2226  1.1218
  153SAPE   H9R17004   5.744   6.506   9.321 -0.2092  1.6418  1.6746
  153SAPE  C21017005   5.576   6.361   9.357  0.3767 -0.1329  0.7461
  153SAPE  H10R17006   5.495   6.422   9.310  0.9780 -0.0344 -0.1858
  153SAPE  H10S17007   5.542   6.304   9.446  0.6571  1.0477  1.6244
  153SAPE  C21117008   5.636   6.271   9.251 -0.1376 -0.0600  0.0626
  153SAPE  H11R17009   5.698   6.310   9.170 -0.2365 -0.5276 -0.2402
  153SAPE  C21217010   5.619   6.135   9.253 -1.0023 -0.0285  0.2495
  153SAPE  H12R17011   5.664   6.081   9.168  0.8697  2.3242 -0.3828
  153SAPE  C21317012   5.557   6.046   9.356  0.8862  0.8214 -0.0300
  153SAPE  H13R17013   5.580   6.078   9.460 -1.4031  1.8414  0.2174
  153SAPE  H13S17014   5.598   5.943   9.348 -2.1029 -0.5059  0.4525
  153SAPE  C21417015   5.404   6.047   9.353  0.1204  0.0008 -0.0192
  153SAPE  H14R17016   5.366   6.051   9.250 -1.7899  0.4606  0.6625
  153SAPE  C21517017   5.316   6.042   9.454 -0.4529  0.4324 -0.0985
  153SAPE  H15R17018   5.208   6.056   9.439 -1.0827 -1.9273  1.6592
  153SAPE  C21617019   5.353   6.030   9.599  0.1773 -0.7792 -0.1369
  153SAPE  H16R17020   5.273   6.074   9.662  0.8782  1.3127 -0.6194
  153SAPE  H16S17021   5.447   6.085   9.623  0.4768 -0.2020 -2.4058
  153SAPE  C21717022   5.364   5.879   9.637 -0.2564 -0.2450 -0.2170
  153SAPE  H17R17023   5.439   5.830   9.571 -1.1089 -2.2191  0.1999
  153SAPE  H17S17024   5.269   5.829   9.608  0.3347 -0.5054 -1.7892
  153SAPE  C21817025   5.399   5.853   9.788  0.0955  0.0619 -0.5097
  153SAPE  H18R17026   5.492   5.913   9.805 -1.3221  2.3724 -0.4042
  153SAPE  H18S17027   5.428   5.748   9.805  0.5891  0.4879  1.5126
  153SAPE  C21917028   5.296   5.894   9.886  0.0479  0.7874  0.2767
  153SAPE  H19R17029   5.215   5.817   9.882  0.6841  0.1424 -2.3488
  153SAPE  H19S17030   5.251   5.994   9.871 -1.6861 -0.2208 -1.8885
  153SAPE  C22017031   5.347   5.903  10.029 -0.5696 -0.1806  0.2456
  153SAPE  H20R17032   5.268   5.930  10.103  0.6881  0.9195  1.2367
  153SAPE  H20S17033   5.435   5.968  10.048 -0.4197 -0.2770 -0.1245
  153SAPE  H20T17034   5.371   5.797  10.052  0.5149 -0.0525 -0.2492
  153SAPE   C3317035   5.931   6.777  10.140 -0.1055 -0.1721 -0.7854
  153SAPE   H3X17036   5.993   6.685  10.150  1.5192  0.9709  0.0448
  153SAPE   H3Y17037   5.968   6.840  10.223  1.0047 -2.9003  0.9572
  153SAPE   C3417038   5.976   6.856  10.011  0.1404 -0.3360  0.5104
  153SAPE   H4X17039   6.081   6.887  10.025 -0.2510  1.5483 -0.2908
  153SAPE   H4Y17040   5.927   6.955  10.027  2.0209  0.6539  0.3538
  153SAPE   C3517041   5.954   6.792   9.878 -0.1322 -0.5576  0.0431
  153SAPE   H5X17042   5.852   6.826   9.850 -0.1047  1.3777  2.0976
  153SAPE   H5Y17043   5.957   6.681   9.888 -0.3280 -0.6508 -0.8277
  153SAPE   C3617044   6.058   6.842   9.772 -0.2016  0.5979  0.5756
  153SAPE   H6X17045   6.164   6.808   9.781  0.3679  1.4305 -2.0448
  153SAPE   H6Y17046   6.068   6.953   9.780  3.0334  0.3350  1.7173
  153SAPE   C3717047   6.001   6.817   9.636  0.4372  0.2959  0.3435
  153SAPE   H7X17048   5.904   6.869   9.629  0.7490  0.7215 -1.5449
  153SAPE   H7Y17049   5.991   6.708   9.612  3.5012  0.3941 -2.1967
  153SAPE   C3817050   6.087   6.871   9.515 -0.3226  0.2560  0.0501
  153SAPE   H8X17051   6.172   6.806   9.485 -1.2954 -0.1279 -2.1297
  153SAPE   H8Y17052   6.119   6.968   9.560 -0.5849  1.2947 -1.8751
  153SAPE   C3917053   6.006   6.918   9.392  0.2625  0.4838  0.4864
  153SAPE   H9X17054   6.061   6.992   9.330  1.2059 -0.0291  0.6928
  153SAPE   H9Y17055   5.911   6.960   9.430  0.6262  0.3928  1.5365
  153SAPE  C31017056   5.999   6.801   9.300  0.1125  0.5930  0.7623
  153SAPE  H10X17057   5.939   6.721   9.348 -1.1663  1.1415  0.1261
  153SAPE  H10Y17058   6.102   6.763   9.284 -0.4581 -0.4531 -0.6041
  153SAPE  C31117059   5.933   6.832   9.168  0.5198 -0.1931 -0.5143
  153SAPE  H11X17060   6.001   6.898   9.111  0.0018  1.1742  0.4141
  153SAPE  H11Y17061   5.837   6.887   9.179  0.8264  0.0834  1.0955
  153SAPE  C31217062   5.917   6.696   9.093  0.9709 -0.2459  0.0606
  153SAPE  H12X17063   5.853   6.625   9.150  0.4739 -0.1212 -0.3333
  153SAPE  H12Y17064   6.015   6.648   9.072  0.7832 -0.4258 -0.4138
  153SAPE  C31317065   5.846   6.725   8.959  0.1260  0.6274 -0.0369
  153SAPE  H13X17066   5.905   6.799   8.901 -0.7173  1.2070 -0.1723
  153SAPE  H13Y17067   5.742   6.763   8.969  0.3009  0.8539  1.0256
  153SAPE  C31417068   5.828   6.594   8.877 -0.2499 -0.1633  0.1383
  153SAPE  H14X17069   5.767   6.523   8.938  0.6492 -0.1338  1.1115
  153SAPE  H14Y17070   5.921   6.539   8.849 -0.9473 -1.4015  0.1495
  153SAPE  C31517071   5.731   6.620   8.762 -1.0026 -0.6745 -0.1728
  153SAPE  H15X17072   5.777   6.683   8.684 -1.1421 -0.3291  0.0240
  153SAPE  H15Y17073   5.633   6.669   8.781 -1.5407 -1.8819  0.2756
  153SAPE  C31617074   5.701   6.491   8.689 -0.1730 -0.0114  0.1827
  153SAPE  H16X17075   5.630   6.422   8.739 -0.5459 -1.6103 -2.3777
  153SAPE  H16Y17076   5.797   6.437   8.673  0.4739  1.0603  0.3802
  153SAPE  C31717077   5.638   6.509   8.556  0.3705 -0.0175  0.0167
  153SAPE  H17X17078   5.704   6.572   8.493 -0.1254 -0.0617 -0.5533
  153SAPE  H17Y17079   5.549   6.573   8.576  1.0230  0.1945  2.6965
  153SAPE  C31817080   5.602   6.378   8.485 -0.5792 -0.2543 -0.4534
  153SAPE  H18X17081   5.519   6.339   8.549  0.5749 -2.3986 -0.1523
  153SAPE  H18Y17082   5.686   6.305   8.485  1.5222  2.0401  0.7610
  153SAPE  H18Z17083   5.569   6.393   8.380  2.1628 -0.2598 -1.3846
  154SAPE     N17084   6.403   0.155  10.590  0.4274 -0.0179 -0.3655
  154SAPE   HN117085   6.413   0.100  10.502 -2.4152 -1.7278  0.2680
  154SAPE   HN217086   6.312   0.138  10.638  0.2285 -1.0715 -1.0819
  154SAPE   HN317087   6.393   0.255  10.560  0.8875 -0.3743 -1.7592
  154SAPE   C1217088   6.504   0.133  10.702  0.2722 -0.1334  0.4684
  154SAPE  H12A17089   6.460   0.185  10.790  0.5788 -1.7772  1.6562
  154SAPE  H12B17090   6.609   0.163  10.678 -0.0297  0.9311  0.4184
  154SAPE   C1117091   6.501  -0.015  10.744 -0.6143 -0.3342 -0.5587
  154SAPE  H11A17092   6.586  -0.018  10.817  0.3283  0.8422 -1.5601
  154SAPE  H11B17093   6.512  -0.086  10.660 -1.9961  0.4561 -1.4377
  154SAPE     P17094   6.315  -0.181  10.848  0.0453 -0.1957 -0.1009
  154SAPE   O1317095   6.404  -0.263  10.931  0.3787  0.6581 -0.0202
  154SAPE   O1417096   6.179  -0.149  10.896 -0.1122 -0.5779 -0.0634
  154SAPE   O1217097   6.394  -0.043  10.826  0.3318 -0.1836  0.6624
  154SAPE   O1117098   6.296  -0.247  10.702 -0.7795 -0.2480  0.0077
  154SAPE    C117099   6.234  -0.171  10.590 -0.6573 -0.2241 -0.1995
  154SAPE    HA17100   6.126  -0.156  10.611 -0.2382  1.3057  1.0691
  154SAPE    HB17101   6.277  -0.070  10.581  2.0365 -1.3622 -1.0889
  154SAPE    C217102   6.229  -0.239  10.452 -0.2714  0.5555 -0.3521
  154SAPE    HS17103   6.150  -0.315  10.463 -0.4524  0.8915  0.8047
  154SAPE   O2117104   6.358  -0.290  10.429 -0.0873  0.2847 -0.2903
  154SAPE   C2117105   6.370  -0.432  10.432 -0.1862  0.2064  0.5250
  154SAPE   O2217106   6.285  -0.503  10.479  0.5124  0.1425 -0.2387
  154SAPE   C2217107   6.503  -0.473  10.386 -0.6001 -0.3012 -0.6385
  154SAPE   H2R17108   6.527  -0.408  10.299  0.9958  3.5127  2.2994
  154SAPE   H2S17109   6.569  -0.442  10.470 -1.8865 -2.3133  1.2018
  154SAPE    C317110   6.174  -0.147  10.343  0.3746 -0.2282  0.0680
  154SAPE    HX17111   6.233  -0.053  10.339 -0.8739  0.5616 -0.2733
  154SAPE    HY17112   6.070  -0.115  10.364  0.3665  0.6774 -1.2256
  154SAPE   O3117113   6.176  -0.209  10.212  0.2143 -0.1723  0.1933
  154SAPE   C3117114   6.295  -0.202  10.153 -0.0104  0.1813 -0.4722
  154SAPE   O3217115   6.383  -0.117  10.171  0.9524  0.4162  0.2597
  154SAPE   C3217116   6.305  -0.306  10.037 -0.0868  0.1628 -0.0727
  154SAPE   H2X17117   6.243  -0.391  10.070  0.2220 -0.1915 -0.3979
  154SAPE   H2Y17118   6.411  -0.340  10.037 -0.2789 -0.4347 -0.1673
  154SAPE   C2317119   6.532  -0.627  10.352  0.4784 -0.8017  0.3306
  154SAPE   H3R17120   6.472  -0.671  10.270 -0.1424  0.4991  0.0637
  154SAPE   H3S17121   6.502  -0.689  10.439 -0.0199 -1.0524 -0.0165
  154SAPE   C2417122   6.678  -0.667  10.311  0.2819  0.1502  0.8049
  154SAPE   H4R17123   6.700  -0.770  10.275  2.0030  1.2421 -1.5882
  154SAPE   H4S17124   6.744  -0.656  10.400  0.9908 -0.3225  0.3447
  154SAPE   C2517125   6.728  -0.581  10.197 -0.6119  0.4048 -0.2800
  154SAPE   H5R17126   6.790  -0.493  10.219 -0.0126  0.3325 -1.5896
  154SAPE   C2617127   6.707  -0.602  10.067  0.3034  0.3415  0.2643
  154SAPE   H6R17128   6.760  -0.545   9.990  1.3404 -2.2596 -1.0602
  154SAPE   C2717129   6.636  -0.720   9.997  0.0199 -0.4193 -0.1300
  154SAPE   H7R17130   6.644  -0.816  10.053 -1.5121 -0.2614  0.4086
  154SAPE   H7S17131   6.684  -0.739   9.898 -0.7935  1.5139 -0.9363
  154SAPE   C2817132   6.487  -0.679   9.977 -0.3327  0.2772  1.0635
  154SAPE   H8R17133   6.423  -0.676  10.067 -1.2347 -0.4953  0.4654
  154SAPE   C2917134   6.427  -0.657   9.857  0.8703  0.2394 -0.5138
  154SAPE   H9R17135   6.326  -0.615   9.864  1.2160  0.8490  3.8748
  154SAPE  C21017136   6.501  -0.674   9.720  0.4904 -0.0665  0.3158
  154SAPE  H10R17137   6.577  -0.754   9.709  1.6107  0.8486  1.2075
  154SAPE  H10S17138   6.565  -0.583   9.721  1.2797 -0.6014 -0.1054
  154SAPE  C21117139   6.416  -0.670   9.594  0.0888 -0.2291  0.9248
  154SAPE  H11R17140   6.310  -0.644   9.609 -0.1835 -1.0435  0.4911
  154SAPE  C21217141   6.465  -0.686   9.466  0.4095  0.0158 -0.9749
  154SAPE  H12R17142   6.396  -0.660   9.384  0.1580  2.0663 -0.1913
  154SAPE  C21317143   6.611  -0.713   9.424  0.3825  0.6537  0.5329
  154SAPE  H13R17144   6.617  -0.756   9.322  1.7650  0.5995  0.6178
  154SAPE  H13S17145   6.637  -0.803   9.484 -1.1758 -0.3437 -0.2359
  154SAPE  C21417146   6.706  -0.597   9.445  0.0991 -0.3785 -0.0731
  154SAPE  H14R17147   6.699  -0.544   9.541 -1.9634 -1.0463  0.1931
  154SAPE  C21517148   6.792  -0.541   9.363  0.1827 -0.0332  0.2894
  154SAPE  H15R17149   6.854  -0.460   9.405  0.3160  1.0825 -1.9011
  154SAPE  C21617150   6.834  -0.586   9.227  0.8065 -0.5728  0.3693
  154SAPE  H16R17151   6.795  -0.686   9.197 -1.1392 -0.2378  1.6326
  154SAPE  H16S17152   6.942  -0.612   9.238  0.4877 -2.4728 -0.6034
  154SAPE  C21717153   6.832  -0.485   9.118 -0.6551  0.0651 -0.1214
  154SAPE  H17R17154   6.888  -0.403   9.167  0.3443 -0.9342  0.4788
  154SAPE  H17S17155   6.728  -0.454   9.097 -2.1523 -3.8428  0.6708
  154SAPE  C21817156   6.885  -0.530   8.983 -0.0489  0.5963 -0.5082
  154SAPE  H18R17157   6.965  -0.608   8.982 -0.4769  0.1548 -1.8412
  154SAPE  H18S17158   6.930  -0.442   8.934 -2.0447  2.5475  0.9996
  154SAPE  C21917159   6.770  -0.575   8.890 -0.1158  0.6712  0.0454
  154SAPE  H19R17160   6.683  -0.506   8.887 -0.4895  0.5267  3.3977
  154SAPE  H19S17161   6.716  -0.654   8.946  0.3363  0.0187 -0.4192
  154SAPE  C22017162   6.817  -0.621   8.749 -0.1911  0.3258  0.3149
  154SAPE  H20R17163   6.853  -0.530   8.698 -1.7267  0.2545 -0.9578
  154SAPE  H20S17164   6.729  -0.655   8.690 -1.8064  2.9230  1.0667
  154SAPE  H20T17165   6.895  -0.700   8.749  0.4164  0.8961 -1.2983
  154SAPE   C3317166   6.234  -0.251   9.910  0.5654  0.6971  0.5411
  154SAPE   H3X17167   6.258  -0.143   9.896 -0.1656  0.7092 -0.7191
  154SAPE   H3Y17168   6.125  -0.261   9.928  0.6874 -2.2099  0.1458
  154SAPE   C3417169   6.274  -0.323   9.781 -0.4700 -0.0566 -0.5683
  154SAPE   H4X17170   6.260  -0.432   9.791  2.2502 -0.3667  0.8816
  154SAPE   H4Y17171   6.385  -0.322   9.772 -0.4860 -1.3218 -1.1196
  154SAPE   C3517172   6.208  -0.259   9.663  0.3999  0.5759 -0.9466
  154SAPE   H5X17173   6.231  -0.150   9.672  3.4742 -0.1118  0.6336
  154SAPE   H5Y17174   6.098  -0.278   9.660  0.7054 -1.2630 -1.6517
  154SAPE   C3617175   6.268  -0.300   9.528  0.1407 -0.2415 -0.0396
  154SAPE   H6X17176   6.204  -0.261   9.446  1.3735  3.0411  0.4104
  154SAPE   H6Y17177   6.272  -0.410   9.515 -0.9431 -0.1702 -1.2399
  154SAPE   C3717178   6.406  -0.244   9.501  0.0874  0.7367  0.0641
  154SAPE   H7X17179   6.476  -0.273   9.583 -0.4087  0.4423  0.3920
  154SAPE   H7Y17180   6.417  -0.134   9.490 -0.2891  0.8298  0.5824
  154SAPE   C3817181   6.467  -0.299   9.369 -0.3345 -0.3897  0.4774
  154SAPE   H8X17182   6.460  -0.410   9.367  2.0226 -0.6178  1.6851
  154SAPE   H8Y17183   6.576  -0.279   9.357 -1.0124  3.1010 -1.4169
  154SAPE   C3917184   6.409  -0.233   9.241  0.3636  0.0051  0.1416
  154SAPE   H9X17185   6.396  -0.127   9.270  0.6379 -0.3620  1.6821
  154SAPE   H9Y17186   6.311  -0.281   9.223  1.0755 -1.0659 -1.1327
  154SAPE  C31017187   6.498  -0.263   9.124  0.4029 -0.0485 -0.0035
  154SAPE  H10X17188   6.530  -0.369   9.133  1.8353  0.3104 -0.6222
  154SAPE  H10Y17189   6.588  -0.198   9.122 -1.1952  2.3526  1.2922
  154SAPE  C31117190   6.421  -0.246   8.990 -0.1936  0.9010  0.8758
  154SAPE  H11X17191   6.359  -0.334   8.965  1.5815  0.1941 -1.4570
  154SAPE  H11Y17192   6.498  -0.251   8.910 -0.9418  4.3251 -0.2312
  154SAPE  C31217193   6.346  -0.110   8.964 -0.3898 -0.1722  0.1796
  154SAPE  H12X17194   6.418  -0.025   8.964 -0.6946  0.1201 -1.6277
  154SAPE  H12Y17195   6.261  -0.092   9.034 -0.6698 -1.4955  0.2015
  154SAPE  C31317196   6.283  -0.106   8.823 -0.2082  0.8798 -0.0465
  154SAPE  H13X17197   6.208  -0.188   8.816 -0.4260  1.0288  0.5127
  154SAPE  H13Y17198   6.362  -0.133   8.749 -2.7364  1.9836 -3.3937
  154SAPE  C31417199   6.215   0.014   8.770 -0.7526 -0.0600 -0.6774
  154SAPE  H14X17200   6.277   0.102   8.798  0.6885 -1.4312  0.6668
  154SAPE  H14Y17201   6.121   0.030   8.827 -0.2515 -1.7839  0.7312
  154SAPE  C31517202   6.191   0.019   8.614  0.0627 -0.7309 -0.8178
  154SAPE  H15X17203   6.116  -0.061   8.593 -1.1693 -0.3324  1.6898
  154SAPE  H15Y17204   6.280  -0.002   8.551  1.3626  0.5442  0.5007
  154SAPE  C31617205   6.130   0.154   8.572  0.4264 -0.0824 -0.0109
  154SAPE  H16X17206   6.136   0.164   8.461 -0.7568 -0.1064 -0.0867
  154SAPE  H16Y17207   6.187   0.239   8.615  2.0322 -0.6172 -0.9930
  154SAPE  C31717208   5.982   0.167   8.605  0.8706  0.5582 -0.0505
  154SAPE  H17X17209   5.961   0.271   8.638  1.1572  0.2473  1.1771
  154SAPE  H17Y17210   5.961   0.089   8.681 -0.3534 -2.3015 -3.1140
  154SAPE  C31817211   5.894   0.124   8.491  0.4633  0.9061  0.0627
  154SAPE  H18X17212   5.909   0.197   8.408  0.2112 -0.3477 -1.1081
  154SAPE  H18Y17213   5.786   0.119   8.518  0.5462 -0.4716  0.1700
  154SAPE  H18Z17214   5.938   0.027   8.462  0.8517  1.4707 -1.3272
  155SAPE     N17215   0.114   1.190  10.761  0.0865  0.9289 -0.0698
  155SAPE   HN117216   0.165   1.214  10.674 -3.6044  0.4210 -2.6012
  155SAPE   HN217217   0.068   1.276  10.796 -0.8888  0.8478 -1.0867
  155SAPE   HN317218   0.180   1.154  10.833 -2.0091  1.5221  2.2669
  155SAPE   C1217219  -0.003   1.102  10.718  0.0566  0.3865 -0.3941
  155SAPE  H12A17220   0.044   1.006  10.686  1.3978  0.1496  2.0383
  155SAPE  H12B17221  -0.055   1.148  10.632 -3.3408 -2.5667 -0.1392
  155SAPE   C1117222  -0.099   1.067  10.838 -0.5204  0.4397  0.0120
  155SAPE  H11A17223  -0.041   1.020  10.920  0.1894 -0.8382 -1.1825
  155SAPE  H11B17224  -0.160   0.988  10.790 -2.3092  0.7139  1.7397
  155SAPE     P17225  -0.309   1.232  10.839 -0.2003  0.1256 -0.2174
  155SAPE   O1317226  -0.409   1.126  10.884 -0.6341  0.0751  0.1164
  155SAPE   O1417227  -0.328   1.369  10.897 -0.6169 -0.1939 -0.0457
  155SAPE   O1217228  -0.167   1.183  10.884 -0.3979 -0.2446  0.7397
  155SAPE   O1117229  -0.310   1.239  10.679 -0.7005  0.0121 -0.1991
  155SAPE    C117230  -0.367   1.358  10.629  0.4431 -0.2157  0.1810
  155SAPE    HA17231  -0.476   1.362  10.649  0.4798  4.7375  0.7649
  155SAPE    HB17232  -0.329   1.450  10.679  0.1959 -0.9882  1.8344
  155SAPE    C217233  -0.348   1.372  10.475  0.4166  0.2512 -0.4431
  155SAPE    HS17234  -0.403   1.459  10.433 -3.4318 -1.0428  1.4346
  155SAPE   O2117235  -0.411   1.256  10.398 -0.3829 -0.6489 -0.3226
  155SAPE   C2117236  -0.538   1.248  10.405 -0.0081 -0.3142  0.0984
  155SAPE   O2217237  -0.617   1.335  10.439  0.5586 -0.2726 -0.0506
  155SAPE   C2217238  -0.576   1.112  10.347 -0.3337 -0.1668  0.8707
  155SAPE   H2R17239  -0.547   1.033  10.420  0.4219  0.7147  1.5385
  155SAPE   H2S17240  -0.687   1.114  10.340 -0.3473  0.1019  1.1592
  155SAPE    C317241  -0.200   1.383  10.443  0.5301 -0.2349  0.7167
  155SAPE    HX17242  -0.144   1.304  10.498  3.3572  0.3882 -1.0462
  155SAPE    HY17243  -0.176   1.481  10.490  1.9198 -0.6816  0.9977
  155SAPE   O3117244  -0.168   1.396  10.303 -0.2494 -0.0465  0.5372
  155SAPE   C3117245  -0.123   1.283  10.247 -0.2991  0.1435 -0.0433
  155SAPE   O3217246  -0.101   1.180  10.306 -0.5278  0.4747  0.4823
  155SAPE   C3217247  -0.077   1.315  10.106 -0.2498 -0.3931  1.0250
  155SAPE   H2X17248   0.034   1.312  10.099 -0.2076 -1.1876  1.8462
  155SAPE   H2Y17249  -0.092   1.424  10.091  1.2812 -0.4159 -1.1373
  155SAPE   C2317250  -0.510   1.086  10.200 -0.2405 -0.2544  0.0589
  155SAPE   H3R17251  -0.416   1.029  10.213  0.5796  1.5745  3.0761
  155SAPE   H3S17252  -0.502   1.188  10.156 -0.7906  0.1434  0.8510
  155SAPE   C2417253  -0.607   1.007  10.104  0.2352 -0.4029 -0.5641
  155SAPE   H4R17254  -0.707   1.056  10.106 -0.1047 -1.0229  1.9436
  155SAPE   H4S17255  -0.624   0.912  10.160  0.2690  1.1052  2.1576
  155SAPE   C2517256  -0.546   0.998   9.970 -0.0457 -0.1226  0.2549
  155SAPE   H5R17257  -0.458   0.934   9.953  0.8897  1.2561 -0.2858
  155SAPE   C2617258  -0.569   1.081   9.866  0.0829 -0.6317  0.3923
  155SAPE   H6R17259  -0.530   1.068   9.764 -0.2010  1.0816  0.0250
  155SAPE   C2717260  -0.670   1.191   9.864  0.8462  0.1350 -0.3275
  155SAPE   H7R17261  -0.638   1.263   9.786 -1.5195 -3.1572 -4.7484
  155SAPE   H7S17262  -0.659   1.250   9.958 -3.0194 -1.0143  1.0172
  155SAPE   C2817263  -0.819   1.159   9.843  0.9244 -0.5929 -0.6993
  155SAPE   H8R17264  -0.873   1.137   9.937 -1.0464  0.4475 -1.5205
  155SAPE   C2917265  -0.900   1.173   9.737  0.5411 -0.5522 -0.2711
  155SAPE   H9R17266  -1.009   1.158   9.742  0.5453 -0.6732 -0.5282
  155SAPE  C21017267  -0.854   1.229   9.601 -0.1593 -0.1305  0.1984
  155SAPE  H10R17268  -0.815   1.333   9.610  2.5081 -0.7880 -2.1609
  155SAPE  H10S17269  -0.936   1.221   9.527 -0.0670  0.9768 -0.0473
  155SAPE  C21117270  -0.746   1.164   9.522  0.3378 -1.0995 -0.3211
  155SAPE  H11R17271  -0.655   1.140   9.580  1.0304  0.9042 -0.4818
  155SAPE  C21217272  -0.742   1.144   9.392 -0.7536  0.2525  0.5636
  155SAPE  H12R17273  -0.655   1.096   9.346 -2.0893 -0.1988 -1.6385
  155SAPE  C21317274  -0.857   1.173   9.300  0.6003 -0.6859  0.0484
  155SAPE  H13R17275  -0.929   1.248   9.339 -0.3287 -0.9986 -1.0003
  155SAPE  H13S17276  -0.914   1.078   9.294  1.0127 -1.1595  2.5321
  155SAPE  C21417277  -0.817   1.214   9.158 -0.2637  0.0371 -0.0070
  155SAPE  H14R17278  -0.735   1.288   9.157  0.2295 -0.5128 -0.1517
  155SAPE  C21517279  -0.855   1.171   9.042  0.5014  0.5410  0.7759
  155SAPE  H15R17280  -0.818   1.221   8.952  2.5779 -1.0111  0.6845
  155SAPE  C21617281  -0.962   1.070   9.007  0.3879 -0.5444  0.2410
  155SAPE  H16R17282  -1.057   1.122   8.983 -0.0440 -1.6338 -0.5019
  155SAPE  H16S17283  -0.982   1.010   9.098  1.0670 -1.3164 -0.1008
  155SAPE  C21717284  -0.952   0.979   8.883 -1.0501 -0.7690 -0.6965
  155SAPE  H17R17285  -1.050   0.932   8.863 -0.4707 -1.7296 -1.3780
  155SAPE  H17S17286  -0.879   0.900   8.912 -1.4491 -1.1835 -0.8121
  155SAPE  C21817287  -0.922   1.059   8.759  0.3364  0.4857  0.1004
  155SAPE  H18R17288  -0.821   1.106   8.760  1.6126 -2.0181 -1.4664
  155SAPE  H18S17289  -0.990   1.147   8.765 -1.2251 -0.7232  0.9160
  155SAPE  C21917290  -0.932   0.976   8.628  0.5075  0.1841  0.1021
  155SAPE  H19R17291  -0.865   0.889   8.611  0.3408  0.4469 -2.3143
  155SAPE  H19S17292  -0.894   1.056   8.560  1.4469  0.1961  0.6310
  155SAPE  C22017293  -1.069   0.942   8.574  1.1646  0.0705 -0.1506
  155SAPE  H20R17294  -1.065   0.897   8.472 -1.3282 -0.3170 -0.1479
  155SAPE  H20S17295  -1.139   1.027   8.560 -0.6863 -1.2035  0.8529
  155SAPE  H20T17296  -1.127   0.882   8.647  2.5094 -2.2429 -0.8814
  155SAPE   C3317297  -0.156   1.242   9.991 -0.1910 -0.1788  0.3084
  155SAPE   H3X17298  -0.263   1.274   9.986  0.1859  1.0381 -0.2637
  155SAPE   H3Y17299  -0.144   1.134  10.017  0.4974  0.2597  1.9360
  155SAPE   C3417300  -0.094   1.261   9.854 -0.0990 -0.3683 -0.3400
  155SAPE   H4X17301   0.004   1.210   9.859  0.0499 -0.4334 -2.6768
  155SAPE   H4Y17302  -0.066   1.363   9.820  0.8049 -0.7842 -0.8927
  155SAPE   C3517303  -0.177   1.192   9.741  0.7006 -0.4989 -0.3251
  155SAPE   H5X17304  -0.199   1.089   9.777  1.2314 -0.1127  1.1926
  155SAPE   H5Y17305  -0.127   1.200   9.642  0.4360  0.9629 -0.3549
  155SAPE   C3617306  -0.310   1.266   9.714  0.0189  0.3829 -0.2054
  155SAPE   H6X17307  -0.273   1.371   9.723  1.9282 -0.4704  4.9165
  155SAPE   H6Y17308  -0.371   1.230   9.799 -0.4303 -1.4161 -1.2498
  155SAPE   C3717309  -0.384   1.225   9.582 -0.1216  0.1971  0.3147
  155SAPE   H7X17310  -0.479   1.282   9.571 -0.5310 -0.3133  1.0992
  155SAPE   H7Y17311  -0.406   1.117   9.578  0.1060  0.1730 -0.2861
  155SAPE   C3817312  -0.306   1.267   9.457 -0.3080 -0.0630  0.7459
  155SAPE   H8X17313  -0.213   1.205   9.454 -0.1938  0.1544 -0.4990
  155SAPE   H8Y17314  -0.275   1.372   9.475  0.0970 -0.1713  0.6877
  155SAPE   C3917315  -0.381   1.248   9.326  0.1939 -0.5542  0.6146
  155SAPE   H9X17316  -0.479   1.302   9.327 -0.8385 -2.0432 -2.7637
  155SAPE   H9Y17317  -0.400   1.141   9.303  1.7506 -0.8177  0.4543
  155SAPE  C31017318  -0.300   1.294   9.198 -0.3279 -0.2864 -0.1309
  155SAPE  H10X17319  -0.214   1.223   9.198 -0.8419 -0.9291  0.1627
  155SAPE  H10Y17320  -0.268   1.400   9.201  0.8627 -0.6045 -0.7428
  155SAPE  C31117321  -0.374   1.285   9.070 -0.4513 -0.6291 -0.0807
  155SAPE  H11X17322  -0.482   1.305   9.087 -0.1944  0.4246  0.3547
  155SAPE  H11Y17323  -0.359   1.177   9.046 -2.0771 -0.7854 -0.5095
  155SAPE  C31217324  -0.310   1.375   8.956  0.5378  0.8097 -0.1782
  155SAPE  H12X17325  -0.203   1.348   8.940 -0.0100 -2.6311  1.0400
  155SAPE  H12Y17326  -0.313   1.484   8.975  1.4951  0.9262 -0.6751
  155SAPE  C31317327  -0.389   1.346   8.826 -0.1227  0.1462  0.2816
  155SAPE  H13X17328  -0.492   1.386   8.827 -0.9767 -1.7957 -1.3500
  155SAPE  H13Y17329  -0.401   1.236   8.818  1.2748 -0.0650  0.7898
  155SAPE  C31417330  -0.327   1.405   8.698 -0.9676  0.6238  0.4532
  155SAPE  H14X17331  -0.416   1.416   8.632 -1.1961 -0.9941  0.4543
  155SAPE  H14Y17332  -0.251   1.337   8.653 -2.1202  1.1592 -2.4972
  155SAPE  C31517333  -0.263   1.545   8.718 -0.9247 -0.0545 -0.1526
  155SAPE  H15X17334  -0.170   1.526   8.775 -2.5288  0.4619  2.8543
  155SAPE  H15Y17335  -0.332   1.597   8.788  1.9256 -0.4187  3.1566
  155SAPE  C31617336  -0.213   1.633   8.601  0.4160  0.7386  0.3046
  155SAPE  H16X17337  -0.306   1.652   8.544 -0.3587 -1.3617  0.7790
  155SAPE  H16Y17338  -0.160   1.574   8.523  1.1069  2.4711 -0.6000
  155SAPE  C31717339  -0.141   1.760   8.638  0.1354 -0.2630 -0.3625
  155SAPE  H17X17340  -0.044   1.745   8.689 -1.0365 -0.9640  1.8094
  155SAPE  H17Y17341  -0.203   1.805   8.719  0.1859 -2.4802  1.0045
  155SAPE  C31817342  -0.117   1.850   8.514  0.3210  0.5517 -0.5953
  155SAPE  H18X17343  -0.212   1.894   8.477  0.9429  2.3407 -0.1747
  155SAPE  H18Y17344  -0.069   1.792   8.432  0.8108  2.2323 -1.5472
  155SAPE  H18Z17345  -0.046   1.932   8.541 -1.7982  2.0529  0.7720
  156SAPE     N17346   4.315   3.816  10.628 -0.1119 -0.1349  0.0570
  156SAPE   HN117347   4.299   3.917  10.646 -1.0694 -0.6743  2.7107
  156SAPE   HN217348   4.226   3.766  10.649 -0.2268  0.4688  1.0950
  156SAPE   HN317349   4.382   3.764  10.689  0.0953  0.1769  0.0969
  156SAPE   C1217350   4.359   3.797  10.490 -0.3746  0.5079 -0.0161
  156SAPE  H12A17351   4.273   3.827  10.426 -0.1201  0.9992 -0.1373
  156SAPE  H12B17352   4.377   3.689  10.475 -1.0337  0.1922  1.2590
  156SAPE   C1117353   4.491   3.880  10.453 -0.1556  0.2362  0.2029
  156SAPE  H11A17354   4.459   3.985  10.463 -1.3091  0.2070 -2.3674
  156SAPE  H11B17355   4.525   3.867  10.348  1.7358  0.6445  0.7261
  156SAPE     P17356   4.739   3.925  10.521  0.1716  0.3050 -0.4334
  156SAPE   O1317357   4.730   4.065  10.564 -0.0931  0.0625 -0.6987
  156SAPE   O1417358   4.849   3.846  10.579 -0.1636  0.0460 -0.2986
  156SAPE   O1217359   4.598   3.855  10.544 -0.1903 -0.1335 -0.7066
  156SAPE   O1117360   4.757   3.921  10.369  0.8270  0.1523  0.6168
  156SAPE    C117361   4.870   3.985  10.306 -0.0931  0.5791  1.3187
  156SAPE    HA17362   4.957   3.973  10.375  0.2732 -1.0657  0.6266
  156SAPE    HB17363   4.899   3.927  10.216  0.8668  2.4921  0.3322
  156SAPE    C217364   4.827   4.128  10.270  0.5086 -0.6472  0.3840
  156SAPE    HS17365   4.759   4.156  10.353  2.3148 -0.9450  2.0300
  156SAPE   O2117366   4.759   4.129  10.148 -0.3954 -0.1806  0.3940
  156SAPE   C2117367   4.635   4.175  10.143  0.7903 -0.2392  0.2928
  156SAPE   O2217368   4.580   4.241  10.232 -0.3800  0.3652  0.0997
  156SAPE   C2217369   4.553   4.122  10.018  0.0161 -0.5277  0.4770
  156SAPE   H2R17370   4.528   4.020  10.057 -0.4498  0.5307  3.1729
  156SAPE   H2S17371   4.454   4.170  10.003  0.7587  1.0119  0.3980
  156SAPE    C317372   4.952   4.218  10.237  0.1587  0.4521 -0.2882
  156SAPE    HX17373   5.014   4.160  10.165 -0.4685 -2.0542  1.0868
  156SAPE    HY17374   5.010   4.234  10.330  0.2062 -0.9442 -0.0584
  156SAPE   O3117375   4.910   4.338  10.175  0.4427  0.2607 -0.0621
  156SAPE   C3117376   4.904   4.451  10.247  0.3022 -0.5035 -0.6305
  156SAPE   O3217377   4.933   4.460  10.368  0.9480 -0.3245  0.0147
  156SAPE   C3217378   4.851   4.564  10.157  0.7205 -0.5303  0.8261
  156SAPE   H2X17379   4.918   4.563  10.068  0.7460 -0.7812  0.8498
  156SAPE   H2Y17380   4.857   4.664  10.205 -1.3399 -1.1133  2.4417
  156SAPE   C2317381   4.638   4.101   9.898  0.4295 -0.1135 -0.2705
  156SAPE   H3R17382   4.601   4.017   9.836 -0.3388 -1.1039  1.4640
  156SAPE   H3S17383   4.738   4.058   9.924 -0.3891 -1.9176  0.0259
  156SAPE   C2417384   4.637   4.226   9.807 -0.2214  0.1866 -0.7438
  156SAPE   H4R17385   4.662   4.318   9.863 -2.5147  0.6946 -0.4791
  156SAPE   H4S17386   4.535   4.250   9.769 -1.4152  0.8187  2.5221
  156SAPE   C2517387   4.734   4.194   9.696 -0.6098 -0.8197  1.1295
  156SAPE   H5R17388   4.698   4.125   9.618  0.5940  1.4460 -1.6493
  156SAPE   C2617389   4.856   4.251   9.675 -0.5678 -0.3496 -0.6811
  156SAPE   H6R17390   4.907   4.220   9.583 -0.2379 -1.0060 -0.2813
  156SAPE   C2717391   4.924   4.361   9.757 -0.3427 -0.0975 -1.2420
  156SAPE   H7R17392   4.859   4.411   9.832  0.0917 -3.3861  1.5883
  156SAPE   H7S17393   4.948   4.441   9.684 -2.5559  1.1031 -0.7355
  156SAPE   C2817394   5.045   4.315   9.835 -0.6923  0.0336  0.5301
  156SAPE   H8R17395   5.024   4.267   9.932  0.3619 -0.1422  0.6811
  156SAPE   C2917396   5.172   4.340   9.802 -0.7622 -0.0478  0.2690
  156SAPE   H9R17397   5.247   4.312   9.877 -0.2504  1.5555  0.3761
  156SAPE  C21017398   5.232   4.412   9.677 -0.4650 -0.1333 -0.2478
  156SAPE  H10R17399   5.329   4.459   9.705 -0.3005  0.8947 -2.3728
  156SAPE  H10S17400   5.165   4.496   9.650 -0.7333 -0.1131  0.4400
  156SAPE  C21117401   5.248   4.312   9.565 -0.1322 -0.2250  0.7077
  156SAPE  H11R17402   5.174   4.232   9.547  0.0189 -0.2866  0.3675
  156SAPE  C21217403   5.343   4.332   9.475 -0.2485  0.7689 -1.2012
  156SAPE  H12R17404   5.348   4.255   9.397 -1.9027 -1.6272  0.8699
  156SAPE  C21317405   5.443   4.444   9.476 -0.4790  0.3880 -0.0037
  156SAPE  H13R17406   5.473   4.452   9.583 -1.4982 -1.8125  0.4859
  156SAPE  H13S17407   5.402   4.543   9.445 -0.3181  0.8262  1.1223
  156SAPE  C21417408   5.566   4.411   9.391  0.1491 -0.8456 -1.0626
  156SAPE  H14R17409   5.559   4.440   9.285 -0.3305 -1.4306 -1.1992
  156SAPE  C21517410   5.677   4.345   9.432 -0.0878  0.3721  0.4795
  156SAPE  H15R17411   5.752   4.321   9.355  0.2823 -1.1042  1.2576
  156SAPE  C21617412   5.709   4.292   9.568 -0.0703 -0.2194 -0.2439
  156SAPE  H16R17413   5.629   4.314   9.641  1.4713 -1.1219  1.8174
  156SAPE  H16S17414   5.801   4.340   9.608 -0.2434  1.9939 -2.3317
  156SAPE  C21717415   5.738   4.144   9.555 -0.0193 -0.3910 -0.5264
  156SAPE  H17R17416   5.639   4.103   9.524 -0.5927  1.1332 -0.7973
  156SAPE  H17S17417   5.748   4.100   9.656 -0.4130 -0.1665 -0.3856
  156SAPE  C21817418   5.857   4.107   9.466  0.1732 -0.1291 -0.2894
  156SAPE  H18R17419   5.946   4.169   9.492 -0.0052 -0.5687  1.4717
  156SAPE  H18S17420   5.827   4.127   9.361 -1.2920  1.3689  0.3775
  156SAPE  C21917421   5.879   3.955   9.460  0.2005  0.1408 -0.4924
  156SAPE  H19R17422   5.783   3.905   9.435  0.6166 -1.1718  0.4285
  156SAPE  H19S17423   5.909   3.913   9.559 -0.6928 -1.0450 -0.7092
  156SAPE  C22017424   5.987   3.918   9.358 -0.4017  0.3277  0.0821
  156SAPE  H20R17425   5.936   3.920   9.259  0.7420 -0.5343 -0.5442
  156SAPE  H20S17426   6.034   3.819   9.377  0.9390  1.0391  0.6085
  156SAPE  H20T17427   6.061   4.001   9.355  0.0784 -0.0878  0.3446
  156SAPE   C3317428   4.707   4.555  10.106  0.7283  0.1163  0.1341
  156SAPE   H3X17429   4.639   4.544  10.192  0.5268 -2.1928 -0.2430
  156SAPE   H3Y17430   4.691   4.455  10.060  0.2615  1.0612 -1.8620
  156SAPE   C3417431   4.663   4.667  10.008 -0.5560 -0.5193 -0.1925
  156SAPE   H4X17432   4.696   4.766  10.046 -0.3605 -0.9437  0.7606
  156SAPE   H4Y17433   4.552   4.673  10.004 -0.5775 -1.4250 -1.4261
  156SAPE   C3517434   4.715   4.657   9.865 -0.1100 -0.1729 -0.2313
  156SAPE   H5X17435   4.674   4.574   9.803  2.5897 -0.4603 -1.8007
  156SAPE   H5Y17436   4.825   4.651   9.882 -0.1750  0.6647  0.5579
  156SAPE   C3617437   4.674   4.783   9.780  0.0433  0.1375 -0.1704
  156SAPE   H6X17438   4.729   4.869   9.823 -0.5580  0.4599 -0.0453
  156SAPE   H6Y17439   4.569   4.808   9.804 -0.7617 -0.4115 -2.8154
  156SAPE   C3717440   4.705   4.774   9.633  0.4399 -0.0495 -0.3936
  156SAPE   H7X17441   4.647   4.684   9.604 -1.0858  0.7057  0.1765
  156SAPE   H7Y17442   4.813   4.754   9.619  0.7588  2.0904 -1.4602
  156SAPE   C3817443   4.670   4.894   9.536  0.2867  0.7310 -0.4440
  156SAPE   H8X17444   4.713   4.985   9.582  0.9029  0.8761 -1.2887
  156SAPE   H8Y17445   4.559   4.906   9.528  0.1257 -0.7852 -0.7087
  156SAPE   C3917446   4.733   4.856   9.396 -0.5211  0.3906  1.0226
  156SAPE   H9X17447   4.825   4.796   9.408 -1.0984 -0.5575  0.7789
  156SAPE   H9Y17448   4.754   4.952   9.344  0.7177 -0.1495  0.5028
  156SAPE  C31017449   4.641   4.762   9.320  0.9053 -0.3617 -0.6405
  156SAPE  H10X17450   4.544   4.815   9.324  0.5522 -1.0713  2.1486
  156SAPE  H10Y17451   4.624   4.668   9.377 -3.4542  0.5406 -0.1415
  156SAPE  C31117452   4.698   4.736   9.180  0.4067 -0.1337 -0.0674
  156SAPE  H11X17453   4.789   4.673   9.185  1.3257  1.0847 -1.0131
  156SAPE  H11Y17454   4.723   4.839   9.149 -0.8283  0.5362  1.0616
  156SAPE  C31217455   4.596   4.674   9.081 -0.0330  0.0531 -0.1897
  156SAPE  H12X17456   4.507   4.741   9.083 -0.1630  0.0512 -2.6719
  156SAPE  H12Y17457   4.569   4.575   9.122  0.4763 -0.3198 -0.7377
  156SAPE  C31317458   4.665   4.681   8.938  0.0401  0.0068 -0.2291
  156SAPE  H13X17459   4.776   4.686   8.945  0.3992 -0.1897 -3.7941
  156SAPE  H13Y17460   4.639   4.785   8.909 -0.0156 -0.1929 -0.9255
  156SAPE  C31417461   4.618   4.584   8.832  0.0062  0.3948  0.2055
  156SAPE  H14X17462   4.682   4.610   8.744  1.0529  2.0515  1.3897
  156SAPE  H14Y17463   4.515   4.600   8.795  0.0457 -1.8523 -1.0611
  156SAPE  C31517464   4.637   4.446   8.879 -0.4647  0.8459  0.4521
  156SAPE  H15X17465   4.546   4.429   8.941  0.0722 -1.3424  0.7290
  156SAPE  H15Y17466   4.730   4.440   8.940  0.3681 -0.5005 -0.8909
  156SAPE  C31617467   4.650   4.336   8.776 -0.2874  0.1575  0.4158
  156SAPE  H16X17468   4.673   4.240   8.827 -2.1280 -0.4425  0.1645
  156SAPE  H16Y17469   4.726   4.359   8.697  0.7073  1.7434  1.7544
  156SAPE  C31717470   4.519   4.307   8.703 -0.0229 -0.5187 -0.0093
  156SAPE  H17X17471   4.470   4.393   8.652 -0.4685 -1.8053 -1.8785
  156SAPE  H17Y17472   4.455   4.275   8.788  0.4434 -2.3096 -0.2901
  156SAPE  C31817473   4.536   4.187   8.594  0.1033  0.1724 -0.5542
  156SAPE  H18X17474   4.588   4.106   8.650  0.8168  0.3536 -0.9480
  156SAPE  H18Y17475   4.605   4.220   8.514  0.1774  0.3082 -0.4366
  156SAPE  H18Z17476   4.438   4.159   8.551 -0.2601  3.2680 -2.0426
  157SAPE     N17477   1.771   5.994  11.072 -0.2176 -0.7479  0.1047
  157SAPE   HN117478   1.737   5.962  11.165 -1.3691  1.4317  0.4995
  157SAPE   HN217479   1.871   5.968  11.071  0.2434  0.9571 -0.1606
  157SAPE   HN317480   1.752   6.096  11.078 -0.5686 -0.7521 -0.7998
  157SAPE   C1217481   1.709   5.932  10.953  0.3153 -0.5434  0.4328
  157SAPE  H12A17482   1.605   5.970  10.938  0.9048  1.2303  0.6947
  157SAPE  H12B17483   1.705   5.823  10.976  0.3352 -0.3136  1.5813
  157SAPE   C1117484   1.789   5.961  10.827 -0.4186 -0.3512 -0.4189
  157SAPE  H11A17485   1.740   5.897  10.750 -0.6007 -3.3073  1.9571
  157SAPE  H11B17486   1.890   5.918  10.844 -0.9991 -1.1176  1.3533
  157SAPE     P17487   1.923   6.179  10.806 -0.2051 -0.2052  0.1424
  157SAPE   O1317488   1.909   6.322  10.769  0.2426  0.5129 -0.3642
  157SAPE   O1417489   1.962   6.151  10.946 -0.3878  0.4547 -0.2414
  157SAPE   O1217490   1.788   6.100  10.793  0.1824  0.3549 -0.2193
  157SAPE   O1117491   2.019   6.110  10.710  0.5984 -0.0887 -0.0276
  157SAPE    C117492   2.128   6.185  10.656 -0.0946 -0.3100 -0.6477
  157SAPE    HA17493   2.087   6.276  10.609 -1.2576 -0.5119 -0.0464
  157SAPE    HB17494   2.209   6.210  10.727 -0.2929  0.0761 -0.5606
  157SAPE    C217495   2.213   6.100  10.550  0.0220  0.1192  0.2466
  157SAPE    HS17496   2.308   6.152  10.527 -0.1832  0.4440  0.1154
  157SAPE   O2117497   2.145   6.077  10.423 -0.3338  0.0954 -0.1083
  157SAPE   C2117498   2.169   6.165  10.326 -0.1438  1.2071 -0.4456
  157SAPE   O2217499   2.227   6.272  10.341  0.3925 -0.0803  0.3533
  157SAPE   C2217500   2.132   6.099  10.194  0.0174 -0.4422 -0.5193
  157SAPE   H2R17501   2.221   6.103  10.128  0.4682  1.1116  0.1431
  157SAPE   H2S17502   2.121   5.989  10.203 -2.1147 -0.1444  1.8769
  157SAPE    C317503   2.238   5.961  10.620  0.2326  0.9429 -0.1901
  157SAPE    HX17504   2.146   5.899  10.636  0.6805  0.0345 -1.0621
  157SAPE    HY17505   2.268   5.985  10.725 -1.7985  3.4148 -0.0720
  157SAPE   O3117506   2.348   5.886  10.566 -0.0757  0.0747 -0.2263
  157SAPE   C3117507   2.363   5.760  10.593  0.2626 -0.0675 -0.8749
  157SAPE   O3217508   2.303   5.697  10.677 -0.6382  0.2860 -0.1680
  157SAPE   C3217509   2.472   5.699  10.511  0.5549 -0.3525  0.6094
  157SAPE   H2X17510   2.459   5.589  10.521 -2.0264 -0.2593 -0.7748
  157SAPE   H2Y17511   2.566   5.724  10.564  1.2119 -0.5580 -0.4413
  157SAPE   C2317512   2.016   6.160  10.111 -0.3659  0.3715 -0.4552
  157SAPE   H3R17513   2.018   6.270  10.129 -1.2733  0.3416 -0.1396
  157SAPE   H3S17514   1.928   6.133  10.173  0.2891 -1.0207 -0.1098
  157SAPE   C2417515   2.034   6.121   9.968  0.0391 -0.0590 -0.4917
  157SAPE   H4R17516   2.044   6.011   9.960 -0.6544 -0.0406 -1.9916
  157SAPE   H4S17517   2.120   6.181   9.931 -0.7748  1.2649 -0.3311
  157SAPE   C2517518   1.917   6.156   9.888 -0.1428 -0.3076  0.1741
  157SAPE   H5R17519   1.825   6.167   9.948 -0.0544 -0.4612  0.3386
  157SAPE   C2617520   1.920   6.180   9.752  0.4122 -0.5530 -0.1430
  157SAPE   H6R17521   1.821   6.190   9.704  0.2208 -0.6892  0.2160
  157SAPE   C2717522   2.045   6.164   9.660  0.4797  0.2880  0.1673
  157SAPE   H7R17523   2.022   6.114   9.563  1.5414 -0.7354  0.4311
  157SAPE   H7S17524   2.110   6.088   9.706 -1.5091 -1.1971  0.6737
  157SAPE   C2817525   2.119   6.297   9.646  0.6910  0.3604 -0.3381
  157SAPE   H8R17526   2.178   6.325   9.734  0.0226  1.9217 -0.3669
  157SAPE   C2917527   2.121   6.375   9.540  0.0655 -0.2365 -0.6930
  157SAPE   H9R17528   2.175   6.470   9.538  0.1217 -0.2756 -1.4036
  157SAPE  C21017529   2.064   6.346   9.403 -0.3386 -1.4318 -0.0672
  157SAPE  H10R17530   1.973   6.408   9.388 -0.3471 -1.6022 -0.7609
  157SAPE  H10S17531   2.021   6.243   9.402  2.2250 -2.6224  1.9707
  157SAPE  C21117532   2.168   6.358   9.303 -0.2461 -0.3814 -0.1858
  157SAPE  H11R17533   2.262   6.313   9.337  0.4043  0.2297 -1.1437
  157SAPE  C21217534   2.152   6.391   9.176  0.1087  0.4322 -0.7255
  157SAPE  H12R17535   2.237   6.399   9.106 -0.2154  0.7927 -1.0764
  157SAPE  C21317536   2.027   6.435   9.103 -0.1878 -0.0820 -0.4878
  157SAPE  H13R17537   2.037   6.540   9.067  1.3726 -0.6656 -1.9291
  157SAPE  H13S17538   1.935   6.424   9.164 -0.4592 -1.3021 -1.0755
  157SAPE  C21417539   2.004   6.351   8.980 -0.7468 -0.2707 -0.9039
  157SAPE  H14R17540   1.953   6.258   9.009  1.7164 -0.5091  3.4113
  157SAPE  C21517541   2.045   6.379   8.857 -0.5416  0.8582  0.4397
  157SAPE  H15R17542   2.015   6.312   8.775  0.8410 -0.9081  1.2844
  157SAPE  C21617543   2.134   6.493   8.824 -0.5332 -0.7463  0.5768
  157SAPE  H16R17544   2.197   6.458   8.740 -0.8083 -1.1644  0.5442
  157SAPE  H16S17545   2.210   6.513   8.903 -0.5591  1.1789  0.1626
  157SAPE  C21717546   2.075   6.626   8.790  0.6157  0.3663 -0.1875
  157SAPE  H17R17547   2.150   6.707   8.780  0.9471  0.0945  0.0812
  157SAPE  H17S17548   2.029   6.670   8.881  2.7365  2.9021 -0.2186
  157SAPE  C21817549   1.990   6.634   8.655  0.3052 -1.2493  0.4261
  157SAPE  H18R17550   1.937   6.732   8.658 -0.8345 -1.8049  4.0451
  157SAPE  H18S17551   1.917   6.549   8.656  0.0445 -1.4009 -4.6901
  157SAPE  C21917552   2.083   6.620   8.531  0.6835  0.2543  0.2832
  157SAPE  H19R17553   2.125   6.518   8.540  0.7054  0.1819 -0.5558
  157SAPE  H19S17554   2.179   6.675   8.532  1.2423 -0.5705 -2.0702
  157SAPE  C22017555   2.014   6.638   8.396  0.2974 -0.3488  0.3452
  157SAPE  H20R17556   2.092   6.632   8.317  0.3115  1.3310  0.1994
  157SAPE  H20S17557   1.972   6.739   8.376 -1.5186 -1.2338 -0.5274
  157SAPE  H20T17558   1.940   6.556   8.381 -0.0318  0.1684 -1.0699
  157SAPE   C3317559   2.479   5.739  10.360 -0.0511 -0.2084 -0.9081
  157SAPE   H3X17560   2.579   5.703  10.329  0.0855 -0.5059 -0.1537
  157SAPE   H3Y17561   2.480   5.850  10.364 -1.1376 -0.1338 -2.0700
  157SAPE   C3417562   2.358   5.703  10.267  0.0177  0.4279  0.1251
  157SAPE   H4X17563   2.259   5.718  10.316 -0.7141 -0.9860 -0.8391
  157SAPE   H4Y17564   2.377   5.594  10.255 -2.4772 -0.1513  0.8326
  157SAPE   C3517565   2.352   5.772  10.132 -0.1270 -0.5624 -0.2567
  157SAPE   H5X17566   2.312   5.876  10.139  0.0676 -0.5701  1.3148
  157SAPE   H5Y17567   2.293   5.710  10.061 -0.0442  0.9903 -1.7480
  157SAPE   C3617568   2.487   5.785  10.062  0.3511  0.1889 -0.2649
  157SAPE   H6X17569   2.530   5.684  10.078  0.5218  0.2531 -0.3060
  157SAPE   H6Y17570   2.564   5.846  10.116  2.4378 -2.3687 -0.1586
  157SAPE   C3717571   2.477   5.831   9.916  0.8379 -0.2725  0.3974
  157SAPE   H7X17572   2.568   5.887   9.887  0.1336  0.8452  0.2964
  157SAPE   H7Y17573   2.388   5.897   9.909 -0.8984 -2.3397  1.5231
  157SAPE   C3817574   2.446   5.711   9.812  0.1314 -0.8314 -1.2460
  157SAPE   H8X17575   2.387   5.640   9.874 -1.1641  0.7601 -0.5925
  157SAPE   H8Y17576   2.542   5.667   9.777  1.6591  0.5587  0.9503
  157SAPE   C3917577   2.376   5.751   9.684 -0.2839  0.7327  0.2405
  157SAPE   H9X17578   2.286   5.803   9.722 -1.8143 -1.4680 -0.1730
  157SAPE   H9Y17579   2.349   5.660   9.626  0.5710 -0.1376  1.1805
  157SAPE  C31017580   2.459   5.847   9.606  0.4856 -0.0920 -0.3925
  157SAPE  H10X17581   2.560   5.805   9.591  0.3501 -0.7212  0.3730
  157SAPE  H10Y17582   2.479   5.941   9.663 -0.2328 -1.9838  3.2908
  157SAPE  C31117583   2.396   5.867   9.467 -0.6698  0.6992 -0.4407
  157SAPE  H11X17584   2.292   5.904   9.481 -0.8392 -0.1649  0.7914
  157SAPE  H11Y17585   2.383   5.761   9.435  3.7370 -0.8886  2.1663
  157SAPE  C31217586   2.479   5.941   9.369  0.2498  0.4073  0.0426
  157SAPE  H12X17587   2.566   5.877   9.341  0.0155  0.8645 -1.8183
  157SAPE  H12Y17588   2.518   6.036   9.410  2.1178 -0.4895  0.4721
  157SAPE  C31317589   2.406   5.950   9.235 -0.6889 -0.4534 -0.3275
  157SAPE  H13X17590   2.329   6.029   9.243 -0.4303 -0.2492  0.2362
  157SAPE  H13Y17591   2.359   5.852   9.211 -1.6359  0.1264 -0.8775
  157SAPE  C31417592   2.487   5.997   9.107 -0.5138 -0.4222 -0.5275
  157SAPE  H14X17593   2.587   5.951   9.090  0.1441  1.1997 -1.3300
  157SAPE  H14Y17594   2.521   6.102   9.121  1.5898 -1.0559 -0.5730
  157SAPE  C31517595   2.403   5.975   8.984  0.0767 -0.0673 -0.3461
  157SAPE  H15X17596   2.301   6.016   9.003 -0.1525 -0.7014 -0.1933
  157SAPE  H15Y17597   2.393   5.866   8.965  0.1116  0.2672 -2.5495
  157SAPE  C31617598   2.450   6.065   8.869 -0.3494 -0.6625 -0.2126
  157SAPE  H16X17599   2.547   6.028   8.829 -0.1801 -1.1085  0.6004
  157SAPE  H16Y17600   2.475   6.164   8.913  2.7662 -1.0692 -0.8392
  157SAPE  C31717601   2.350   6.073   8.750 -1.1364 -0.0034  0.0450
  157SAPE  H17X17602   2.250   6.114   8.777 -0.5973  0.6162  1.1709
  157SAPE  H17Y17603   2.336   5.968   8.718  1.1408  0.7667 -4.1429
  157SAPE  C31817604   2.396   6.172   8.642 -0.2743 -0.1729  0.5183
  157SAPE  H18X17605   2.504   6.173   8.614 -0.5647  2.3783 -0.7444
  157SAPE  H18Y17606   2.373   6.275   8.677 -0.8523 -0.2903  0.4951
  157SAPE  H18Z17607   2.348   6.167   8.542  2.0523 -1.9018 -0.6042
  158SAPE     N17608   4.780   4.747  10.892 -0.4786  0.0306 -0.0409
  158SAPE   HN117609   4.677   4.749  10.882 -0.5747  1.1851  1.0792
  158SAPE   HN217610   4.811   4.647  10.886  2.6341  0.9590 -1.3330
  158SAPE   HN317611   4.798   4.778  10.989 -0.9160 -1.7872  0.6654
  158SAPE   C1217612   4.858   4.825  10.785  0.2114  0.3233 -0.1208
  158SAPE  H12A17613   4.957   4.776  10.779  0.4968  1.0989 -2.5552
  158SAPE  H12B17614   4.871   4.930  10.817 -2.0535  0.8867 -0.8961
  158SAPE   C1117615   4.782   4.831  10.648  0.3246 -1.2784 -0.7503
  158SAPE  H11A17616   4.792   4.729  10.605  0.8798 -0.7476 -1.8947
  158SAPE  H11B17617   4.832   4.903  10.580 -1.6989  1.5605  0.5813
  158SAPE     P17618   4.566   4.996  10.660  0.1282 -0.1514 -0.3512
  158SAPE   O1317619   4.473   5.004  10.777  0.0409  0.4815  0.1079
  158SAPE   O1417620   4.656   5.116  10.626  0.3567  0.0936 -0.7342
  158SAPE   O1217621   4.653   4.869  10.689 -0.0434  0.2168 -0.0185
  158SAPE   O1117622   4.485   4.946  10.540  0.2658 -0.2676  0.4981
  158SAPE    C117623   4.563   4.928  10.415 -0.5299 -0.0734  0.5516
  158SAPE    HA17624   4.573   5.028  10.366 -1.0963 -0.0521  0.4678
  158SAPE    HB17625   4.666   4.891  10.429 -0.1730 -0.3422 -2.2739
  158SAPE    C217626   4.502   4.835  10.306  1.1089 -0.5130  0.5034
  158SAPE    HS17627   4.581   4.798  10.237  0.1221  0.1655 -1.0341
  158SAPE   O2117628   4.391   4.889  10.237  0.2175  0.4710 -0.1953
  158SAPE   C2117629   4.434   4.963  10.135 -0.3170 -0.0860  0.1218
  158SAPE   O2217630   4.548   4.976  10.095 -0.1792 -0.2858  0.5291
  158SAPE   C2217631   4.316   5.033  10.066  0.0943 -0.1433 -0.6265
  158SAPE   H2R17632   4.229   4.966  10.046  0.0725 -0.0700 -0.7745
  158SAPE   H2S17633   4.278   5.115  10.131  0.6856 -0.6103  0.3327
  158SAPE    C317634   4.451   4.705  10.373 -0.5797  0.2435 -0.5632
  158SAPE    HX17635   4.383   4.715  10.461 -2.9287  0.1321 -2.2908
  158SAPE    HY17636   4.545   4.666  10.420 -0.2919  0.5022 -0.9201
  158SAPE   O3117637   4.412   4.597  10.283 -0.5100  0.3266 -0.0671
  158SAPE   C3117638   4.280   4.571  10.287  0.4525  0.1091  0.2097
  158SAPE   O3217639   4.206   4.638  10.351 -0.0505 -0.3728 -0.5093
  158SAPE   C3217640   4.245   4.444  10.206  0.0161 -0.2003  0.2618
  158SAPE   H2X17641   4.139   4.465  10.181 -0.0150  2.9060  2.4627
  158SAPE   H2Y17642   4.262   4.351  10.264  0.6116  0.6286  1.4646
  158SAPE   C2317643   4.357   5.111   9.934  0.1031 -0.4248  0.1144
  158SAPE   H3R17644   4.457   5.157   9.950 -0.4754  1.0916 -0.4191
  158SAPE   H3S17645   4.285   5.195   9.928 -0.3667 -0.9090 -3.9200
  158SAPE   C2417646   4.354   5.027   9.806  0.2230  0.8518 -0.3324
  158SAPE   H4R17647   4.253   4.986   9.788 -0.0520  1.7893 -0.9927
  158SAPE   H4S17648   4.414   4.938   9.833 -1.4835  0.1972  1.5268
  158SAPE   C2517649   4.413   5.098   9.692 -0.6249 -0.5168  0.0948
  158SAPE   H5R17650   4.523   5.107   9.696 -0.7389  1.4687 -0.1269
  158SAPE   C2617651   4.347   5.148   9.590  0.1570  0.4856 -0.1042
  158SAPE   H6R17652   4.404   5.199   9.511  0.6399 -0.7779 -0.5961
  158SAPE   C2717653   4.197   5.130   9.574  0.5533 -0.3059  0.0479
  158SAPE   H7R17654   4.151   5.155   9.673  0.3135  0.3123 -0.2151
  158SAPE   H7S17655   4.183   5.023   9.547 -2.7382  0.5145 -2.0201
  158SAPE   C2817656   4.141   5.213   9.464 -0.5816  0.1011 -0.3872
  158SAPE   H8R17657   4.087   5.302   9.502  0.4636 -0.3714  2.4242
  158SAPE   C2917658   4.146   5.197   9.333 -0.0912  0.6946  0.7207
  158SAPE   H9R17659   4.113   5.278   9.267 -1.6419 -1.1881 -0.9346
  158SAPE  C21017660   4.204   5.077   9.266  0.0620 -0.0492 -0.1240
  158SAPE  H10R17661   4.143   4.986   9.288  1.0431 -0.7194 -0.1210
  158SAPE  H10S17662   4.306   5.054   9.304  0.9778 -0.1393 -2.4907
  158SAPE  C21117663   4.215   5.077   9.117  0.1687  0.9612 -0.7310
  158SAPE  H11R17664   4.125   5.105   9.060 -1.3313 -0.3296  0.8923
  158SAPE  C21217665   4.323   5.058   9.044 -0.2700 -0.1526 -0.1606
  158SAPE  H12R17666   4.297   5.050   8.937 -0.1922 -1.9496 -0.0815
  158SAPE  C21317667   4.470   5.035   9.076  0.5520  0.7431  0.9818
  158SAPE  H13R17668   4.526   4.989   8.991  0.4046 -0.9192  1.7513
  158SAPE  H13S17669   4.478   4.962   9.159 -0.8464 -1.4073 -0.6659
  158SAPE  C21417670   4.527   5.169   9.122 -0.0888 -0.4296 -0.4844
  158SAPE  H14R17671   4.463   5.230   9.188 -1.9362 -2.5930 -0.1399
  158SAPE  C21517672   4.651   5.211   9.112 -0.2185 -0.8371  0.0439
  158SAPE  H15R17673   4.667   5.315   9.143 -0.3828 -0.6399 -0.5249
  158SAPE  C21617674   4.771   5.151   9.039 -0.6230  0.5042 -0.0156
  158SAPE  H16R17675   4.749   5.063   8.975  0.0576  0.8993 -0.8050
  158SAPE  H16S17676   4.848   5.126   9.115 -0.3044 -0.2780 -0.5844
  158SAPE  C21717677   4.842   5.251   8.942  0.0866 -0.6053 -0.1296
  158SAPE  H17R17678   4.935   5.199   8.909  1.3328  0.7843  1.0310
  158SAPE  H17S17679   4.869   5.345   8.995 -0.9921 -0.4253  0.1250
  158SAPE  C21817680   4.754   5.291   8.815 -0.6089  0.4028 -0.0036
  158SAPE  H18R17681   4.727   5.193   8.770  0.4850  0.7385 -1.4877
  158SAPE  H18S17682   4.823   5.334   8.738  1.9608 -1.4480  1.1360
  158SAPE  C21917683   4.644   5.387   8.832  0.4630  0.2069 -0.2442
  158SAPE  H19R17684   4.679   5.467   8.901 -0.1017  1.7646 -1.6782
  158SAPE  H19S17685   4.560   5.338   8.887  0.7159  2.0618  1.9633
  158SAPE  C22017686   4.572   5.443   8.704 -0.2431  0.3901 -0.4491
  158SAPE  H20R17687   4.466   5.468   8.721  0.0552 -0.0851  2.6765
  158SAPE  H20S17688   4.556   5.356   8.636  0.3891  0.8453 -1.1979
  158SAPE  H20T17689   4.623   5.529   8.657 -1.0160  0.7514 -0.6267
  158SAPE   C3317690   4.321   4.425  10.073  0.4099  0.7400 -0.2823
  158SAPE   H3X17691   4.274   4.335  10.027 -1.3871  1.5840 -0.1739
  158SAPE   H3Y17692   4.428   4.396  10.077  0.3310  0.1317 -1.7947
  158SAPE   C3417693   4.298   4.540   9.972  0.0660  0.6074  0.0382
  158SAPE   H4X17694   4.355   4.629  10.006  0.3962  0.5819 -0.4442
  158SAPE   H4Y17695   4.194   4.570   9.947  0.6414  1.2209 -1.7616
  158SAPE   C3517696   4.351   4.504   9.831  0.1252 -0.7266  0.2490
  158SAPE   H5X17697   4.301   4.410   9.797 -0.2653 -1.9244  3.7400
  158SAPE   H5Y17698   4.460   4.492   9.847 -0.3800 -2.0387  3.3532
  158SAPE   C3617699   4.329   4.616   9.731 -0.5987  0.0048  0.5015
  158SAPE   H6X17700   4.395   4.702   9.754 -0.2320  0.0545 -0.6790
  158SAPE   H6Y17701   4.220   4.637   9.736 -0.5680  0.3192 -0.0234
  158SAPE   C3717702   4.349   4.563   9.585 -0.5095  0.8237 -0.1618
  158SAPE   H7X17703   4.297   4.466   9.577 -0.9715  1.0994 -0.5251
  158SAPE   H7Y17704   4.457   4.552   9.559 -0.9100 -0.3919 -1.3974
  158SAPE   C3817705   4.285   4.655   9.482  0.3744  0.6019  0.5216
  158SAPE   H8X17706   4.334   4.755   9.486 -0.9457  1.2437  2.2858
  158SAPE   H8Y17707   4.179   4.673   9.509  0.6448  0.7170  1.5960
  158SAPE   C3917708   4.301   4.593   9.348 -1.1012 -0.1300 -0.0076
  158SAPE   H9X17709   4.255   4.491   9.353  0.6457 -0.9313  0.6314
  158SAPE   H9Y17710   4.408   4.582   9.324 -0.5431  2.8302  0.8098
  158SAPE  C31017711   4.228   4.669   9.237 -0.3569 -0.2040 -0.3374
  158SAPE  H10X17712   4.275   4.767   9.213  0.7631 -0.0041  2.2804
  158SAPE  H10Y17713   4.122   4.689   9.263 -0.6004 -1.7551 -0.0318
  158SAPE  C31117714   4.229   4.588   9.116  0.2402  0.0369  0.7106
  158SAPE  H11X17715   4.162   4.501   9.130  0.9219 -1.1241 -2.3227
  158SAPE  H11Y17716   4.325   4.531   9.111  0.1109 -0.1714  0.5291
  158SAPE  C31217717   4.198   4.669   8.984  0.0266  0.1457  0.2708
  158SAPE  H12X17718   4.219   4.611   8.891 -1.4630 -0.0972  0.0659
  158SAPE  H12Y17719   4.283   4.740   8.991  0.4387 -0.3189  0.0803
  158SAPE  C31317720   4.051   4.722   8.974 -0.3816 -0.3738 -1.0010
  158SAPE  H13X17721   4.038   4.803   9.050  0.1852  0.1256 -1.4268
  158SAPE  H13Y17722   3.976   4.645   9.002 -0.4223 -0.0904 -0.3042
  158SAPE  C31417723   4.017   4.769   8.835 -1.1252 -0.4266 -0.7839
  158SAPE  H14X17724   3.995   4.677   8.776  1.8832 -2.0119  0.3281
  158SAPE  H14Y17725   4.108   4.798   8.778  0.9848 -1.8950  1.6331
  158SAPE  C31517726   3.914   4.882   8.824 -0.2631 -0.1489  0.4915
  158SAPE  H15X17727   3.957   4.970   8.876  1.8235 -0.5078 -0.5022
  158SAPE  H15Y17728   3.824   4.841   8.874 -1.2066 -1.1754 -1.8702
  158SAPE  C31617729   3.874   4.904   8.678  0.3412 -0.4005 -1.0504
  158SAPE  H16X17730   3.807   4.826   8.637 -0.6674  0.4853 -1.1447
  158SAPE  H16Y17731   3.958   4.917   8.606  1.0712  0.8989 -0.0149
  158SAPE  C31717732   3.790   5.039   8.667  0.4999  0.2479  0.5719
  158SAPE  H17X17733   3.841   5.124   8.716  0.6644 -0.1866  1.1529
  158SAPE  H17Y17734   3.698   5.021   8.727  0.2505  2.6037  1.0106
  158SAPE  C31817735   3.755   5.080   8.522  0.2828  0.3347 -0.4665
  158SAPE  H18X17736   3.692   5.170   8.515 -1.8011 -1.0508 -0.2684
  158SAPE  H18Y17737   3.689   5.005   8.473  0.3701 -0.3411  0.4236
  158SAPE  H18Z17738   3.839   5.098   8.450 -1.1515  0.4469 -2.1750
  159SAPE     N17739   3.706   0.923   6.567  0.1802  0.1831 -0.2094
  159SAPE   HN117740   3.670   0.977   6.649  2.1786  2.5413 -0.7584
  159SAPE   HN217741   3.636   0.868   6.514  0.4889  0.8453 -1.3424
  159SAPE   HN317742   3.771   0.857   6.614  0.2958  0.6857  0.3458
  159SAPE   C1217743   3.781   1.005   6.459 -0.2397 -0.1162 -0.2605
  159SAPE  H12A17744   3.698   1.050   6.402 -2.2186 -3.1457  0.0049
  159SAPE  H12B17745   3.834   0.924   6.404 -0.4781 -0.0060 -0.6560
  159SAPE   C1117746   3.875   1.115   6.514 -0.1822  0.2590 -0.0762
  159SAPE  H11A17747   3.926   1.065   6.599  2.5675 -2.8143 -3.2052
  159SAPE  H11B17748   3.813   1.197   6.555 -0.5130 -0.1491  0.2485
  159SAPE     P17749   3.946   1.294   6.339  0.0356  0.2598 -0.1505
  159SAPE   O1317750   4.050   1.317   6.236 -0.2176  0.5168  0.4126
  159SAPE   O1417751   3.806   1.303   6.292 -0.3843 -0.8006 -0.2440
  159SAPE   O1217752   3.966   1.157   6.413 -0.1393 -0.0290  0.1133
  159SAPE   O1117753   3.968   1.400   6.458  0.2293 -0.0973  0.6324
  159SAPE    C117754   4.098   1.384   6.523 -0.1468  0.4247 -0.0302
  159SAPE    HA17755   4.149   1.286   6.529 -0.7695  0.1778  2.2697
  159SAPE    HB17756   4.175   1.455   6.485 -1.0339  1.5288  0.1889
  159SAPE    C217757   4.096   1.431   6.669 -0.2033 -0.6962  0.4018
  159SAPE    HS17758   4.066   1.537   6.665  3.0930  0.3372  0.0718
  159SAPE   O2117759   4.227   1.412   6.729  0.2927 -0.0906 -0.0389
  159SAPE   C2117760   4.282   1.511   6.796 -0.2914  0.5519 -0.0132
  159SAPE   O2217761   4.225   1.616   6.820 -0.0418  0.2856 -0.0205
  159SAPE   C2217762   4.420   1.462   6.849  0.6264  0.5087 -0.2617
  159SAPE   H2R17763   4.406   1.353   6.865  0.6049  0.4162 -0.8975
  159SAPE   H2S17764   4.503   1.474   6.775 -0.2871  0.5791 -1.2938
  159SAPE    C317765   4.005   1.339   6.744 -0.3093 -0.2551  0.0166
  159SAPE    HX17766   4.046   1.237   6.731 -0.7290 -0.4979  0.5544
  159SAPE    HY17767   3.907   1.344   6.691  0.2028  2.4902 -0.8523
  159SAPE   O3117768   4.005   1.379   6.882  0.2081  0.1959  0.3638
  159SAPE   C3117769   3.911   1.329   6.961  0.2951 -0.2891 -0.6331
  159SAPE   O3217770   3.836   1.235   6.938 -0.3542  0.0003 -0.2692
  159SAPE   C3217771   3.914   1.398   7.098  0.1821  0.0358  0.1717
  159SAPE   H2X17772   3.979   1.488   7.088  2.8231 -1.6969  0.8252
  159SAPE   H2Y17773   3.956   1.321   7.166  1.7297 -1.0665 -1.9566
  159SAPE   C2317774   4.456   1.530   6.983  0.2277  0.3108 -0.6009
  159SAPE   H3R17775   4.450   1.639   6.964  0.6189  0.7053  1.3746
  159SAPE   H3S17776   4.554   1.500   7.025 -1.1302 -2.0185  1.1588
  159SAPE   C2417777   4.359   1.496   7.099  0.0855  0.1144  0.1670
  159SAPE   H4R17778   4.258   1.498   7.051  0.2164 -2.9754 -0.4206
  159SAPE   H4S17779   4.365   1.578   7.174  0.1884  0.0516  0.2268
  159SAPE   C2517780   4.377   1.348   7.146 -0.7330 -0.2664 -0.9662
  159SAPE   H5R17781   4.326   1.273   7.083 -3.9431  1.7081 -0.9212
  159SAPE   C2617782   4.449   1.317   7.256 -0.8184  0.6443 -0.5987
  159SAPE   H6R17783   4.447   1.214   7.295 -0.5198  1.1968  0.9685
  159SAPE   C2717784   4.533   1.400   7.359  0.5759  0.1593  0.0221
  159SAPE   H7R17785   4.580   1.486   7.306  1.0889  0.4950  1.0082
  159SAPE   H7S17786   4.625   1.346   7.390  1.8916  2.5511  0.5717
  159SAPE   C2817787   4.455   1.453   7.476  0.4260 -0.1598 -0.0156
  159SAPE   H8R17788   4.359   1.501   7.451  1.3547  1.2609 -1.0154
  159SAPE   C2917789   4.497   1.444   7.603 -0.0659 -0.4755 -0.3964
  159SAPE   H9R17790   4.434   1.484   7.684  1.3008  2.4356 -0.6205
  159SAPE  C21017791   4.628   1.402   7.665 -0.6458 -0.4827  0.8269
  159SAPE  H10R17792   4.631   1.452   7.764 -0.7753  0.2048  0.4829
  159SAPE  H10S17793   4.711   1.447   7.607 -0.7382 -0.6940  0.5288
  159SAPE  C21117794   4.646   1.254   7.681  0.6114  1.0957  0.2661
  159SAPE  H11R17795   4.621   1.209   7.584  0.0213  0.1480  0.8424
  159SAPE  C21217796   4.676   1.177   7.794  0.5887 -0.0793 -0.2389
  159SAPE  H12R17797   4.699   1.070   7.784 -1.3458 -0.5631 -0.0120
  159SAPE  C21317798   4.709   1.233   7.937  0.5008 -0.4090 -0.3333
  159SAPE  H13R17799   4.661   1.167   8.012 -0.2038  1.1299  0.6096
  159SAPE  H13S17800   4.656   1.329   7.957  0.0892 -0.6847 -0.0917
  159SAPE  C21417801   4.854   1.256   7.979  0.0221  0.3710  0.9907
  159SAPE  H14R17802   4.912   1.312   7.903 -1.4451 -1.2989 -1.5260
  159SAPE  C21517803   4.919   1.200   8.079 -0.3914  0.0791 -0.2689
  159SAPE  H15R17804   5.023   1.235   8.091 -0.4747  0.0309  0.6429
  159SAPE  C21617805   4.877   1.098   8.184 -0.2824  0.6146  0.3062
  159SAPE  H16R17806   4.951   1.016   8.191  0.9440  1.6876  0.2939
  159SAPE  H16S17807   4.785   1.052   8.142  0.9204 -0.5462 -1.1807
  159SAPE  C21717808   4.866   1.161   8.324 -0.5607 -0.5638 -0.1842
  159SAPE  H17R17809   4.809   1.095   8.393  0.1266 -1.1943 -0.2024
  159SAPE  H17S17810   4.802   1.252   8.315  0.7068  0.9615  3.9189
  159SAPE  C21817811   4.991   1.216   8.390 -0.0353  0.5239 -0.7111
  159SAPE  H18R17812   5.019   1.306   8.330  4.1183 -0.1820 -0.1367
  159SAPE  H18S17813   5.075   1.143   8.388  1.9473  2.4880  2.2603
  159SAPE  C21917814   4.975   1.257   8.542 -0.2544 -0.4869  0.0823
  159SAPE  H19R17815   4.929   1.169   8.591 -1.4614  0.8060  1.3909
  159SAPE  H19S17816   4.908   1.345   8.540 -1.6469 -1.5282 -0.3352
  159SAPE  C22017817   5.098   1.294   8.621  0.6349  0.5195  0.5904
  159SAPE  H20R17818   5.148   1.200   8.653 -2.0586 -1.4114 -0.5518
  159SAPE  H20S17819   5.069   1.348   8.713 -1.6261 -1.9491  1.4542
  159SAPE  H20T17820   5.165   1.364   8.565 -0.3801 -0.1560 -1.5649
  159SAPE   C3317821   3.771   1.448   7.145  0.0531 -0.0365  0.9422
  159SAPE   H3X17822   3.704   1.375   7.095  1.5352  0.4222 -1.9752
  159SAPE   H3Y17823   3.732   1.542   7.100 -3.6904 -1.7628  0.2037
  159SAPE   C3417824   3.748   1.410   7.287  0.2291  0.1590 -0.7499
  159SAPE   H4X17825   3.786   1.306   7.296  1.5636  0.4040 -2.9031
  159SAPE   H4Y17826   3.641   1.407   7.317  0.8520 -0.5792  1.6040
  159SAPE   C3517827   3.827   1.491   7.396 -0.2503 -0.2495 -0.3983
  159SAPE   H5X17828   3.820   1.600   7.376  1.1354 -0.4181 -2.0002
  159SAPE   H5Y17829   3.934   1.468   7.377  0.2252  1.4099  0.1101
  159SAPE   C3617830   3.786   1.467   7.539 -0.0853  0.4931 -0.3055
  159SAPE   H6X17831   3.788   1.357   7.555 -1.3077  0.6368  1.0056
  159SAPE   H6Y17832   3.681   1.499   7.555  0.3950  0.6829  3.4062
  159SAPE   C3717833   3.865   1.524   7.657  0.2025  0.2113 -0.4435
  159SAPE   H7X17834   3.851   1.633   7.671 -1.4334  0.1000 -0.8842
  159SAPE   H7Y17835   3.967   1.484   7.642 -0.0824 -0.4540 -0.6537
  159SAPE   C3817836   3.840   1.457   7.791  0.0328  0.1594  1.0302
  159SAPE   H8X17837   3.916   1.495   7.863 -0.9654  2.9881  0.7272
  159SAPE   H8Y17838   3.855   1.347   7.790 -0.5008  0.0791 -0.7252
  159SAPE   C3917839   3.704   1.497   7.851  1.0384 -0.1160  0.6719
  159SAPE   H9X17840   3.626   1.455   7.784  0.7938  0.6516  0.4631
  159SAPE   H9Y17841   3.700   1.608   7.848  2.1117 -0.0807 -0.1446
  159SAPE  C31017842   3.689   1.453   7.997  0.5718  0.2595  0.4018
  159SAPE  H10X17843   3.740   1.356   8.017  0.2552  0.1555  0.7107
  159SAPE  H10Y17844   3.582   1.443   8.025  0.7068  1.2393  1.3237
  159SAPE  C31117845   3.747   1.554   8.101 -0.9068 -0.3847 -0.8271
  159SAPE  H11X17846   3.694   1.520   8.193 -0.7105  0.6368 -0.3157
  159SAPE  H11Y17847   3.708   1.658   8.089  0.0200  0.0521 -0.1976
  159SAPE  C31217848   3.899   1.555   8.127 -0.7341 -0.1429 -1.2175
  159SAPE  H12X17849   3.949   1.617   8.050 -0.1743  0.3693 -0.4567
  159SAPE  H12Y17850   3.928   1.448   8.120 -0.3490 -0.0643 -0.8523
  159SAPE  C31317851   3.938   1.588   8.271  0.2898 -0.5154 -0.1130
  159SAPE  H13X17852   3.872   1.522   8.331 -0.9475  0.7960  0.0113
  159SAPE  H13Y17853   3.913   1.692   8.299 -0.9892 -1.0651  0.8457
  159SAPE  C31417854   4.085   1.567   8.296 -0.4807 -0.0385 -0.0864
  159SAPE  H14X17855   4.139   1.627   8.219 -2.4089  2.5189  0.4198
  159SAPE  H14Y17856   4.099   1.458   8.280 -3.5365 -0.3344 -1.4140
  159SAPE  C31517857   4.133   1.595   8.445 -0.0579  0.7755 -0.4995
  159SAPE  H15X17858   4.234   1.554   8.468 -0.2957 -0.4058 -1.5073
  159SAPE  H15Y17859   4.062   1.535   8.505  0.6470  1.2431  0.8530
  159SAPE  C31617860   4.132   1.746   8.487  0.4834 -0.1027  0.3667
  159SAPE  H16X17861   4.056   1.804   8.430 -0.9851 -1.9363  0.3895
  159SAPE  H16Y17862   4.237   1.777   8.464  0.4347  0.8913  1.3716
  159SAPE  C31717863   4.089   1.781   8.633 -0.2932 -0.1190  0.1717
  159SAPE  H17X17864   4.139   1.708   8.700 -1.4962  0.7947  2.1494
  159SAPE  H17Y17865   3.981   1.760   8.650  0.2507 -1.3549  2.3934
  159SAPE  C31817866   4.119   1.924   8.672  0.2290 -0.0830  0.4218
  159SAPE  H18X17867   4.123   1.933   8.783  2.8926  0.8525  0.3086
  159SAPE  H18Y17868   4.048   1.994   8.622  1.9578  0.6196 -1.1599
  159SAPE  H18Z17869   4.220   1.955   8.638 -0.7374 -0.7156 -3.5241
  160SAPE     N17870   3.145   2.216   6.786  0.6118 -0.2511  0.0840
  160SAPE   HN117871   3.220   2.190   6.854 -0.7228 -0.5432  1.5231
  160SAPE   HN217872   3.132   2.130   6.729  1.1038  0.8040 -1.6628
  160SAPE   HN317873   3.185   2.295   6.732  0.5572  0.9437  1.7198
  160SAPE   C1217874   3.021   2.257   6.856 -0.2897 -0.4198 -0.3271
  160SAPE  H12A17875   3.039   2.362   6.888 -1.2984  0.1958 -1.7040
  160SAPE  H12B17876   3.012   2.196   6.948  1.1646  0.6988  0.6064
  160SAPE   C1117877   2.913   2.251   6.753  0.0754  0.4125  0.7048
  160SAPE  H11A17878   2.823   2.272   6.815 -1.0056  0.6621 -0.8747
  160SAPE  H11B17879   2.901   2.151   6.707  0.8380  0.3178  0.6949
  160SAPE     P17880   2.819   2.443   6.608  0.1023 -0.0920 -0.1167
  160SAPE   O1317881   2.877   2.543   6.508  1.1096  0.3750  0.0348
  160SAPE   O1417882   2.725   2.349   6.545 -0.7603  0.4622 -0.6857
  160SAPE   O1217883   2.934   2.352   6.653  0.0348 -0.3131  0.4650
  160SAPE   O1117884   2.759   2.511   6.740 -0.1712  0.4996 -0.5387
  160SAPE    C117885   2.845   2.588   6.825  0.2206  0.1457 -0.3550
  160SAPE    HA17886   2.952   2.558   6.823  0.4172  0.8704 -1.5930
  160SAPE    HB17887   2.842   2.696   6.802  2.4216  0.2796 -0.2146
  160SAPE    C217888   2.795   2.585   6.977  0.1873 -0.3705 -0.0551
  160SAPE    HS17889   2.866   2.647   7.037 -1.9551 -0.4111  2.7705
  160SAPE   O2117890   2.798   2.450   7.018  0.5269  0.1233  0.0731
  160SAPE   C2117891   2.812   2.423   7.147 -0.0651 -0.7493  0.2666
  160SAPE   O2217892   2.841   2.502   7.236 -0.3388 -0.2334 -0.1746
  160SAPE   C2217893   2.805   2.269   7.176 -0.0139  0.3755 -0.2045
  160SAPE   H2R17894   2.852   2.216   7.090  0.8220 -0.6003  0.8336
  160SAPE   H2S17895   2.872   2.242   7.259  0.6611  2.1502 -0.1293
  160SAPE    C317896   2.649   2.643   6.983 -0.3793 -0.4068  0.1197
  160SAPE    HX17897   2.585   2.589   6.909 -0.6966  1.9534 -1.4489
  160SAPE    HY17898   2.654   2.744   6.938 -1.0492 -0.0230  0.8791
  160SAPE   O3117899   2.596   2.639   7.114  0.4281 -0.3436  0.2490
  160SAPE   C3117900   2.597   2.753   7.181 -0.0793  0.1842  0.3060
  160SAPE   O3217901   2.648   2.854   7.138  0.5259 -0.2755 -0.2218
  160SAPE   C3217902   2.524   2.741   7.308 -0.3647 -0.6243  0.4667
  160SAPE   H2X17903   2.558   2.658   7.373 -0.6038 -0.5498  0.6917
  160SAPE   H2Y17904   2.420   2.716   7.280 -0.4023  0.1508 -0.1207
  160SAPE   C2317905   2.657   2.225   7.201 -0.6140 -1.1443  0.2145
  160SAPE   H3R17906   2.604   2.256   7.108  1.7777 -0.0449 -0.8803
  160SAPE   H3S17907   2.620   2.282   7.289  1.9826  0.9840  0.0827
  160SAPE   C2417908   2.649   2.074   7.217 -0.2201 -0.1413  1.0823
  160SAPE   H4R17909   2.720   2.051   7.300  2.3876 -1.3054 -1.3031
  160SAPE   H4S17910   2.700   2.025   7.131 -0.1038  1.5010  0.1665
  160SAPE   C2517911   2.517   2.028   7.259  0.2386 -0.0255  0.4774
  160SAPE   H5R17912   2.460   1.982   7.176  3.5085 -0.2559 -1.8419
  160SAPE   C2617913   2.472   2.038   7.386  0.5082 -0.7081  0.5118
  160SAPE   H6R17914   2.368   2.008   7.405  0.6156 -0.7652  1.0338
  160SAPE   C2717915   2.530   2.102   7.513 -0.2919 -0.5430  0.9886
  160SAPE   H7R17916   2.442   2.142   7.568  1.4112  3.1517  1.3362
  160SAPE   H7S17917   2.587   2.188   7.472 -0.8320 -0.7886 -0.3221
  160SAPE   C2817918   2.622   2.016   7.591  0.0213 -0.1382 -0.4754
  160SAPE   H8R17919   2.697   1.967   7.527 -0.1781 -1.1810  0.0627
  160SAPE   C2917920   2.636   2.001   7.725  0.0291 -0.2828 -0.1031
  160SAPE   H9R17921   2.715   1.935   7.765  0.5209  0.2824 -0.1229
  160SAPE  C21017922   2.561   2.082   7.828  0.1327 -0.7863 -0.3163
  160SAPE  H10R17923   2.521   2.002   7.893  0.5444 -2.0501 -1.5672
  160SAPE  H10S17924   2.477   2.136   7.780  0.1940  0.1982  0.6436
  160SAPE  C21117925   2.649   2.180   7.896 -0.2736  0.1419  0.3836
  160SAPE  H11R17926   2.686   2.267   7.840 -3.6236  2.4953  1.5157
  160SAPE  C21217927   2.672   2.188   8.025  0.3431  0.0002 -0.9132
  160SAPE  H12R17928   2.724   2.279   8.059 -0.6477  1.0567 -2.1416
  160SAPE  C21317929   2.615   2.085   8.129  0.3898  0.3133  0.0968
  160SAPE  H13R17930   2.681   2.079   8.218 -0.1718 -0.8368  0.4556
  160SAPE  H13S17931   2.597   1.981   8.095  1.5161  0.8018 -2.2081
  160SAPE  C21417932   2.480   2.125   8.173  0.2247 -0.3319 -0.4289
  160SAPE  H14R17933   2.420   2.154   8.086 -0.4220  0.3966  0.2461
  160SAPE  C21517934   2.419   2.120   8.295 -0.1875 -0.5834  0.4165
  160SAPE  H15R17935   2.314   2.153   8.294 -0.9026 -2.6700 -1.5680
  160SAPE  C21617936   2.492   2.071   8.420 -0.2002 -0.2707  0.9207
  160SAPE  H16R17937   2.584   2.012   8.403  0.2836  0.5162  0.7428
  160SAPE  H16S17938   2.425   2.013   8.487 -0.5361 -1.2843 -0.2450
  160SAPE  C21717939   2.519   2.203   8.497  0.2445 -0.7489 -0.8458
  160SAPE  H17R17940   2.420   2.249   8.517  0.9708 -0.0526  1.5296
  160SAPE  H17S17941   2.582   2.273   8.438  1.3105  1.2614  2.3726
  160SAPE  C21817942   2.590   2.196   8.634 -0.4134 -0.2654 -0.0333
  160SAPE  H18R17943   2.693   2.158   8.618  0.1166  1.8246 -2.2741
  160SAPE  H18S17944   2.540   2.134   8.712 -1.0648  1.0636  0.6510
  160SAPE  C21917945   2.609   2.341   8.674  0.4567 -0.3180 -0.2481
  160SAPE  H19R17946   2.506   2.359   8.712  0.5489 -1.1868  0.4597
  160SAPE  H19S17947   2.620   2.406   8.585 -0.9983  1.3646  0.7552
  160SAPE  C22017948   2.711   2.355   8.789  0.2609  0.9749  0.8925
  160SAPE  H20R17949   2.686   2.301   8.883 -0.5751  1.5238  0.9988
  160SAPE  H20S17950   2.710   2.463   8.814 -0.1474  1.2202 -0.1142
  160SAPE  H20T17951   2.814   2.321   8.763  0.2346  2.6215 -1.8182
  160SAPE   C3317952   2.529   2.877   7.395 -0.3243  0.0281  0.5631
  160SAPE   H3X17953   2.484   2.947   7.322 -0.1236 -1.7938 -1.4193
  160SAPE   H3Y17954   2.631   2.920   7.408  0.8648 -1.8427 -1.7870
  160SAPE   C3417955   2.442   2.861   7.517  0.7138  0.0557  0.1401
  160SAPE   H4X17956   2.503   2.785   7.569 -1.0541 -0.8202  1.0429
  160SAPE   H4Y17957   2.346   2.817   7.482 -0.2832  0.3707  2.2594
  160SAPE   C3517958   2.414   2.979   7.614  0.1976 -0.1260  0.2826
  160SAPE   H5X17959   2.333   3.039   7.567 -0.4009 -1.8079 -0.9442
  160SAPE   H5Y17960   2.505   3.042   7.621 -1.2308  2.0187  0.3835
  160SAPE   C3617961   2.372   2.934   7.757 -0.0786  0.2271 -0.0711
  160SAPE   H6X17962   2.440   2.847   7.771  0.8871  1.1730  1.2756
  160SAPE   H6Y17963   2.262   2.918   7.760 -0.2074  1.1890  0.9017
  160SAPE   C3717964   2.412   3.034   7.858 -0.8044 -0.5233 -0.8404
  160SAPE   H7X17965   2.331   3.110   7.855  0.0319  0.3766 -1.5187
  160SAPE   H7Y17966   2.502   3.089   7.822  0.9308 -1.3576  1.9656
  160SAPE   C3817967   2.421   2.986   8.002 -0.2498 -0.0834 -0.3264
  160SAPE   H8X17968   2.497   2.906   8.008 -0.8882 -0.8922 -2.3832
  160SAPE   H8Y17969   2.324   2.935   8.023  0.9142 -1.6402  1.6444
  160SAPE   C3917970   2.443   3.103   8.108 -0.9856  0.4408  0.0791
  160SAPE   H9X17971   2.354   3.168   8.104  0.8100  3.0881  0.6145
  160SAPE   H9Y17972   2.529   3.169   8.084 -0.3205  0.5679  2.4575
  160SAPE  C31017973   2.458   3.053   8.253 -0.0908 -0.2786  0.1211
  160SAPE  H10X17974   2.373   2.986   8.281  1.5354 -2.3839  0.2649
  160SAPE  H10Y17975   2.443   3.137   8.324 -0.2900  0.2135 -0.4874
  160SAPE  C31117976   2.593   2.983   8.272 -0.1280 -0.4783  0.6210
  160SAPE  H11X17977   2.666   3.049   8.222 -0.9111  1.9548  2.5348
  160SAPE  H11Y17978   2.606   2.885   8.220  0.9744 -0.0945  0.1505
  160SAPE  C31217979   2.637   2.970   8.416 -0.0681  0.8440  0.6593
  160SAPE  H12X17980   2.570   2.900   8.470 -2.2385  0.2100 -2.5585
  160SAPE  H12Y17981   2.639   3.069   8.466 -2.2898  0.9776  0.5979
  160SAPE  C31317982   2.775   2.910   8.421  0.0715 -0.3941 -0.3635
  160SAPE  H13X17983   2.809   2.915   8.526 -0.6829 -2.2561  0.0015
  160SAPE  H13Y17984   2.839   2.979   8.362  1.0304 -1.1544 -0.2338
  160SAPE  C31417985   2.804   2.764   8.372 -0.1008 -0.7450 -0.2481
  160SAPE  H14X17986   2.881   2.755   8.293 -0.4822 -0.6507 -0.6336
  160SAPE  H14Y17987   2.709   2.727   8.327  0.5551 -0.5564 -1.8349
  160SAPE  C31517988   2.847   2.675   8.482 -0.2511  0.0805  0.8456
  160SAPE  H15X17989   2.756   2.638   8.535 -0.0500 -2.7147 -0.6054
  160SAPE  H15Y17990   2.924   2.722   8.547  1.0441  1.2850 -1.4561
  160SAPE  C31617991   2.913   2.543   8.438 -0.4910 -1.0945 -0.5030
  160SAPE  H16X17992   2.954   2.494   8.529 -3.0402 -1.1550  0.6974
  160SAPE  H16Y17993   3.002   2.571   8.378  0.1023  0.3216  0.9520
  160SAPE  C31717994   2.818   2.454   8.361  0.5934 -0.0727  0.3441
  160SAPE  H17X17995   2.803   2.502   8.262  0.6757 -0.8492 -0.0489
  160SAPE  H17Y17996   2.720   2.447   8.414 -0.9298  2.5109 -1.8729
  160SAPE  C31817997   2.882   2.316   8.337 -0.1874 -0.2319 -0.0634
  160SAPE  H18X17998   2.959   2.332   8.258 -2.4066  1.8712 -1.9477
  160SAPE  H18Y17999   2.806   2.242   8.306 -0.0215 -0.3083 -0.2946
  160SAPE  H18Z18000   2.928   2.274   8.429  0.4978  1.6216  0.4757
  161SAPE     N18001   5.027   1.132   6.537 -0.3502 -0.0636 -0.3375
  161SAPE   HN118002   5.001   1.191   6.618  0.1654  0.6758 -0.6953
  161SAPE   HN218003   5.097   1.191   6.487  1.6096 -1.3584  0.7314
  161SAPE   HN318004   4.940   1.113   6.484  0.1510 -1.1344 -0.8258
  161SAPE   C1218005   5.088   0.997   6.578 -0.5177  0.7595  0.2713
  161SAPE  H12A18006   5.012   0.949   6.643 -1.0323 -0.2059 -1.0028
  161SAPE  H12B18007   5.175   1.031   6.639  1.7188  0.5714 -2.6071
  161SAPE   C1118008   5.136   0.902   6.464 -0.3525  0.4633 -0.0940
  161SAPE  H11A18009   5.047   0.873   6.405  0.2800 -0.5374 -0.5759
  161SAPE  H11B18010   5.187   0.814   6.510  3.2661  2.7227  0.6039
  161SAPE     P18011   5.383   0.949   6.406  0.0527 -0.5973  0.2705
  161SAPE   O1318012   5.431   0.818   6.349  0.1179 -0.4178 -0.3495
  161SAPE   O1418013   5.457   1.073   6.373 -0.2735  0.3848  0.2534
  161SAPE   O1218014   5.226   0.963   6.375 -0.3745  0.4809  0.1941
  161SAPE   O1118015   5.389   0.948   6.566  0.1119  0.4770  0.3678
  161SAPE    C118016   5.488   0.871   6.637  0.0622  0.5620 -0.3540
  161SAPE    HA18017   5.583   0.854   6.582 -0.1478 -1.8584 -0.1168
  161SAPE    HB18018   5.517   0.924   6.729  0.5538  1.1851 -0.8614
  161SAPE    C218019   5.432   0.728   6.670  0.1215 -0.2530  0.5597
  161SAPE    HS18020   5.417   0.686   6.568  1.1276  1.0657 -0.1605
  161SAPE   O2118021   5.305   0.745   6.737 -0.2063 -0.2887 -0.1761
  161SAPE   C2118022   5.233   0.631   6.744 -0.1961  0.4569  0.5121
  161SAPE   O2218023   5.249   0.528   6.682  0.2906  0.2007 -0.1393
  161SAPE   C2218024   5.116   0.652   6.837 -0.1814 -0.3958  0.0035
  161SAPE   H2R18025   5.072   0.747   6.802  0.9933 -0.0920 -0.7007
  161SAPE   H2S18026   5.051   0.564   6.817 -1.6509  0.9220 -1.2941
  161SAPE    C318027   5.540   0.645   6.749  0.4632  0.2655 -0.5629
  161SAPE    HX18028   5.646   0.671   6.724  1.7861 -2.0823  2.0373
  161SAPE    HY18029   5.531   0.537   6.725 -0.3690 -0.0369  0.9719
  161SAPE   O3118030   5.552   0.669   6.896  0.6572  0.5732 -0.4978
  161SAPE   C3118031   5.521   0.566   6.973 -0.2025  0.3123  0.9119
  161SAPE   O3218032   5.484   0.455   6.937  0.6392 -0.2868 -0.0679
  161SAPE   C3218033   5.543   0.613   7.116 -0.3555 -0.2279 -0.2745
  161SAPE   H2X18034   5.520   0.722   7.125 -1.7746 -0.5499  0.1309
  161SAPE   H2Y18035   5.652   0.608   7.141 -0.2589  1.9975 -0.0468
  161SAPE   C2318036   5.159   0.655   6.986  0.4774  0.4562  0.9497
  161SAPE   H3R18037   5.235   0.577   7.007 -0.0162 -0.7888 -1.5402
  161SAPE   H3S18038   5.066   0.630   7.041  0.9365 -1.2990  0.9731
  161SAPE   C2418039   5.227   0.788   7.025  0.2224 -0.5345 -0.5323
  161SAPE   H4R18040   5.311   0.816   6.958 -0.5668  1.4845 -0.7332
  161SAPE   H4S18041   5.260   0.776   7.131  4.3323  2.0774 -1.2799
  161SAPE   C2518042   5.123   0.900   7.020  0.7404  0.5489  0.2547
  161SAPE   H5R18043   5.101   0.937   6.919  0.5319  2.8951  1.0949
  161SAPE   C2618044   5.060   0.954   7.127 -0.4564 -0.2089  0.4404
  161SAPE   H6R18045   4.978   1.025   7.110 -1.2770 -0.5311  2.6462
  161SAPE   C2718046   5.080   0.908   7.274 -0.5343 -0.0455 -0.3997
  161SAPE   H7R18047   5.149   0.982   7.321  0.4146 -1.0024 -0.2592
  161SAPE   H7S18048   5.129   0.809   7.274  2.3642  1.2633 -1.1727
  161SAPE   C2818049   4.956   0.900   7.358  0.8592  0.5693  0.0573
  161SAPE   H8R18050   4.897   0.812   7.329  0.9829  0.2890  0.6432
  161SAPE   C2918051   4.908   0.992   7.449  0.1039 -0.5612 -0.0768
  161SAPE   H9R18052   4.808   0.979   7.493 -0.5184  0.6741 -1.0508
  161SAPE  C21018053   4.973   1.120   7.500 -0.3095  0.5231 -0.2304
  161SAPE  H10R18054   4.905   1.208   7.494  0.6067  1.2765  0.0823
  161SAPE  H10S18055   5.062   1.147   7.441 -0.5036  0.2256 -0.6617
  161SAPE  C21118056   5.004   1.109   7.644  0.9734  0.5403 -0.1883
  161SAPE  H11R18057   4.940   1.050   7.711  2.3541 -0.8671 -0.0476
  161SAPE  C21218058   5.106   1.159   7.714  0.2020 -0.3009  0.4706
  161SAPE  H12R18059   5.125   1.134   7.820  1.2369 -1.2319  0.0840
  161SAPE  C21318060   5.228   1.234   7.649  0.0372  0.0842 -0.2129
  161SAPE  H13R18061   5.280   1.294   7.727  1.7014  0.1327 -1.3139
  161SAPE  H13S18062   5.182   1.308   7.579  0.6742 -1.8816 -2.8648
  161SAPE  C21418063   5.337   1.151   7.582 -0.4858 -0.3475  1.4096
  161SAPE  H14R18064   5.316   1.136   7.475  0.8092 -2.4896  1.3992
  161SAPE  C21518065   5.428   1.067   7.631 -0.2547 -0.1227  0.9948
  161SAPE  H15R18066   5.489   1.024   7.550 -0.2888  1.5909  0.0067
  161SAPE  C21618067   5.458   1.016   7.762 -0.2285 -0.1423  0.5746
  161SAPE  H16R18068   5.482   0.908   7.749 -2.0980 -0.9609  3.1884
  161SAPE  H16S18069   5.367   1.024   7.824  0.8192 -0.7271  2.2604
  161SAPE  C21718070   5.580   1.074   7.838 -0.3077 -0.4817 -0.6294
  161SAPE  H17R18071   5.565   1.184   7.849 -0.1610 -0.5473  0.2876
  161SAPE  H17S18072   5.674   1.050   7.785  1.2973  2.6402  0.5170
  161SAPE  C21818073   5.598   1.008   7.976 -0.2687  0.1617  0.3146
  161SAPE  H18R18074   5.590   0.898   7.962  0.0087  0.0387  1.0682
  161SAPE  H18S18075   5.509   1.030   8.039  0.6129 -0.5893  1.8817
  161SAPE  C21918076   5.728   1.067   8.049  0.4192 -0.2509 -0.1234
  161SAPE  H19R18077   5.686   1.164   8.082 -2.8143 -1.4894 -0.2136
  161SAPE  H19S18078   5.817   1.078   7.984 -0.4764 -2.3872 -1.8357
  161SAPE  C22018079   5.762   1.000   8.187 -0.4219 -0.7754  0.0805
  161SAPE  H20R18080   5.821   1.077   8.241 -2.1106  0.5666  0.0970
  161SAPE  H20S18081   5.825   0.909   8.181 -0.2153 -0.8767  2.7368
  161SAPE  H20T18082   5.675   0.960   8.242 -1.6013  0.3479 -0.9030
  161SAPE   C3318083   5.463   0.535   7.227 -0.3826  0.9007  0.0918
  161SAPE   H3X18084   5.511   0.435   7.223  1.6966  1.8800 -1.6562
  161SAPE   H3Y18085   5.356   0.516   7.202 -0.2340 -0.1174  0.1726
  161SAPE   C3418086   5.474   0.577   7.376  0.6675  0.8393  0.0199
  161SAPE   H4X18087   5.565   0.640   7.380  0.7142  0.7437  0.4493
  161SAPE   H4Y18088   5.479   0.492   7.447  1.6022  2.2364  1.6867
  161SAPE   C3518089   5.353   0.658   7.424  0.0323  0.2322 -0.1622
  161SAPE   H5X18090   5.265   0.598   7.391  1.4448 -1.2854 -1.3627
  161SAPE   H5Y18091   5.349   0.760   7.380  0.2887  0.5983  0.6506
  161SAPE   C3618092   5.348   0.677   7.578 -0.2940  0.0254 -0.6164
  161SAPE   H6X18093   5.435   0.741   7.603 -0.1288 -0.7944  1.0279
  161SAPE   H6Y18094   5.358   0.573   7.615 -0.9706 -1.0029 -3.0718
  161SAPE   C3718095   5.215   0.722   7.637  0.0093  0.2341  0.3159
  161SAPE   H7X18096   5.139   0.656   7.591  0.8891 -0.1164 -0.6747
  161SAPE   H7Y18097   5.200   0.823   7.594 -0.3283  0.4344  0.8924
  161SAPE   C3818098   5.219   0.731   7.794  0.7722 -0.2043 -0.1444
  161SAPE   H8X18099   5.324   0.751   7.825  0.8554  0.8239 -1.0118
  161SAPE   H8Y18100   5.204   0.627   7.829  0.9025 -0.1283  0.1388
  161SAPE   C3918101   5.118   0.831   7.853 -0.1095  0.2947 -0.7550
  161SAPE   H9X18102   5.018   0.816   7.808  0.2314 -0.3638 -1.3247
  161SAPE   H9Y18103   5.161   0.930   7.828 -0.5784  1.0922  1.3955
  161SAPE  C31018104   5.107   0.817   8.006  0.6791  0.5726 -0.0263
  161SAPE  H10X18105   5.106   0.710   8.038  2.4314  0.7584  0.7679
  161SAPE  H10Y18106   5.016   0.871   8.039  1.2644  1.1008  0.7442
  161SAPE  C31118107   5.234   0.858   8.084  0.5735 -0.4185 -0.0609
  161SAPE  H11X18108   5.286   0.948   8.045 -0.4462  0.2496  0.0793
  161SAPE  H11Y18109   5.309   0.776   8.084  1.9564  0.8189 -0.3955
  161SAPE  C31218110   5.213   0.902   8.230 -0.9845  0.5525 -0.7873
  161SAPE  H12X18111   5.159   0.816   8.276  0.0422 -0.4392 -1.3899
  161SAPE  H12Y18112   5.153   0.993   8.249 -0.2149  0.8377  0.3810
  161SAPE  C31318113   5.348   0.906   8.307 -0.8366 -0.2287 -0.5731
  161SAPE  H13X18114   5.421   0.978   8.263 -0.6774  0.0947  0.2042
  161SAPE  H13Y18115   5.402   0.809   8.304 -0.8352 -0.3071  1.0343
  161SAPE  C31418116   5.346   0.952   8.451  0.1663 -0.2212 -0.5333
  161SAPE  H14X18117   5.317   1.059   8.453  2.1621  0.3538  1.1197
  161SAPE  H14Y18118   5.444   0.959   8.503  0.5652  1.9227 -1.4637
  161SAPE  C31518119   5.248   0.875   8.534 -0.0479  0.2317  0.0784
  161SAPE  H15X18120   5.145   0.909   8.509  0.3570  2.0378  0.7271
  161SAPE  H15Y18121   5.254   0.916   8.637  0.8153  1.0692 -0.2886
  161SAPE  C31618122   5.262   0.723   8.526 -0.0548 -0.2416  0.3055
  161SAPE  H16X18123   5.368   0.696   8.548  0.7652  0.0449 -2.8158
  161SAPE  H16Y18124   5.244   0.689   8.422  1.2135  0.7869 -0.2823
  161SAPE  C31718125   5.172   0.648   8.628  0.6163 -0.2129  0.1241
  161SAPE  H17X18126   5.066   0.676   8.610  1.3093  1.5658 -1.4523
  161SAPE  H17Y18127   5.199   0.675   8.733  1.8521  0.9392 -0.4755
  161SAPE  C31818128   5.182   0.497   8.631  0.5018 -0.2286 -1.0123
  161SAPE  H18X18129   5.138   0.462   8.726  0.3087 -1.2023 -1.4565
  161SAPE  H18Y18130   5.290   0.470   8.634  1.5462  3.4321  1.0528
  161SAPE  H18Z18131   5.132   0.453   8.543 -3.1784  1.6677 -0.0490
  162SAPE     N18132   2.878   3.997   5.807 -0.0684  0.2571  0.0302
  162SAPE   HN118133   2.940   3.930   5.856  0.2417  1.3694  1.1896
  162SAPE   HN218134   2.778   3.993   5.834 -0.5578  1.7850 -1.3717
  162SAPE   HN318135   2.878   3.970   5.706 -2.9234 -0.9320  0.2346
  162SAPE   C1218136   2.924   4.141   5.821 -0.5807  0.3052  0.2592
  162SAPE  H12A18137   2.879   4.201   5.739  1.7514 -0.6791 -1.9158
  162SAPE  H12B18138   3.033   4.140   5.796 -0.6464  0.0191 -0.0275
  162SAPE   C1118139   2.903   4.202   5.957 -0.2527 -0.7703 -0.6734
  162SAPE  H11A18140   2.973   4.286   5.976 -0.2465 -1.1713  1.3531
  162SAPE  H11B18141   2.921   4.127   6.036  0.5102  1.0624  0.9720
  162SAPE     P18142   2.706   4.342   6.073 -0.2456 -0.2334  0.3513
  162SAPE   O1318143   2.759   4.477   6.062 -0.2780 -0.2185  0.6299
  162SAPE   O1418144   2.565   4.323   6.077  0.2600 -0.0684  0.1171
  162SAPE   O1218145   2.768   4.251   5.960 -0.4707  0.2072  0.0373
  162SAPE   O1118146   2.768   4.284   6.203 -0.1903 -0.1441 -0.4352
  162SAPE    C118147   2.715   4.171   6.279  0.1720  0.4315 -0.8393
  162SAPE    HA18148   2.621   4.131   6.236  0.3721 -2.0353  0.8668
  162SAPE    HB18149   2.790   4.090   6.285 -0.4763 -0.0538  1.3959
  162SAPE    C218150   2.685   4.206   6.426 -0.1485 -0.1531 -0.8555
  162SAPE    HS18151   2.613   4.290   6.415 -0.4969  0.1679  2.7067
  162SAPE   O2118152   2.805   4.258   6.496  0.0898  0.7370  0.1371
  162SAPE   C2118153   2.788   4.346   6.588  0.6485 -0.0119  0.2028
  162SAPE   O2218154   2.676   4.381   6.631 -0.1311  0.3937 -0.6686
  162SAPE   C2218155   2.928   4.386   6.624  0.0018 -0.6982 -0.3297
  162SAPE   H2R18156   2.995   4.302   6.653 -1.2052 -1.3859  0.5853
  162SAPE   H2S18157   2.975   4.425   6.531  0.3662  0.7305  0.4310
  162SAPE    C318158   2.618   4.100   6.511 -0.1016 -0.4915  0.0375
  162SAPE    HX18159   2.539   4.061   6.444  1.0350  0.7163 -2.1381
  162SAPE    HY18160   2.570   4.144   6.601 -0.5252  1.4737 -1.0918
  162SAPE   O3118161   2.720   4.005   6.553  0.0411  0.8264  0.1222
  162SAPE   C3118162   2.673   3.884   6.569 -0.0113  0.2214 -0.2873
  162SAPE   O3218163   2.558   3.850   6.557 -0.5258 -0.0846 -0.1375
  162SAPE   C3218164   2.785   3.790   6.613  0.0961 -0.8160 -0.1063
  162SAPE   H2X18165   2.873   3.794   6.545 -0.3001  1.8312 -0.6031
  162SAPE   H2Y18166   2.744   3.687   6.607  1.3680 -1.2579 -1.8973
  162SAPE   C2318167   2.916   4.498   6.732  0.0715 -0.0460  0.1644
  162SAPE   H3R18168   2.878   4.438   6.817  1.9941 -4.2487 -1.6736
  162SAPE   H3S18169   2.850   4.580   6.694  0.2596 -0.1884 -0.4752
  162SAPE   C2418170   3.046   4.577   6.765  0.4123  0.5418  0.3752
  162SAPE   H4R18171   3.033   4.635   6.859 -1.1468  0.5150  0.2062
  162SAPE   H4S18172   3.060   4.637   6.673 -1.3980 -0.2457 -0.4540
  162SAPE   C2518173   3.161   4.480   6.781 -0.1559  0.0249  0.2249
  162SAPE   H5R18174   3.187   4.418   6.693 -0.3540  1.8863 -1.2067
  162SAPE   C2618175   3.234   4.460   6.894  0.1156  0.5283 -0.0005
  162SAPE   H6R18176   3.297   4.370   6.895 -0.3554  0.1979 -0.1395
  162SAPE   C2718177   3.215   4.526   7.030  0.3129 -0.1341  0.1075
  162SAPE   H7R18178   3.201   4.636   7.016  0.5369  0.1762  2.0192
  162SAPE   H7S18179   3.312   4.514   7.084  0.2592  0.2208  0.2881
  162SAPE   C2818180   3.102   4.470   7.111  0.3646  0.2436 -0.4387
  162SAPE   H8R18181   3.006   4.446   7.061  0.3339 -2.7539  0.8652
  162SAPE   C2918182   3.109   4.435   7.241  0.3640 -0.3013 -0.0087
  162SAPE   H9R18183   3.018   4.394   7.288 -0.8741  0.6472 -1.4970
  162SAPE  C21018184   3.226   4.446   7.335  0.1063  1.1621  0.3672
  162SAPE  H10R18185   3.308   4.499   7.281  0.9654  1.1263  1.6033
  162SAPE  H10S18186   3.261   4.342   7.348 -0.5129  0.7012 -1.3076
  162SAPE  C21118187   3.209   4.507   7.470  0.0589 -0.9112  0.1544
  162SAPE  H11R18188   3.119   4.568   7.488 -0.0177 -1.7839  3.3965
  162SAPE  C21218189   3.290   4.497   7.571 -0.0634  0.8574 -0.6826
  162SAPE  H12R18190   3.265   4.554   7.661 -1.6046  1.3950 -1.4290
  162SAPE  C21318191   3.424   4.420   7.573  0.2923  0.9809 -0.1096
  162SAPE  H13R18192   3.423   4.325   7.515  0.1921  0.7224  0.3115
  162SAPE  H13S18193   3.440   4.390   7.679  1.4131 -1.8206 -0.9834
  162SAPE  C21418194   3.541   4.503   7.522 -0.2593  0.7473 -0.4333
  162SAPE  H14R18195   3.524   4.567   7.434 -0.5717  2.0979  0.5868
  162SAPE  C21518196   3.667   4.500   7.561  0.4274 -0.3759 -0.5077
  162SAPE  H15R18197   3.736   4.566   7.506  0.2619  0.8933  0.7448
  162SAPE  C21618198   3.722   4.425   7.674  0.0644 -0.0536 -0.3922
  162SAPE  H16R18199   3.809   4.368   7.634 -1.0667 -0.7480 -1.9770
  162SAPE  H16S18200   3.652   4.346   7.706 -2.2115  2.2239  0.5431
  162SAPE  C21718201   3.762   4.513   7.791 -0.5228 -0.3139  0.6915
  162SAPE  H17R18202   3.672   4.573   7.817  0.4137  1.5185 -0.1397
  162SAPE  H17S18203   3.845   4.585   7.782 -1.9311  1.4447  1.1852
  162SAPE  C21818204   3.791   4.418   7.908 -0.4268 -0.0291  0.0634
  162SAPE  H18R18205   3.890   4.383   7.870 -1.4110 -0.4455 -2.2554
  162SAPE  H18S18206   3.716   4.337   7.917 -0.1402 -0.5894 -2.1362
  162SAPE  C21918207   3.803   4.499   8.038 -0.0572 -0.3981 -0.1527
  162SAPE  H19R18208   3.702   4.527   8.073 -0.1925 -0.0644 -0.7844
  162SAPE  H19S18209   3.853   4.597   8.022 -1.0397 -0.1012 -1.6167
  162SAPE  C22018210   3.893   4.427   8.138 -0.3006  0.6971 -0.3673
  162SAPE  H20R18211   3.909   4.491   8.227  1.1817 -0.2666  0.1015
  162SAPE  H20S18212   3.995   4.422   8.094  0.2359  1.0849  0.8048
  162SAPE  H20T18213   3.855   4.324   8.160 -1.9133  1.9486  3.6197
  162SAPE   C3318214   2.819   3.814   6.754 -0.2592 -0.0834  0.1500
  162SAPE   H3X18215   2.860   3.917   6.767  1.7264 -0.5644 -1.8030
  162SAPE   H3Y18216   2.908   3.752   6.772  0.0569 -0.2710 -1.9069
  162SAPE   C3418217   2.716   3.764   6.854  0.4130  0.3560  0.4251
  162SAPE   H4X18218   2.668   3.667   6.828  1.5472  0.0481 -0.6124
  162SAPE   H4Y18219   2.640   3.844   6.870  0.7884  0.7418  0.2832
  162SAPE   C3518220   2.780   3.731   6.988  0.2333 -0.4954 -0.2368
  162SAPE   H5X18221   2.856   3.810   7.001 -0.0847  0.1335 -1.9991
  162SAPE   H5Y18222   2.835   3.634   6.987  0.7330 -0.2885  2.0118
  162SAPE   C3618223   2.685   3.718   7.107  0.4946 -0.2558 -0.1322
  162SAPE   H6X18224   2.602   3.654   7.070  0.6477 -1.0927  0.9206
  162SAPE   H6Y18225   2.644   3.821   7.120  0.4564 -0.2556 -0.2487
  162SAPE   C3718226   2.736   3.654   7.236  0.3114 -0.5629  0.1713
  162SAPE   H7X18227   2.779   3.559   7.196 -1.3559 -0.6675 -1.4931
  162SAPE   H7Y18228   2.649   3.622   7.296 -0.0642 -1.1426 -0.6628
  162SAPE   C3818229   2.833   3.744   7.314  0.9987  0.0919 -0.1092
  162SAPE   H8X18230   2.782   3.836   7.350 -0.5158 -0.8617  0.2447
  162SAPE   H8Y18231   2.917   3.772   7.247 -0.0760 -0.3633 -1.7100
  162SAPE   C3918232   2.884   3.688   7.452  0.2476  0.6262  0.5691
  162SAPE   H9X18233   2.964   3.751   7.497  0.7917 -0.1530  0.7147
  162SAPE   H9Y18234   2.926   3.586   7.437 -2.3865 -0.6669  1.5005
  162SAPE  C31018235   2.772   3.670   7.561 -0.2006  0.4846 -0.2559
  162SAPE  H10X18236   2.707   3.586   7.528 -0.7792  0.0968  1.7279
  162SAPE  H10Y18237   2.720   3.768   7.564 -0.9817  0.0431  1.9820
  162SAPE  C31118238   2.841   3.649   7.701 -0.1340 -0.0459 -0.0450
  162SAPE  H11X18239   2.905   3.740   7.707 -1.2580  0.8829 -1.3197
  162SAPE  H11Y18240   2.885   3.549   7.716 -0.8446 -0.3978 -0.2592
  162SAPE  C31218241   2.738   3.666   7.813  0.7604 -0.0888  0.0772
  162SAPE  H12X18242   2.663   3.585   7.796 -1.4372  1.9572 -0.5330
  162SAPE  H12Y18243   2.698   3.769   7.801  1.2604  0.0114 -0.8264
  162SAPE  C31318244   2.798   3.665   7.958 -0.2899 -0.1643  0.4444
  162SAPE  H13X18245   2.842   3.567   7.985 -1.6763 -0.9032  0.1490
  162SAPE  H13Y18246   2.712   3.666   8.028  1.5705  0.8260  2.8523
  162SAPE  C31418247   2.869   3.797   7.989  0.5477  0.4321 -0.6704
  162SAPE  H14X18248   2.792   3.871   7.960  0.2462  0.9043  1.1603
  162SAPE  H14Y18249   2.960   3.804   7.926  2.0828  0.1697  1.4095
  162SAPE  C31518250   2.906   3.803   8.140  0.2569  0.1328 -0.1625
  162SAPE  H15X18251   2.919   3.697   8.170 -0.2980  0.2651  0.5595
  162SAPE  H15Y18252   2.824   3.863   8.184 -0.5077 -0.5434 -0.6294
  162SAPE  C31618253   3.033   3.876   8.180  0.4589 -0.4729 -0.1729
  162SAPE  H16X18254   3.018   3.984   8.157  1.0841 -0.5211 -0.8508
  162SAPE  H16Y18255   3.112   3.830   8.117 -0.0561 -1.8993  0.1896
  162SAPE  C31718256   3.082   3.860   8.322 -0.1491 -0.2756 -0.2389
  162SAPE  H17X18257   3.185   3.902   8.324  0.3244 -0.9708 -3.7590
  162SAPE  H17Y18258   3.080   3.752   8.350 -1.1378 -0.0206  0.7576
  162SAPE  C31818259   2.981   3.940   8.420 -0.3186  0.0044  0.7921
  162SAPE  H18X18260   2.991   3.875   8.510  1.8162  1.2734  1.5709
  162SAPE  H18Y18261   2.873   3.938   8.395 -0.1456 -0.9891  0.0587
  162SAPE  H18Z18262   3.023   4.042   8.434  1.9336 -0.9694  1.6228
  163SAPE     N18263   2.683   1.774   6.159 -0.1319 -1.1316  0.5680
  163SAPE   HN118264   2.701   1.860   6.215  1.8650 -2.2077  1.6631
  163SAPE   HN218265   2.776   1.740   6.128  0.4070  0.5883  0.2030
  163SAPE   HN318266   2.637   1.803   6.070  1.4201  0.9308  0.3663
  163SAPE   C1218267   2.607   1.669   6.234 -0.1276 -0.1762  0.5138
  163SAPE  H12A18268   2.556   1.599   6.165 -1.8230 -0.4515  1.9683
  163SAPE  H12B18269   2.532   1.721   6.298  1.9901  4.3191 -0.2291
  163SAPE   C1118270   2.696   1.591   6.336  0.0890  0.6101  0.1018
  163SAPE  H11A18271   2.752   1.505   6.291 -0.1144 -1.0226  2.7368
  163SAPE  H11B18272   2.617   1.552   6.403  1.0896 -1.8188 -0.0291
  163SAPE     P18273   2.901   1.649   6.498  0.0682  0.0383 -0.2172
  163SAPE   O1318274   2.957   1.521   6.447  0.5683  0.4553 -0.4028
  163SAPE   O1418275   2.988   1.767   6.505 -0.3692  0.0472 -0.1411
  163SAPE   O1218276   2.777   1.685   6.410  0.1353  0.0892 -0.2468
  163SAPE   O1118277   2.847   1.625   6.641 -0.4136 -0.2535 -0.4384
  163SAPE    C118278   2.742   1.692   6.711 -0.2012  0.1110  0.3031
  163SAPE    HA18279   2.661   1.725   6.642 -0.4078 -0.6978  0.1533
  163SAPE    HB18280   2.688   1.627   6.784 -1.6514  1.4499  0.4655
  163SAPE    C218281   2.781   1.817   6.792 -0.5839  0.6405 -0.2215
  163SAPE    HS18282   2.836   1.887   6.726  0.2659 -1.5512 -1.9403
  163SAPE   O2118283   2.858   1.771   6.907 -0.0156  0.2915  0.5176
  163SAPE   C2118284   2.925   1.870   6.963 -0.6453  0.2898  0.7514
  163SAPE   O2218285   2.929   1.984   6.919  0.0318  0.0796  0.1862
  163SAPE   C2218286   3.003   1.806   7.079  0.1849  0.5526 -0.2197
  163SAPE   H2R18287   2.955   1.706   7.089 -1.7313  1.2299 -1.8787
  163SAPE   H2S18288   3.111   1.793   7.053  0.6564  2.5327  0.5719
  163SAPE    C318289   2.654   1.896   6.844  0.4813 -0.0112  0.0676
  163SAPE    HX18290   2.596   1.910   6.750  1.0783 -1.1975 -0.5017
  163SAPE    HY18291   2.694   1.991   6.885  0.9447 -0.6877  1.2476
  163SAPE   O3118292   2.579   1.827   6.949 -0.1472  0.4582 -0.4389
  163SAPE   C3118293   2.487   1.737   6.904  0.1481 -0.3843  0.3113
  163SAPE   O3218294   2.441   1.726   6.795  0.7715 -0.2166  0.1760
  163SAPE   C3218295   2.426   1.656   7.023 -0.4672  0.3225 -0.2820
  163SAPE   H2X18296   2.325   1.629   6.985 -0.3935  2.0964 -1.9448
  163SAPE   H2Y18297   2.418   1.717   7.116  2.0343 -0.3418  0.4497
  163SAPE   C2318298   3.003   1.910   7.196  0.3669  0.6646  0.1925
  163SAPE   H3R18299   2.901   1.949   7.219  0.0995  0.9202 -1.3307
  163SAPE   H3S18300   3.051   2.006   7.167 -0.6391  1.5340  1.2714
  163SAPE   C2418301   3.064   1.855   7.330 -0.2523  0.8131  0.2117
  163SAPE   H4R18302   3.036   1.937   7.400 -0.3526  0.5229  0.5148
  163SAPE   H4S18303   3.173   1.848   7.315 -0.2726 -2.9793  0.9327
  163SAPE   C2518304   3.030   1.714   7.373  0.3455  0.3356  0.2891
  163SAPE   H5R18305   3.078   1.636   7.313  0.0893  0.5248 -0.1715
  163SAPE   C2618306   2.964   1.678   7.484  0.0977 -0.1669  0.0103
  163SAPE   H6R18307   2.956   1.570   7.504 -1.6928  0.4850  3.8277
  163SAPE   C2718308   2.909   1.768   7.584  0.1383  0.5944 -0.4679
  163SAPE   H7R18309   2.802   1.795   7.582 -0.7118 -1.2782  4.9045
  163SAPE   H7S18310   2.953   1.870   7.589  2.3048 -0.2753 -0.5308
  163SAPE   C2818311   2.937   1.710   7.724 -0.0144 -0.1279 -0.1845
  163SAPE   H8R18312   2.922   1.603   7.747  0.6227  0.0137  0.9457
  163SAPE   C2918313   2.966   1.779   7.837  0.4846  0.1673  0.4877
  163SAPE   H9R18314   2.989   1.725   7.930  2.8477 -0.3174 -0.3038
  163SAPE  C21018315   2.987   1.926   7.844 -0.8596 -0.2160  0.1330
  163SAPE  H10R18316   2.916   1.992   7.789 -1.2800 -0.2040  0.6783
  163SAPE  H10S18317   3.089   1.941   7.803 -1.5129 -0.6103 -1.7493
  163SAPE  C21118318   2.968   1.984   7.988 -0.2226  0.1165  0.3956
  163SAPE  H11R18319   2.864   2.015   8.007 -0.2488  0.3236 -0.0532
  163SAPE  C21218320   3.060   2.009   8.080 -0.4345  0.6763  0.0511
  163SAPE  H12R18321   3.035   2.040   8.182  5.7827 -0.0916  2.2106
  163SAPE  C21318322   3.209   1.981   8.063  0.1860 -0.0259  0.0857
  163SAPE  H13R18323   3.258   2.035   8.147  0.2239 -0.8440  0.6014
  163SAPE  H13S18324   3.260   2.029   7.977  0.5557 -0.4234  0.0795
  163SAPE  C21418325   3.245   1.830   8.072  0.2847 -0.7304  0.3109
  163SAPE  H14R18326   3.193   1.769   7.997  0.0813 -0.2495  0.0565
  163SAPE  C21518327   3.325   1.770   8.160 -0.5105 -0.4166  0.5527
  163SAPE  H15R18328   3.336   1.661   8.151 -0.9706 -0.4719  0.6454
  163SAPE  C21618329   3.394   1.837   8.276  0.5588 -0.2564  0.1792
  163SAPE  H16R18330   3.325   1.833   8.363  0.1762 -0.5916 -0.1367
  163SAPE  H16S18331   3.406   1.944   8.247 -2.2400 -0.4560 -2.2031
  163SAPE  C21718332   3.527   1.783   8.326 -0.0759  0.5133 -0.4800
  163SAPE  H17R18333   3.611   1.797   8.256  0.3778 -2.0336 -0.5360
  163SAPE  H17S18334   3.519   1.673   8.340 -3.3990  0.9530  2.7096
  163SAPE  C21818335   3.565   1.847   8.456  0.1759 -0.0560  0.4874
  163SAPE  H18R18336   3.483   1.847   8.531  0.0887 -0.1175  0.3921
  163SAPE  H18S18337   3.586   1.950   8.419  1.7247  1.1229  4.1371
  163SAPE  C21918338   3.707   1.813   8.508 -1.2627 -0.2377 -0.0293
  163SAPE  H19R18339   3.733   1.882   8.592  0.8473  0.7091 -1.3827
  163SAPE  H19S18340   3.789   1.831   8.436  0.2124  0.9710  1.8464
  163SAPE  C22018341   3.716   1.671   8.564  0.2269  0.0140 -0.1035
  163SAPE  H20R18342   3.650   1.651   8.651  2.8932 -1.8080  1.6562
  163SAPE  H20S18343   3.819   1.646   8.597 -0.5288 -2.5162  0.5707
  163SAPE  H20T18344   3.696   1.585   8.496  3.0057 -1.7695  1.1383
  163SAPE   C3318345   2.531   1.548   7.060 -0.2140 -0.1475 -0.0223
  163SAPE   H3X18346   2.631   1.596   7.073 -0.6571  0.9095 -0.3782
  163SAPE   H3Y18347   2.535   1.474   6.977 -1.1907 -0.2476  0.0112
  163SAPE   C3418348   2.509   1.468   7.188  0.3860 -0.0921  0.5693
  163SAPE   H4X18349   2.534   1.363   7.164  1.5778  0.4915 -0.9581
  163SAPE   H4Y18350   2.400   1.477   7.203  0.4580  1.6842  0.2395
  163SAPE   C3518351   2.596   1.517   7.313 -0.1916 -0.3341  1.7074
  163SAPE   H5X18352   2.556   1.617   7.340 -1.4094 -0.8155  1.7239
  163SAPE   H5Y18353   2.700   1.525   7.275 -0.9176 -2.6448 -1.1213
  163SAPE   C3618354   2.591   1.426   7.439  0.1007  0.0041 -0.1305
  163SAPE   H6X18355   2.609   1.319   7.414 -0.8588 -0.7766  2.2265
  163SAPE   H6Y18356   2.491   1.420   7.488  0.2228  1.2463  0.3024
  163SAPE   C3718357   2.689   1.472   7.545 -0.1936  0.1293 -0.3199
  163SAPE   H7X18358   2.682   1.582   7.549  1.2287  0.2063  1.4996
  163SAPE   H7Y18359   2.792   1.444   7.512 -0.4719  2.9923 -4.3760
  163SAPE   C3818360   2.665   1.401   7.683 -0.3780  0.0642 -0.3697
  163SAPE   H8X18361   2.763   1.397   7.736 -0.4855 -0.8336 -0.2306
  163SAPE   H8Y18362   2.619   1.301   7.667  3.3212 -2.2335  1.6955
  163SAPE   C3918363   2.578   1.497   7.764  0.4823 -0.4260 -0.3658
  163SAPE   H9X18364   2.478   1.504   7.715  0.7743 -3.0096 -1.5115
  163SAPE   H9Y18365   2.619   1.600   7.771 -0.1473 -0.0344 -1.8551
  163SAPE  C31018366   2.568   1.441   7.908 -0.4707 -0.3340 -0.3021
  163SAPE  H10X18367   2.670   1.430   7.951 -1.5546 -3.2069  1.8076
  163SAPE  H10Y18368   2.527   1.338   7.895  1.7295 -1.1466 -1.4321
  163SAPE  C31118369   2.474   1.519   8.004  0.2751  0.3297  0.4780
  163SAPE  H11X18370   2.443   1.452   8.086  1.9868 -2.9318 -1.3082
  163SAPE  H11Y18371   2.388   1.536   7.935 -0.7911 -0.8431  1.4846
  163SAPE  C31218372   2.536   1.652   8.056 -0.3451  0.7883  0.4105
  163SAPE  H12X18373   2.451   1.706   8.103  0.0332 -0.8406  3.1868
  163SAPE  H12Y18374   2.582   1.706   7.970 -0.4398  0.2130 -0.0069
  163SAPE  C31318375   2.648   1.628   8.155 -0.3130 -0.6629  0.1578
  163SAPE  H13X18376   2.741   1.589   8.108 -0.7160 -1.5801  0.0940
  163SAPE  H13Y18377   2.618   1.553   8.231  1.1512  1.7324  3.3439
  163SAPE  C31418378   2.701   1.754   8.232  0.0041 -0.1694 -0.5079
  163SAPE  H14X18379   2.625   1.806   8.295  0.3925  0.7771 -0.8098
  163SAPE  H14Y18380   2.722   1.830   8.153 -1.2562  1.4675  0.6562
  163SAPE  C31518381   2.836   1.732   8.308 -0.5231  0.4665 -0.2928
  163SAPE  H15X18382   2.915   1.690   8.242 -0.5841 -0.3239  0.1319
  163SAPE  H15Y18383   2.823   1.660   8.391  1.1296 -0.6928 -0.9897
  163SAPE  C31618384   2.881   1.862   8.383 -0.3230  0.2276  0.8696
  163SAPE  H16X18385   2.796   1.886   8.450  0.6175  2.1633  1.4196
  163SAPE  H16Y18386   2.886   1.946   8.311  0.3769  1.3897  2.2403
  163SAPE  C31718387   3.015   1.857   8.454 -0.1314  0.5511 -0.6079
  163SAPE  H17X18388   3.025   1.955   8.505 -0.0470  0.1379  0.2007
  163SAPE  H17Y18389   3.106   1.848   8.391  0.9990 -1.0816  1.1405
  163SAPE  C31818390   3.022   1.750   8.561 -0.1968 -0.3468 -0.6759
  163SAPE  H18X18391   3.123   1.760   8.607 -1.2044 -0.2039  1.6513
  163SAPE  H18Y18392   3.020   1.649   8.514 -0.2736 -0.4424 -0.4658
  163SAPE  H18Z18393   2.955   1.771   8.647  0.6055  1.5369 -0.4519
  164SAPE     N18394   6.312   5.565   5.846  0.1469 -0.0445  0.8670
  164SAPE   HN118395   6.390   5.601   5.788 -0.6587  0.4333  0.0753
  164SAPE   HN218396   6.283   5.471   5.812 -0.4884  0.3406  0.3404
  164SAPE   HN318397   6.223   5.612   5.821 -0.1558 -1.4865 -0.9697
  164SAPE   C1218398   6.342   5.568   5.994 -0.2859 -0.8401  0.7802
  164SAPE  H12A18399   6.358   5.676   6.012 -0.4658 -0.2557 -2.1263
  164SAPE  H12B18400   6.433   5.506   6.012 -1.5013 -2.2977  2.0869
  164SAPE   C1118401   6.219   5.523   6.075  0.6428 -0.1882  0.0525
  164SAPE  H11A18402   6.239   5.523   6.185  0.1021  0.5645  0.1558
  164SAPE  H11B18403   6.200   5.415   6.056  0.1748 -0.6080  2.5176
  164SAPE     P18404   5.958   5.552   6.033  0.0381  0.2871  0.0636
  164SAPE   O1318405   5.856   5.658   6.045  0.1237  0.3354 -0.0337
  164SAPE   O1418406   5.946   5.468   5.916 -0.7666  0.4258 -0.6108
  164SAPE   O1218407   6.113   5.607   6.043  0.4849  0.3074  0.2730
  164SAPE   O1118408   5.940   5.465   6.159  0.3177 -0.2387 -0.2880
  164SAPE    C118409   5.814   5.392   6.186 -0.2655  0.2333 -0.1095
  164SAPE    HA18410   5.734   5.469   6.198  0.4447  1.2446 -1.5615
  164SAPE    HB18411   5.790   5.329   6.097 -2.1890 -0.8054  1.0726
  164SAPE    C218412   5.837   5.299   6.309 -0.1074  0.8387 -1.0381
  164SAPE    HS18413   5.749   5.234   6.329 -0.4206  0.1543 -4.0996
  164SAPE   O2118414   5.854   5.376   6.433 -0.9468 -0.1497  0.0022
  164SAPE   C2118415   5.742   5.440   6.469 -0.4166 -0.1024 -0.2579
  164SAPE   O2218416   5.633   5.424   6.422 -0.2458 -0.1583 -0.0162
  164SAPE   C2218417   5.776   5.535   6.584  0.4507  0.4579  0.4145
  164SAPE   H2R18418   5.886   5.547   6.590  0.4967  1.2544 -1.3847
  164SAPE   H2S18419   5.736   5.635   6.555  2.2221  1.2474  0.5610
  164SAPE    C318420   5.960   5.206   6.285 -0.1069 -0.0699  0.2642
  164SAPE    HX18421   6.054   5.260   6.260 -0.2636 -0.9974 -2.7293
  164SAPE    HY18422   5.950   5.133   6.202  0.7299  2.3621 -2.1055
  164SAPE   O3118423   5.974   5.128   6.408 -0.7293 -0.7173  0.0644
  164SAPE   C3118424   6.079   5.172   6.487  0.1006 -0.7464  0.1270
  164SAPE   O3218425   6.168   5.250   6.457  0.0408  0.4196  0.3858
  164SAPE   C3218426   6.077   5.101   6.621  0.1200 -0.0406  0.4913
  164SAPE   H2X18427   6.090   4.991   6.608 -0.8475 -0.2113  0.8622
  164SAPE   H2Y18428   5.973   5.106   6.660  0.0546 -0.4312  0.3716
  164SAPE   C2318429   5.695   5.496   6.708 -0.0336  0.2848 -0.1165
  164SAPE   H3R18430   5.704   5.389   6.736 -0.1521  0.0610 -0.9146
  164SAPE   H3S18431   5.589   5.511   6.678  0.3283 -0.7374 -2.0914
  164SAPE   C2418432   5.718   5.577   6.844 -0.1753  0.6862  0.2255
  164SAPE   H4R18433   5.815   5.543   6.886  0.5254  2.3206  0.0067
  164SAPE   H4S18434   5.639   5.545   6.915  0.5912  0.0713  0.8276
  164SAPE   C2518435   5.732   5.728   6.839  0.0713  0.7522 -0.4054
  164SAPE   H5R18436   5.757   5.777   6.744  2.7169  0.4280  0.0327
  164SAPE   C2618437   5.722   5.814   6.944 -0.0961  0.5902  0.3924
  164SAPE   H6R18438   5.734   5.916   6.906 -0.4696 -0.2901 -2.3307
  164SAPE   C2718439   5.684   5.785   7.087  0.0807  0.2262  0.3538
  164SAPE   H7R18440   5.619   5.696   7.096 -1.6855  1.5324  1.1617
  164SAPE   H7S18441   5.610   5.863   7.112 -1.8208 -1.5779  0.5973
  164SAPE   C2818442   5.802   5.772   7.182  0.2268 -0.0298 -0.0021
  164SAPE   H8R18443   5.903   5.753   7.141  1.0240 -1.7059  2.5155
  164SAPE   C2918444   5.804   5.804   7.315 -0.3309 -0.4700 -0.1140
  164SAPE   H9R18445   5.901   5.783   7.362 -0.4150  0.4187  0.4747
  164SAPE  C21018446   5.690   5.844   7.397  0.2424  0.2522 -0.3077
  164SAPE  H10R18447   5.700   5.793   7.494 -0.5568 -0.9401 -0.8240
  164SAPE  H10S18448   5.593   5.817   7.349  0.8012 -2.2981 -0.1340
  164SAPE  C21118449   5.685   5.995   7.425 -0.5293 -0.2140 -0.2286
  164SAPE  H11R18450   5.646   6.057   7.343  1.4178 -0.1239 -1.1509
  164SAPE  C21218451   5.715   6.067   7.537 -0.3981 -0.2898 -0.7112
  164SAPE  H12R18452   5.729   6.176   7.539  2.3623 -0.5627  1.1924
  164SAPE  C21318453   5.775   5.999   7.660 -0.5612 -0.7055 -0.1058
  164SAPE  H13R18454   5.870   6.056   7.674 -1.2053  0.7896 -1.4255
  164SAPE  H13S18455   5.814   5.899   7.631  0.8506 -0.0173 -0.7035
  164SAPE  C21418456   5.709   5.987   7.787  1.4336  0.1963 -0.1401
  164SAPE  H14R18457   5.647   5.897   7.802  0.7780  0.4901 -0.9899
  164SAPE  C21518458   5.694   6.081   7.877 -0.2649  0.0378 -0.0801
  164SAPE  H15R18459   5.654   6.061   7.978  0.2067  2.3147  0.6063
  164SAPE  C21618460   5.749   6.214   7.863  0.0442 -0.1556  0.2573
  164SAPE  H16R18461   5.766   6.249   7.759 -0.5838  2.6776  1.0300
  164SAPE  H16S18462   5.852   6.208   7.904 -0.6344 -1.6205  1.9039
  164SAPE  C21718463   5.676   6.335   7.930  0.4243 -0.4311  0.1053
  164SAPE  H17R18464   5.696   6.317   8.038  2.9972 -1.0735 -0.4108
  164SAPE  H17S18465   5.567   6.342   7.906  0.2921  1.6195  1.1506
  164SAPE  C21818466   5.731   6.469   7.881 -0.1626  0.7175 -0.1923
  164SAPE  H18R18467   5.740   6.470   7.770  0.0023  0.2296 -0.1849
  164SAPE  H18S18468   5.840   6.478   7.905 -0.2714 -0.8884  1.0810
  164SAPE  C21918469   5.645   6.589   7.932 -0.3056 -0.0247 -0.9362
  164SAPE  H19R18470   5.536   6.567   7.924 -0.8595  2.0866  0.0106
  164SAPE  H19S18471   5.657   6.677   7.865 -1.0361  0.1148 -0.8971
  164SAPE  C22018472   5.677   6.637   8.072 -0.5839 -0.2200  0.7460
  164SAPE  H20R18473   5.607   6.719   8.102  1.7743  2.1514  0.1470
  164SAPE  H20S18474   5.784   6.663   8.088 -0.1055 -2.0343  0.7262
  164SAPE  H20T18475   5.651   6.553   8.141 -1.5080 -2.8087 -2.5151
  164SAPE   C3318476   6.183   5.147   6.728  0.1968 -0.1731  0.5221
  164SAPE   H3X18477   6.213   5.254   6.728 -1.3408  0.2882  1.0442
  164SAPE   H3Y18478   6.277   5.094   6.702 -0.5268 -0.7182 -1.1264
  164SAPE   C3418479   6.120   5.124   6.863  0.2176  0.6698 -0.1172
  164SAPE   H4X18480   6.081   5.020   6.863 -1.3437  1.2262 -0.4662
  164SAPE   H4Y18481   6.029   5.188   6.858 -1.0304 -1.1058 -2.2810
  164SAPE   C3518482   6.206   5.137   6.990 -0.5545 -0.5797  0.0363
  164SAPE   H5X18483   6.233   5.244   6.987  0.8319 -0.8596  1.5109
  164SAPE   H5Y18484   6.305   5.088   6.986 -0.3291 -0.0520 -1.7847
  164SAPE   C3618485   6.133   5.094   7.114 -1.1480 -0.4102 -0.3368
  164SAPE   H6X18486   6.116   4.985   7.105  0.4601 -0.6952 -0.2990
  164SAPE   H6Y18487   6.035   5.147   7.112 -1.1286 -0.2366  1.3851
  164SAPE   C3718488   6.214   5.124   7.243 -0.3279  0.2379  0.1216
  164SAPE   H7X18489   6.242   5.231   7.236  0.5484  0.0878  1.1032
  164SAPE   H7Y18490   6.310   5.068   7.251  0.6307  2.0070  1.6952
  164SAPE   C3818491   6.133   5.106   7.369 -0.4257  0.3705  0.6422
  164SAPE   H8X18492   6.079   5.010   7.356  2.1158 -1.0846  0.3058
  164SAPE   H8Y18493   6.055   5.184   7.357 -0.6102  0.2874  1.2517
  164SAPE   C3918494   6.213   5.114   7.496  0.5727  0.3513 -0.4112
  164SAPE   H9X18495   6.249   5.219   7.487 -0.4041  0.6068 -1.6913
  164SAPE   H9Y18496   6.297   5.042   7.494 -1.0363 -1.5988 -0.5209
  164SAPE  C31018497   6.115   5.104   7.612  0.1285 -0.1601  0.0018
  164SAPE  H10X18498   6.075   5.001   7.610  0.2618 -0.2081 -0.3581
  164SAPE  H10Y18499   6.023   5.164   7.596  0.2874  0.0982  0.0473
  164SAPE  C31118500   6.175   5.126   7.754 -0.7383  0.2461 -0.7287
  164SAPE  H11X18501   6.202   5.234   7.766  2.9767 -0.8455  2.7598
  164SAPE  H11Y18502   6.272   5.072   7.755 -1.6984 -1.5310 -1.1482
  164SAPE  C31218503   6.092   5.091   7.879 -0.3582  0.7630  0.1805
  164SAPE  H12X18504   6.149   5.100   7.974  1.7949  0.3685 -1.0005
  164SAPE  H12Y18505   6.072   4.983   7.866  0.1066  0.7906 -0.9430
  164SAPE  C31318506   5.952   5.158   7.881 -0.7281  0.8920  0.3076
  164SAPE  H13X18507   5.896   5.136   7.788  1.7354  0.7339 -1.2051
  164SAPE  H13Y18508   5.962   5.267   7.899 -1.1128  0.5388  3.2480
  164SAPE  C31418509   5.884   5.112   8.014 -0.1699  0.3010 -0.4842
  164SAPE  H14X18510   5.955   5.113   8.100 -0.0173 -1.0192 -0.5812
  164SAPE  H14Y18511   5.863   5.005   7.994  3.1248 -0.2616 -1.4920
  164SAPE  C31518512   5.769   5.206   8.060 -0.4515 -0.2458  0.6213
  164SAPE  H15X18513   5.697   5.215   7.975  0.3544  0.4632 -0.0049
  164SAPE  H15Y18514   5.817   5.303   8.085  0.2300 -0.1570 -0.9452
  164SAPE  C31618515   5.692   5.151   8.184 -0.4861 -0.6255 -0.0880
  164SAPE  H16X18516   5.654   5.047   8.176  0.7526 -1.1970  1.0455
  164SAPE  H16Y18517   5.610   5.224   8.204  0.9646  1.0251  0.0461
  164SAPE  C31718518   5.767   5.160   8.316 -0.3498  0.5628 -0.6260
  164SAPE  H17X18519   5.855   5.092   8.320 -1.8134 -1.5260 -1.9283
  164SAPE  H17Y18520   5.700   5.127   8.399 -0.7180  1.4442 -0.5574
  164SAPE  C31818521   5.805   5.305   8.353 -1.5349  0.2798  0.2480
  164SAPE  H18X18522   5.713   5.366   8.361 -1.5991 -0.0968  3.9295
  164SAPE  H18Y18523   5.866   5.352   8.273 -0.6376  1.1265  1.3909
  164SAPE  H18Z18524   5.868   5.301   8.445 -2.8434 -2.2976  1.1382
  165SAPE     N18525   4.811   1.576   6.201  0.2312 -0.1203 -0.7092
  165SAPE   HN118526   4.728   1.517   6.180  0.6244  0.0077 -2.8922
  165SAPE   HN218527   4.809   1.670   6.155 -1.8138 -0.9056 -2.4224
  165SAPE   HN318528   4.891   1.535   6.150  1.8434 -1.2320  2.4609
  165SAPE   C1218529   4.864   1.591   6.339 -0.1435 -0.3327 -0.7583
  165SAPE  H12A18530   4.864   1.486   6.376  1.4278 -0.7698 -1.9039
  165SAPE  H12B18531   4.805   1.659   6.404  1.4919  0.5521 -0.1483
  165SAPE   C1118532   5.013   1.642   6.343  0.8307  0.3434  0.0241
  165SAPE  H11A18533   5.027   1.671   6.449  0.3068  1.2195 -0.1322
  165SAPE  H11B18534   5.018   1.741   6.292 -0.9388  0.1899 -0.5320
  165SAPE     P18535   5.208   1.459   6.376  0.4117 -0.1154 -0.0536
  165SAPE   O1318536   5.166   1.317   6.384 -0.3700  0.5599 -0.2506
  165SAPE   O1418537   5.337   1.490   6.309  0.1635  0.1362 -0.2159
  165SAPE   O1218538   5.095   1.539   6.292  0.5372 -0.5631 -0.1832
  165SAPE   O1118539   5.200   1.524   6.519 -0.0431  0.0134 -0.7766
  165SAPE    C118540   5.306   1.516   6.615 -0.0991  0.2369 -0.2272
  165SAPE    HA18541   5.403   1.479   6.576  0.2358  0.3259  0.5203
  165SAPE    HB18542   5.319   1.619   6.653  2.8409 -0.7100  1.6826
  165SAPE    C218543   5.269   1.422   6.728  0.1153  0.1697 -0.4941
  165SAPE    HS18544   5.248   1.322   6.684 -1.7144 -0.2950  1.2873
  165SAPE   O2118545   5.155   1.481   6.797  0.4715 -0.0208  0.4296
  165SAPE   C2118546   5.055   1.395   6.819 -0.4237  0.5136 -0.3270
  165SAPE   O2218547   5.055   1.274   6.790  0.0024  0.2864 -1.2074
  165SAPE   C2218548   4.938   1.479   6.867 -0.2757 -0.7879 -0.0370
  165SAPE   H2R18549   4.980   1.537   6.953  1.9318 -0.9669 -0.9226
  165SAPE   H2S18550   4.909   1.548   6.785  1.3912  0.9637  0.7633
  165SAPE    C318551   5.389   1.420   6.835 -0.1776 -0.6202 -0.3383
  165SAPE    HX18552   5.390   1.521   6.882 -0.2065 -0.7876  0.0202
  165SAPE    HY18553   5.485   1.412   6.780 -0.4284 -3.3907 -0.4903
  165SAPE   O3118554   5.370   1.316   6.934 -0.3396 -0.3469 -0.1436
  165SAPE   C3118555   5.439   1.205   6.911 -0.2920 -0.1931 -0.0384
  165SAPE   O3218556   5.509   1.184   6.812  0.2542 -0.0604  0.0548
  165SAPE   C3218557   5.439   1.116   7.035  0.2747  0.2259 -0.6587
  165SAPE   H2X18558   5.354   1.047   7.012  0.8428  0.4685 -4.1162
  165SAPE   H2Y18559   5.410   1.176   7.123 -2.1255 -0.8067 -0.6519
  165SAPE   C2318560   4.811   1.401   6.899 -0.4863 -0.5702 -0.0653
  165SAPE   H3R18561   4.781   1.334   6.815 -0.4731 -1.0258  0.2863
  165SAPE   H3S18562   4.727   1.472   6.913  0.7127  0.2903  4.2183
  165SAPE   C2418563   4.820   1.317   7.033 -0.3519 -0.2863 -0.0092
  165SAPE   H4R18564   4.904   1.248   7.011 -0.0595  0.2148 -0.4638
  165SAPE   H4S18565   4.735   1.248   7.054  1.4059 -2.6472 -0.3053
  165SAPE   C2518566   4.845   1.405   7.157 -0.2297 -0.1532  1.4646
  165SAPE   H5R18567   4.756   1.457   7.194 -1.4295 -1.0002 -0.0801
  165SAPE   C2618568   4.962   1.420   7.222  1.1085 -0.2345  0.0137
  165SAPE   H6R18569   4.957   1.487   7.309  0.9594  0.6963 -0.6929
  165SAPE   C2718570   5.101   1.362   7.205  0.0353  0.3031 -0.9946
  165SAPE   H7R18571   5.104   1.317   7.103 -0.4640  0.6067 -1.1479
  165SAPE   H7S18572   5.125   1.281   7.277  2.1794  1.1081 -0.7220
  165SAPE   C2818573   5.218   1.458   7.208 -0.2580 -0.1715 -0.1868
  165SAPE   H8R18574   5.268   1.462   7.110 -1.4470  2.3264 -0.7674
  165SAPE   C2918575   5.260   1.535   7.313  0.4960 -0.8945  0.2396
  165SAPE   H9R18576   5.335   1.609   7.283 -0.3617 -0.4716 -0.9473
  165SAPE  C21018577   5.192   1.549   7.448 -0.0852 -1.0198  0.2471
  165SAPE  H10R18578   5.252   1.497   7.525  2.5969 -1.2844 -1.8571
  165SAPE  H10S18579   5.094   1.499   7.437 -0.7562  0.5775 -1.7446
  165SAPE  C21118580   5.162   1.695   7.481 -0.0319 -0.0911  0.0130
  165SAPE  H11R18581   5.136   1.760   7.396  0.1627  0.6944  0.5451
  165SAPE  C21218582   5.128   1.734   7.608  0.5504  0.3451  0.2641
  165SAPE  H12R18583   5.111   1.842   7.620  0.3476  0.4809 -1.0724
  165SAPE  C21318584   5.128   1.656   7.740 -0.6699  0.2474 -0.2106
  165SAPE  H13R18585   5.188   1.716   7.812  0.7682 -2.0939  0.6475
  165SAPE  H13S18586   5.188   1.564   7.724 -0.6340  0.4226 -1.1234
  165SAPE  C21418587   4.990   1.599   7.773 -0.0819  0.3682 -1.0320
  165SAPE  H14R18588   4.927   1.559   7.693  0.9778 -1.9020 -0.8055
  165SAPE  C21518589   4.933   1.606   7.893  1.0179  0.4188 -0.1778
  165SAPE  H15R18590   4.832   1.570   7.917  1.0667 -0.1922 -0.8630
  165SAPE  C21618591   4.992   1.665   8.016 -0.4599  0.3822  0.0322
  165SAPE  H16R18592   4.909   1.720   8.065 -0.7416  0.8237 -0.8992
  165SAPE  H16S18593   5.080   1.729   7.994  1.0779 -1.5667  0.3244
  165SAPE  C21718594   5.039   1.558   8.121  0.4024 -0.1104  0.5285
  165SAPE  H17R18595   5.131   1.509   8.083  1.2917  1.0231  1.1396
  165SAPE  H17S18596   4.963   1.477   8.129  1.4913 -1.1448  0.6107
  165SAPE  C21818597   5.063   1.606   8.264 -0.0264  0.7045 -0.5086
  165SAPE  H18R18598   5.132   1.693   8.266  0.1963  0.5352 -0.7154
  165SAPE  H18S18599   5.105   1.526   8.329 -0.1444  2.0247  1.2641
  165SAPE  C21918600   4.941   1.660   8.330  0.5032  0.3485 -0.3323
  165SAPE  H19R18601   4.882   1.573   8.364  1.1788  0.1699  0.4025
  165SAPE  H19S18602   4.882   1.730   8.267  0.6633  2.0473  1.3162
  165SAPE  C22018603   4.969   1.742   8.452  0.6740 -0.5135  0.4021
  165SAPE  H20R18604   5.036   1.828   8.428  2.1367 -1.9512 -0.9345
  165SAPE  H20S18605   5.023   1.678   8.526  0.7430 -1.1477 -0.1905
  165SAPE  H20T18606   4.875   1.783   8.493 -0.3867 -3.1528  0.7834
  165SAPE   C3318607   5.570   1.034   7.071  0.0123 -0.0923  0.3945
  165SAPE   H3X18608   5.643   1.118   7.067 -1.6721  1.5246  1.8556
  165SAPE   H3Y18609   5.597   0.953   7.001  3.9814 -0.0018  1.5563
  165SAPE   C3418610   5.583   0.996   7.218  0.5117 -0.2893  0.4726
  165SAPE   H4X18611   5.521   0.904   7.224 -0.3011  0.3710  3.4094
  165SAPE   H4Y18612   5.541   1.063   7.296 -0.0230  0.3264 -0.3210
  165SAPE   C3518613   5.719   0.941   7.244 -0.2207  0.0811 -0.6161
  165SAPE   H5X18614   5.757   0.900   7.148  0.1306  1.6997 -1.1943
  165SAPE   H5Y18615   5.712   0.872   7.331 -1.2485 -0.5719 -1.2017
  165SAPE   C3618616   5.820   1.054   7.288  0.9371  0.1995 -0.4454
  165SAPE   H6X18617   5.795   1.145   7.229 -0.6714 -0.4363 -0.8239
  165SAPE   H6Y18618   5.926   1.029   7.266  0.1040 -3.2019 -1.2343
  165SAPE   C3718619   5.799   1.089   7.435 -0.1987 -0.3153 -0.4286
  165SAPE   H7X18620   5.831   1.011   7.508 -0.5224 -0.9858 -0.9828
  165SAPE   H7Y18621   5.689   1.097   7.453  0.0227  0.2520  0.7584
  165SAPE   C3818622   5.855   1.227   7.470  0.4533  0.2027  0.4532
  165SAPE   H8X18623   5.941   1.250   7.404  0.1508  0.5750  0.1861
  165SAPE   H8Y18624   5.894   1.230   7.574  1.1583  0.9364  0.1721
  165SAPE   C3918625   5.758   1.346   7.449 -0.6602 -0.5607 -0.5300
  165SAPE   H9X18626   5.698   1.328   7.358 -2.0663  0.3151  0.1861
  165SAPE   H9Y18627   5.801   1.449   7.445 -1.6782 -0.0895  0.2940
  165SAPE  C31018628   5.657   1.357   7.565  0.8956  0.4496  0.4779
  165SAPE  H10X18629   5.701   1.348   7.667 -0.9446 -1.0912  1.1807
  165SAPE  H10Y18630   5.578   1.280   7.556  0.1048  1.2846  0.1658
  165SAPE  C31118631   5.588   1.501   7.560 -0.5648 -0.1829 -0.5554
  165SAPE  H11X18632   5.533   1.520   7.466 -0.9670 -1.1766 -0.5351
  165SAPE  H11Y18633   5.668   1.577   7.567 -2.2504  1.6941 -0.8655
  165SAPE  C31218634   5.503   1.530   7.686  0.1564  0.3781  0.3035
  165SAPE  H12X18635   5.424   1.451   7.682  2.4300 -2.0394  0.5865
  165SAPE  H12Y18636   5.447   1.624   7.666  0.2463  0.2985 -0.3341
  165SAPE  C31318637   5.563   1.536   7.824 -0.0291 -0.4077  0.6569
  165SAPE  H13X18638   5.649   1.605   7.819  0.2646 -0.8017  0.0676
  165SAPE  H13Y18639   5.617   1.440   7.839 -0.2623 -0.3840  1.7366
  165SAPE  C31418640   5.471   1.576   7.943 -0.2676 -0.4320  0.1507
  165SAPE  H14X18641   5.384   1.507   7.952  0.1519 -0.8693  0.9705
  165SAPE  H14Y18642   5.429   1.677   7.925  1.4195  0.0836 -1.1708
  165SAPE  C31518643   5.542   1.567   8.083 -0.5778  0.7426  0.0766
  165SAPE  H15X18644   5.475   1.597   8.166  0.3166  0.9398  0.7327
  165SAPE  H15Y18645   5.632   1.631   8.081  1.6451 -2.1918  0.0142
  165SAPE  C31618646   5.587   1.418   8.123 -0.0841 -0.4526  0.3234
  165SAPE  H16X18647   5.692   1.422   8.158 -0.8790 -1.0504  2.9588
  165SAPE  H16Y18648   5.581   1.359   8.029 -0.8451  1.5531 -0.9586
  165SAPE  C31718649   5.502   1.362   8.239 -0.0206  0.5189 -1.0818
  165SAPE  H17X18650   5.486   1.441   8.315  0.7468 -0.5941  0.2992
  165SAPE  H17Y18651   5.579   1.294   8.283 -0.4326  1.8048  1.8727
  165SAPE  C31818652   5.375   1.289   8.207  0.2255 -0.4631 -0.1428
  165SAPE  H18X18653   5.331   1.262   8.305 -0.2699  0.9289  0.0519
  165SAPE  H18Y18654   5.389   1.193   8.154 -0.1013 -0.6389  0.0854
  165SAPE  H18Z18655   5.311   1.358   8.147 -1.1667 -0.9159  0.7679
  166SAPE     N18656   3.967   5.331   5.812 -0.2822 -0.4156 -0.1287
  166SAPE   HN118657   3.881   5.320   5.869 -0.2265  2.1971  0.5759
  166SAPE   HN218658   3.942   5.398   5.737 -0.4473 -0.7345 -0.3612
  166SAPE   HN318659   4.004   5.241   5.776  1.6759  0.1513  0.3185
  166SAPE   C1218660   4.081   5.385   5.900  1.1120  0.0641  0.6016
  166SAPE  H12A18661   4.036   5.470   5.956  0.0209  0.2009 -0.4482
  166SAPE  H12B18662   4.156   5.429   5.832  0.7228  2.5268  1.6704
  166SAPE   C1118663   4.126   5.274   6.003  0.8572  0.8227  0.4521
  166SAPE  H11A18664   4.042   5.237   6.065  0.5226 -1.0614 -1.0430
  166SAPE  H11B18665   4.208   5.309   6.070  0.0343  1.2328  1.2747
  166SAPE     P18666   4.302   5.079   5.949  0.2792  0.2329 -0.5271
  166SAPE   O1318667   4.292   4.941   5.884  0.0460 -0.2971 -0.2457
  166SAPE   O1418668   4.405   5.174   5.905 -0.1069 -0.4534 -0.2137
  166SAPE   O1218669   4.172   5.160   5.931  0.1752  0.3307 -0.2954
  166SAPE   O1118670   4.313   5.061   6.107 -0.0510 -0.0718  0.0180
  166SAPE    C118671   4.218   4.980   6.174 -0.3717 -0.8067  0.4660
  166SAPE    HA18672   4.112   5.009   6.158 -0.2242  0.2253  1.2561
  166SAPE    HB18673   4.233   4.873   6.145  1.6881  0.0294 -1.9819
  166SAPE    C218674   4.239   4.985   6.328  0.0381 -0.1054 -0.6916
  166SAPE    HS18675   4.150   4.964   6.392  0.6155 -1.4656 -0.2967
  166SAPE   O2118676   4.291   5.111   6.372 -0.0386  0.1341  0.0876
  166SAPE   C2118677   4.197   5.206   6.371  0.5375 -0.1868  0.2749
  166SAPE   O2218678   4.081   5.190   6.334 -0.9486 -0.3245 -0.0500
  166SAPE   C2218679   4.251   5.341   6.436  0.5523 -0.4414  0.0640
  166SAPE   H2R18680   4.362   5.333   6.435  0.6586  0.6240  1.2548
  166SAPE   H2S18681   4.209   5.426   6.379  1.6295 -2.1078 -3.4825
  166SAPE    C318682   4.337   4.881   6.365  0.0119  0.1164  0.2662
  166SAPE    HX18683   4.434   4.902   6.315 -0.7324  3.6577  0.0695
  166SAPE    HY18684   4.312   4.780   6.326  2.1470 -0.6579  0.7481
  166SAPE   O3118685   4.358   4.873   6.506  0.3591 -0.0097  0.4342
  166SAPE   C3118686   4.471   4.927   6.554  0.8188 -0.2564  0.6616
  166SAPE   O3218687   4.557   4.980   6.483 -0.1354 -0.2628 -0.2983
  166SAPE   C3218688   4.470   4.913   6.704  0.0439  0.8904  0.8228
  166SAPE   H2X18689   4.502   4.808   6.722 -2.6887  0.0394  1.0902
  166SAPE   H2Y18690   4.364   4.911   6.736 -0.1557  1.4617  0.2236
  166SAPE   C2318691   4.191   5.340   6.580 -0.2011 -0.1835  0.3145
  166SAPE   H3R18692   4.230   5.256   6.642  0.7069  0.4100  0.5721
  166SAPE   H3S18693   4.081   5.334   6.572 -0.0695 -0.4118 -2.0368
  166SAPE   C2418694   4.228   5.469   6.658  0.1067  0.8693 -0.5713
  166SAPE   H4R18695   4.153   5.481   6.740  1.0954 -2.1476  0.9597
  166SAPE   H4S18696   4.224   5.546   6.579 -0.2691  0.2983 -1.1165
  166SAPE   C2518697   4.369   5.453   6.709  0.4966  0.0924 -1.2643
  166SAPE   H5R18698   4.455   5.452   6.639  0.8145 -1.2492 -0.8748
  166SAPE   C2618699   4.402   5.426   6.836  0.2725 -0.1105  0.4030
  166SAPE   H6R18700   4.506   5.449   6.862  0.6974 -2.5809  1.2176
  166SAPE   C2718701   4.324   5.412   6.962 -0.9720 -0.6524 -0.5208
  166SAPE   H7R18702   4.385   5.340   7.020  0.7023  0.5414 -0.7327
  166SAPE   H7S18703   4.227   5.368   6.930 -0.6408 -0.1267 -2.3340
  166SAPE   C2818704   4.288   5.534   7.048 -0.6020  0.0460  0.2699
  166SAPE   H8R18705   4.234   5.614   6.994  0.9671 -0.0720 -1.5769
  166SAPE   C2918706   4.320   5.554   7.177 -0.1411 -0.7148  0.9737
  166SAPE   H9R18707   4.269   5.638   7.226 -1.6339 -0.5625 -0.7444
  166SAPE  C21018708   4.400   5.470   7.268 -1.0427  0.1163 -0.1041
  166SAPE  H10R18709   4.453   5.534   7.342  0.9710 -0.3664 -1.0374
  166SAPE  H10S18710   4.481   5.429   7.203 -0.3928  0.4233  0.5004
  166SAPE  C21118711   4.324   5.353   7.328  0.1429  0.3029  1.2709
  166SAPE  H11R18712   4.289   5.279   7.254  1.3993  2.3238 -1.4978
  166SAPE  C21218713   4.285   5.349   7.460 -1.0593  0.4073  0.3206
  166SAPE  H12R18714   4.239   5.255   7.494 -1.5165  0.5738  0.1750
  166SAPE  C21318715   4.315   5.447   7.562 -0.3693 -0.0434  1.0187
  166SAPE  H13R18716   4.413   5.498   7.553 -0.6458  0.5721  1.3563
  166SAPE  H13S18717   4.330   5.376   7.646  0.9126 -1.3065 -0.2427
  166SAPE  C21418718   4.206   5.552   7.589  0.3888 -0.1015 -0.3140
  166SAPE  H14R18719   4.160   5.601   7.502  0.2470  0.5618  0.1238
  166SAPE  C21518720   4.153   5.578   7.708  0.1461 -0.5363 -0.2760
  166SAPE  H15R18721   4.056   5.630   7.702  0.2369 -0.4166 -0.8030
  166SAPE  C21618722   4.186   5.523   7.847  0.3989 -0.0588  0.4778
  166SAPE  H16R18723   4.270   5.451   7.840  0.5390 -0.0101  1.4289
  166SAPE  H16S18724   4.102   5.469   7.897  0.8353 -1.3063 -0.1184
  166SAPE  C21718725   4.233   5.645   7.932  0.6317 -0.0253 -0.2131
  166SAPE  H17R18726   4.161   5.729   7.917  2.3640  1.1294 -2.6424
  166SAPE  H17S18727   4.329   5.689   7.899  1.6683  1.8375  4.4859
  166SAPE  C21818728   4.257   5.620   8.083 -0.1520  0.4282 -0.2352
  166SAPE  H18R18729   4.366   5.598   8.096 -0.7327 -1.7862  1.5671
  166SAPE  H18S18730   4.209   5.525   8.113  0.2054  0.6719  1.1653
  166SAPE  C21918731   4.207   5.737   8.174 -0.8281  0.0855  0.5248
  166SAPE  H19R18732   4.208   5.832   8.117 -1.2726 -0.7566 -0.9528
  166SAPE  H19S18733   4.281   5.739   8.257 -0.0708 -1.8016 -0.0458
  166SAPE  C22018734   4.073   5.712   8.240 -0.5280 -0.2610 -0.4167
  166SAPE  H20R18735   3.999   5.725   8.158  0.3636  1.6749 -0.9960
  166SAPE  H20S18736   4.049   5.776   8.328  1.2347 -0.7216  0.4396
  166SAPE  H20T18737   4.076   5.609   8.280  0.9805  0.5684  1.8361
  166SAPE   C3318738   4.555   5.023   6.771 -0.6703 -0.5846  0.4365
  166SAPE   H3X18739   4.517   5.120   6.734 -2.8415 -0.5945  2.3737
  166SAPE   H3Y18740   4.661   5.009   6.740 -0.9110 -3.2332  0.5209
  166SAPE   C3418741   4.550   5.012   6.922 -0.4059  0.1309  0.4893
  166SAPE   H4X18742   4.594   4.914   6.950 -2.1976 -0.2542  2.1197
  166SAPE   H4Y18743   4.446   5.006   6.961 -1.1421 -1.6204 -1.4906
  166SAPE   C3518744   4.629   5.124   6.990  0.2562  0.0520  0.2471
  166SAPE   H5X18745   4.599   5.220   6.944  1.6664  0.8972  1.0252
  166SAPE   H5Y18746   4.735   5.118   6.955  1.3184  3.1801  2.4783
  166SAPE   C3618747   4.605   5.138   7.143 -0.1556  0.3489 -0.3260
  166SAPE   H6X18748   4.498   5.122   7.168  0.5491 -1.5137  1.7665
  166SAPE   H6Y18749   4.617   5.245   7.170  2.2760  0.5488 -1.8928
  166SAPE   C3718750   4.696   5.042   7.227  0.5346  0.1973  0.5999
  166SAPE   H7X18751   4.800   5.055   7.192  0.1891  2.2012  0.2089
  166SAPE   H7Y18752   4.666   4.936   7.209 -1.4228  0.6267  1.0287
  166SAPE   C3818753   4.689   5.056   7.381  0.2224  0.2817  0.6875
  166SAPE   H8X18754   4.719   5.160   7.405 -2.7645  0.9240  2.0824
  166SAPE   H8Y18755   4.761   4.986   7.429 -2.3704 -2.4735  0.8042
  166SAPE   C3918756   4.563   5.015   7.458  1.5694  0.2019  0.2019
  166SAPE   H9X18757   4.538   4.906   7.454 -0.5325  0.4300  3.3958
  166SAPE   H9Y18758   4.476   5.059   7.405 -1.1789 -4.3116  0.3797
  166SAPE  C31018759   4.564   5.057   7.610  0.3043  0.1098  1.0197
  166SAPE  H10X18760   4.600   5.162   7.611  0.6214  0.0950 -1.6498
  166SAPE  H10Y18761   4.637   4.988   7.658  0.3635 -0.8347 -0.3791
  166SAPE  C31118762   4.428   5.053   7.680 -0.9111  0.2500 -0.1942
  166SAPE  H11X18763   4.371   4.958   7.666  1.5331 -1.4316  0.5788
  166SAPE  H11Y18764   4.375   5.145   7.648 -0.1828  0.3712 -1.0924
  166SAPE  C31218765   4.445   5.064   7.841 -0.2967  0.1222  0.3678
  166SAPE  H12X18766   4.506   5.156   7.857  0.8958 -0.6664  0.4360
  166SAPE  H12Y18767   4.498   4.983   7.894 -2.2173 -1.3131  0.2007
  166SAPE  C31318768   4.312   5.075   7.925 -1.0041 -0.1260 -0.0114
  166SAPE  H13X18769   4.248   4.984   7.915 -2.5046  0.7593  1.1488
  166SAPE  H13Y18770   4.255   5.154   7.873  0.7645  2.1084  1.2774
  166SAPE  C31418771   4.351   5.093   8.070 -0.0735  0.5655 -0.3867
  166SAPE  H14X18772   4.418   5.182   8.077 -1.8878  1.9622  0.2553
  166SAPE  H14Y18773   4.421   5.013   8.102  1.1695  0.5450 -2.9163
  166SAPE  C31518774   4.237   5.091   8.168  0.3881 -0.7878 -0.0647
  166SAPE  H15X18775   4.208   4.986   8.190  1.6263 -1.4729 -1.5510
  166SAPE  H15Y18776   4.151   5.142   8.119  0.0011 -0.7415  0.6509
  166SAPE  C31618777   4.261   5.155   8.309 -0.1704 -0.5769 -0.4412
  166SAPE  H16X18778   4.259   5.266   8.300 -2.6735 -0.1410  3.3360
  166SAPE  H16Y18779   4.357   5.119   8.352 -0.4793  0.2058  0.9675
  166SAPE  C31718780   4.156   5.109   8.412  0.1124 -0.4274 -0.1312
  166SAPE  H17X18781   4.170   5.001   8.431  1.2413 -0.6443 -1.9788
  166SAPE  H17Y18782   4.052   5.118   8.374 -0.1854 -0.0134  0.7420
  166SAPE  C31818783   4.156   5.194   8.545 -0.1628  0.3811  0.2506
  166SAPE  H18X18784   4.150   5.304   8.530  0.5216  0.2367 -1.2463
  166SAPE  H18Y18785   4.255   5.177   8.591 -0.2729 -1.0421  0.0340
  166SAPE  H18Z18786   4.071   5.157   8.606  0.5896 -1.7922  0.0852
  167SAPE     N18787   5.815   3.558   5.933 -0.5252 -0.1759 -0.0673
  167SAPE   HN118788   5.864   3.536   5.844  4.5483  3.0577  1.4691
  167SAPE   HN218789   5.889   3.604   5.991 -1.9273  0.9690  0.9005
  167SAPE   HN318790   5.801   3.468   5.982 -2.2349  0.7530  1.2770
  167SAPE   C1218791   5.693   3.642   5.931  0.2160 -0.1545  0.0547
  167SAPE  H12A18792   5.656   3.651   6.035  1.3607  1.7444  0.3389
  167SAPE  H12B18793   5.623   3.588   5.864  0.7425 -0.2862 -0.4060
  167SAPE   C1118794   5.706   3.785   5.875  0.2355 -0.0872  0.3391
  167SAPE  H11A18795   5.607   3.836   5.883  0.7848  1.1721 -0.5969
  167SAPE  H11B18796   5.725   3.772   5.766  1.1388  0.2264  0.4585
  167SAPE     P18797   5.819   3.994   6.008  0.4375 -0.0830  0.0032
  167SAPE   O1318798   5.949   4.041   5.962 -0.1324 -0.4497  0.0038
  167SAPE   O1418799   5.701   4.078   5.974 -0.1326  0.0984 -0.1956
  167SAPE   O1218800   5.802   3.853   5.955  0.4989  0.1589  0.0705
  167SAPE   O1118801   5.816   3.969   6.162 -0.4751  0.2498 -0.6398
  167SAPE    C118802   5.725   3.876   6.217  0.0942  0.2817 -0.6920
  167SAPE    HA18803   5.624   3.902   6.181  0.1212  0.0596 -0.9303
  167SAPE    HB18804   5.753   3.775   6.181 -0.6819  0.3046 -1.3968
  167SAPE    C218805   5.717   3.882   6.374  0.6078 -0.1958 -0.4003
  167SAPE    HS18806   5.635   3.814   6.405  1.1774 -0.2737  1.0054
  167SAPE   O2118807   5.694   4.015   6.418  0.0331  0.2735 -0.8238
  167SAPE   C2118808   5.590   4.079   6.370 -0.4100 -0.4957  0.1825
  167SAPE   O2218809   5.496   4.041   6.303 -0.4613  0.6994 -0.2885
  167SAPE   C2218810   5.607   4.227   6.409 -0.5130 -0.0507  1.3507
  167SAPE   H2R18811   5.710   4.258   6.381  0.1332 -3.1033  0.0085
  167SAPE   H2S18812   5.530   4.292   6.361  1.6291  0.9068 -1.0397
  167SAPE    C318813   5.841   3.814   6.444 -0.4260 -0.2346  0.0347
  167SAPE    HX18814   5.929   3.875   6.414  0.6076 -2.5351 -2.0382
  167SAPE    HY18815   5.841   3.712   6.400 -0.8597  0.0373 -0.6164
  167SAPE   O3118816   5.829   3.814   6.586 -0.5578  0.2350  0.4074
  167SAPE   C3118817   5.759   3.718   6.631  0.2898  0.5228 -0.0528
  167SAPE   O3218818   5.706   3.627   6.563  0.2975  0.3366  0.1176
  167SAPE   C3218819   5.747   3.705   6.781 -0.6374 -0.5111  0.1219
  167SAPE   H2X18820   5.791   3.796   6.827  0.7442 -0.5277 -1.1178
  167SAPE   H2Y18821   5.802   3.617   6.822  1.7469  0.4015 -0.9566
  167SAPE   C2318822   5.601   4.241   6.566  0.5022  0.1126  0.1997
  167SAPE   H3R18823   5.637   4.341   6.598  1.0160 -0.2769  0.8783
  167SAPE   H3S18824   5.673   4.178   6.623  1.4075  2.6437  2.0190
  167SAPE   C2418825   5.453   4.223   6.614 -0.2484  0.0862  0.0674
  167SAPE   H4R18826   5.390   4.287   6.548  0.3192 -1.0758 -1.6462
  167SAPE   H4S18827   5.456   4.268   6.716 -0.7422 -0.5208  0.3597
  167SAPE   C2518828   5.394   4.081   6.624 -0.1075 -0.0296  0.1618
  167SAPE   H5R18829   5.370   4.033   6.528  1.2676 -0.2725 -0.0730
  167SAPE   C2618830   5.372   4.008   6.736 -0.0375 -0.0138 -0.2114
  167SAPE   H6R18831   5.316   3.914   6.726 -0.3678 -0.0322  1.5493
  167SAPE   C2718832   5.397   4.050   6.883 -0.0009  0.6101  0.5630
  167SAPE   H7R18833   5.407   4.161   6.891 -3.3736  0.9777  1.0913
  167SAPE   H7S18834   5.502   4.021   6.906  0.2628  0.2682 -0.9866
  167SAPE   C2818835   5.318   3.988   6.992  0.6035 -0.8767  0.1684
  167SAPE   H8R18836   5.279   3.885   6.983  1.4897 -1.1578 -0.5629
  167SAPE   C2918837   5.283   4.049   7.105  0.0280 -0.2987  0.4893
  167SAPE   H9R18838   5.201   4.003   7.162 -0.3595 -0.2388 -0.0142
  167SAPE  C21018839   5.320   4.185   7.143  0.5595 -0.6218 -0.5756
  167SAPE  H10R18840   5.232   4.250   7.128 -0.0113 -1.9920 -4.0849
  167SAPE  H10S18841   5.397   4.236   7.082  2.2515 -1.0927  1.0554
  167SAPE  C21118842   5.362   4.184   7.289 -0.5458 -0.3766  0.3342
  167SAPE  H11R18843   5.470   4.180   7.308 -0.4393 -0.5793 -0.2934
  167SAPE  C21218844   5.291   4.195   7.405  0.2644  0.5331 -0.0519
  167SAPE  H12R18845   5.354   4.199   7.495  2.0376  1.9251 -1.2749
  167SAPE  C21318846   5.141   4.203   7.415 -0.0561  0.2919  0.5402
  167SAPE  H13R18847   5.111   4.106   7.459  1.3121 -0.3174  0.1903
  167SAPE  H13S18848   5.087   4.208   7.319  1.0372  1.6275 -0.0393
  167SAPE  C21418849   5.101   4.322   7.502 -0.2433  0.5489  0.6249
  167SAPE  H14R18850   5.070   4.410   7.444 -0.6638  0.3152  0.4936
  167SAPE  C21518851   5.094   4.320   7.631  0.6623 -0.2284 -0.5963
  167SAPE  H15R18852   5.046   4.398   7.692  0.9057 -0.0873 -0.5815
  167SAPE  C21618853   5.120   4.203   7.715 -0.0821  0.1096  0.1853
  167SAPE  H16R18854   5.224   4.216   7.751 -0.3518  0.0717  1.0006
  167SAPE  H16S18855   5.101   4.105   7.665  1.8813  0.5927 -1.6303
  167SAPE  C21718856   5.035   4.209   7.850  0.8385  0.5796  0.2278
  167SAPE  H17R18857   5.052   4.113   7.903 -1.9304 -0.6424 -0.8822
  167SAPE  H17S18858   4.926   4.219   7.829  0.7022  3.2078  1.7155
  167SAPE  C21818859   5.077   4.322   7.943 -0.2901  0.1085  0.2822
  167SAPE  H18R18860   5.073   4.420   7.889 -0.7398 -0.5304 -0.8848
  167SAPE  H18S18861   5.180   4.298   7.976 -0.5151 -2.6749 -0.8075
  167SAPE  C21918862   4.975   4.322   8.058  0.4352 -0.3871 -0.0330
  167SAPE  H19R18863   4.956   4.218   8.093 -0.9340 -0.4372 -0.8502
  167SAPE  H19S18864   4.877   4.355   8.017  0.2216 -1.7384 -0.6409
  167SAPE  C22018865   5.010   4.412   8.181  0.1933 -0.0855 -0.1948
  167SAPE  H20R18866   5.025   4.516   8.144  2.7285 -0.4576 -0.3300
  167SAPE  H20S18867   5.102   4.373   8.230 -0.2910  1.7313  2.3847
  167SAPE  H20T18868   4.923   4.409   8.250  0.8184  0.1596  0.6225
  167SAPE   C3318869   5.602   3.699   6.818 -0.3548  0.5245 -0.1678
  167SAPE   H3X18870   5.558   3.612   6.764 -0.4216 -0.8582  1.9872
  167SAPE   H3Y18871   5.545   3.793   6.803 -0.2147  0.9110  1.5087
  167SAPE   C3418872   5.580   3.662   6.967  0.4508 -0.3734 -0.4355
  167SAPE   H4X18873   5.636   3.571   6.999  0.6723 -0.4318 -0.9713
  167SAPE   H4Y18874   5.471   3.641   6.971 -0.0545  2.0634  0.2549
  167SAPE   C3518875   5.598   3.779   7.065 -0.2759  0.2182  0.0492
  167SAPE   H5X18876   5.567   3.881   7.034  0.0295 -0.0579 -1.2648
  167SAPE   H5Y18877   5.706   3.797   7.082 -0.0644  2.5662 -2.9254
  167SAPE   C3618878   5.520   3.750   7.189 -0.2653  0.8999 -0.5071
  167SAPE   H6X18879   5.528   3.640   7.199  0.8378  0.9195 -1.0212
  167SAPE   H6Y18880   5.412   3.772   7.175 -0.9358 -0.0572  2.5607
  167SAPE   C3718881   5.581   3.810   7.323 -0.1571  0.0317  0.6894
  167SAPE   H7X18882   5.619   3.909   7.290  2.1283 -1.1510 -0.4676
  167SAPE   H7Y18883   5.667   3.749   7.357  1.0560  0.0125 -2.1008
  167SAPE   C3818884   5.480   3.818   7.431  0.4261  0.4375 -0.1781
  167SAPE   H8X18885   5.451   3.713   7.452 -0.5575  0.5279 -1.0355
  167SAPE   H8Y18886   5.388   3.877   7.410  1.2720  2.5088  1.5587
  167SAPE   C3918887   5.548   3.887   7.555  0.4636  0.4532 -0.0099
  167SAPE   H9X18888   5.579   3.988   7.522  0.3059  0.8085  0.8726
  167SAPE   H9Y18889   5.632   3.822   7.587 -0.7790 -0.5750  1.3353
  167SAPE  C31018890   5.443   3.904   7.660  0.4821  0.4175 -0.2931
  167SAPE  H10X18891   5.421   3.802   7.700  2.5716  0.4329  1.0565
  167SAPE  H10Y18892   5.345   3.941   7.622 -0.3989 -1.1847  0.2975
  167SAPE  C31118893   5.501   3.974   7.776  0.3731  0.2126 -0.2785
  167SAPE  H11X18894   5.535   4.078   7.755 -1.8472  0.4595 -3.1489
  167SAPE  H11Y18895   5.587   3.917   7.818  0.4629  0.0747 -0.6536
  167SAPE  C31218896   5.382   3.998   7.883 -0.2022 -0.6637 -0.7262
  167SAPE  H12X18897   5.372   3.914   7.955  1.1707 -0.9842 -0.8750
  167SAPE  H12Y18898   5.279   4.022   7.850 -0.6887 -1.2790  0.3164
  167SAPE  C31318899   5.403   4.117   7.973 -0.2041  0.4792 -0.2726
  167SAPE  H13X18900   5.318   4.133   8.043 -0.9896 -0.1683 -1.0621
  167SAPE  H13Y18901   5.421   4.208   7.912 -1.5593 -0.5486 -2.3279
  167SAPE  C31418902   5.530   4.102   8.064  0.4878  0.4740  0.5960
  167SAPE  H14X18903   5.620   4.084   8.001 -0.9512 -0.8362 -1.1823
  167SAPE  H14Y18904   5.521   4.014   8.131  1.0740  0.9743  1.3625
  167SAPE  C31518905   5.546   4.215   8.162 -0.2855  0.0202 -0.2486
  167SAPE  H15X18906   5.457   4.216   8.229 -0.0755  0.2951  0.0248
  167SAPE  H15Y18907   5.530   4.313   8.112 -1.7065  0.2876  0.6610
  167SAPE  C31618908   5.677   4.210   8.238  0.6635 -0.3977  0.1267
  167SAPE  H16X18909   5.687   4.114   8.293  0.6130 -0.5468 -0.1235
  167SAPE  H16Y18910   5.682   4.292   8.313 -3.0343 -1.0106  1.2376
  167SAPE  C31718911   5.796   4.234   8.141 -0.2473  0.2571 -0.7263
  167SAPE  H17X18912   5.778   4.315   8.067  0.1673  1.8439  0.8391
  167SAPE  H17Y18913   5.804   4.141   8.079 -0.7396 -0.3432  0.0904
  167SAPE  C31818914   5.934   4.257   8.214  0.0909  0.2822  0.5057
  167SAPE  H18X18915   6.007   4.242   8.132 -2.0036 -3.7719 -0.8931
  167SAPE  H18Y18916   5.943   4.187   8.299  0.8461 -0.7629 -0.4092
  167SAPE  H18Z18917   5.936   4.363   8.247 -1.4958  0.7858 -0.8432
  168SAPE     N18918   0.497   5.989   6.523 -0.0222  0.6900 -0.3529
  168SAPE   HN118919   0.427   5.975   6.598 -1.5850 -2.4008 -2.1606
  168SAPE   HN218920   0.546   6.078   6.545 -0.7102  0.6690  1.3906
  168SAPE   HN318921   0.452   5.992   6.429 -1.3426 -1.5237  0.1270
  168SAPE   C1218922   0.585   5.863   6.517  1.0044 -0.0644 -0.1132
  168SAPE  H12A18923   0.663   5.867   6.596  0.4134 -3.4766  0.8096
  168SAPE  H12B18924   0.647   5.884   6.428  1.3944 -0.5958  0.0274
  168SAPE   C1118925   0.502   5.735   6.516 -0.3303 -0.5574  0.3828
  168SAPE  H11A18926   0.569   5.648   6.528 -0.0059 -0.9602 -3.3097
  168SAPE  H11B18927   0.467   5.734   6.410  0.7342 -0.0264  0.0109
  168SAPE     P18928   0.280   5.620   6.603  0.4043 -0.6025 -0.6681
  168SAPE   O1318929   0.163   5.679   6.535 -0.5523 -0.0412 -0.3056
  168SAPE   O1418930   0.328   5.493   6.543 -0.6904 -0.4089  0.1450
  168SAPE   O1218931   0.402   5.731   6.619  0.2681 -0.1400 -0.1652
  168SAPE   O1118932   0.237   5.592   6.761 -0.0659  0.2763  0.0919
  168SAPE    C118933   0.136   5.671   6.826  1.2553 -0.1067  0.5146
  168SAPE    HA18934   0.048   5.674   6.759  1.7640  1.5716 -0.1487
  168SAPE    HB18935   0.103   5.639   6.927 -1.0989  3.0181  0.8965
  168SAPE    C218936   0.188   5.816   6.856 -0.0360  0.1943 -0.4319
  168SAPE    HS18937   0.199   5.853   6.752 -0.0736 -1.3623 -1.0094
  168SAPE   O2118938   0.311   5.811   6.936  0.2550  0.2050  0.0780
  168SAPE   C2118939   0.413   5.880   6.871 -0.2671 -0.5565  0.6536
  168SAPE   O2218940   0.398   5.966   6.782 -0.1490  0.5350  0.0437
  168SAPE   C2218941   0.551   5.833   6.920 -0.5449 -0.3935  0.0783
  168SAPE   H2R18942   0.543   5.804   7.027  2.1249 -1.9355 -0.0697
  168SAPE   H2S18943   0.571   5.737   6.869  0.0136 -0.3884  0.2776
  168SAPE    C318944   0.082   5.902   6.942  0.3390  0.1134  0.1092
  168SAPE    HX18945  -0.005   5.897   6.874 -0.5292  0.3392  1.1807
  168SAPE    HY18946   0.122   6.005   6.950  1.8675 -0.2615 -1.8863
  168SAPE   O3118947   0.060   5.843   7.077  0.4226  0.3699  0.2049
  168SAPE   C3118948  -0.044   5.891   7.140 -0.2922 -0.4127 -0.3153
  168SAPE   O3218949  -0.126   5.970   7.102 -0.0675  0.3469  0.1269
  168SAPE   C3218950  -0.050   5.831   7.284 -0.4116  0.2827 -0.1397
  168SAPE   H2X18951   0.035   5.876   7.340 -0.7903 -1.7741  2.2752
  168SAPE   H2Y18952  -0.023   5.725   7.266  0.9444  0.8297 -1.6554
  168SAPE   C2318953   0.666   5.937   6.901  0.3713  0.3649  1.0727
  168SAPE   H3R18954   0.671   5.970   6.795  2.2866 -2.2335  0.2463
  168SAPE   H3S18955   0.765   5.895   6.929  0.6070 -0.2135 -0.5492
  168SAPE   C2418956   0.640   6.065   6.981  0.6226 -0.0699 -0.1252
  168SAPE   H4R18957   0.539   6.107   6.961  1.8862  2.7911 -0.9835
  168SAPE   H4S18958   0.708   6.143   6.942 -0.8952  0.6870 -1.4091
  168SAPE   C2518959   0.653   6.053   7.132  0.4080  0.5146  0.0987
  168SAPE   H5R18960   0.755   6.042   7.172  0.8937 -0.3805 -1.2968
  168SAPE   C2618961   0.553   6.040   7.223  0.5502  0.0556 -0.2950
  168SAPE   H6R18962   0.575   6.016   7.328 -2.6032 -2.7334 -0.1252
  168SAPE   C2718963   0.400   6.034   7.199 -0.4794 -0.5363  0.3592
  168SAPE   H7R18964   0.379   5.930   7.166 -2.5432  0.1736 -0.7148
  168SAPE   H7S18965   0.369   6.091   7.109  2.4961  1.6494  0.5660
  168SAPE   C2818966   0.300   6.071   7.307 -0.3203  0.2166  0.6333
  168SAPE   H8R18967   0.222   6.139   7.268 -0.8790 -0.6962  0.1113
  168SAPE   C2918968   0.297   6.034   7.435 -0.0803  0.6625 -0.3816
  168SAPE   H9R18969   0.208   6.061   7.495 -1.5263  0.6214 -2.3938
  168SAPE  C21018970   0.387   5.938   7.504  0.1879  0.1933  0.0597
  168SAPE  H10R18971   0.455   6.007   7.559 -1.1883  2.8249 -1.3179
  168SAPE  H10S18972   0.452   5.877   7.439  1.9459 -0.1624  2.0405
  168SAPE  C21118973   0.308   5.853   7.591 -0.0720 -0.3671  0.0099
  168SAPE  H11R18974   0.252   5.784   7.527  0.6225 -0.4918 -0.4731
  168SAPE  C21218975   0.299   5.856   7.725  0.3582  0.2331  0.2218
  168SAPE  H12R18976   0.234   5.778   7.767  0.8419 -1.4487 -1.9838
  168SAPE  C21318977   0.370   5.940   7.831  0.3807  0.3356  0.4354
  168SAPE  H13R18978   0.470   5.979   7.801  0.0608  0.7465 -0.1220
  168SAPE  H13S18979   0.380   5.886   7.928  2.0398  0.1659  0.1925
  168SAPE  C21418980   0.280   6.062   7.845  0.7511 -1.0497 -0.7844
  168SAPE  H14R18981   0.227   6.102   7.759 -0.1540 -2.0891 -0.7327
  168SAPE  C21518982   0.251   6.116   7.963 -0.2459 -0.1251  0.3071
  168SAPE  H15R18983   0.167   6.187   7.972 -2.0312 -2.0218 -0.6949
  168SAPE  C21618984   0.312   6.074   8.093  0.4106 -0.3438  0.6008
  168SAPE  H16R18985   0.416   6.034   8.093  0.4413 -0.6164  4.1549
  168SAPE  H16S18986   0.245   5.999   8.142  0.7466 -1.5136 -0.6743
  168SAPE  C21718987   0.308   6.196   8.180 -0.7580 -0.0704 -0.1155
  168SAPE  H17R18988   0.202   6.229   8.191 -1.1087 -1.2365  0.0659
  168SAPE  H17S18989   0.356   6.280   8.126  0.7019 -0.9170 -0.1760
  168SAPE  C21818990   0.382   6.175   8.307  0.3287  0.1588  0.2588
  168SAPE  H18R18991   0.376   6.271   8.362 -2.4208  0.5115 -0.5425
  168SAPE  H18S18992   0.486   6.146   8.279 -0.2554 -1.9297  0.0532
  168SAPE  C21918993   0.330   6.062   8.391  0.3702 -0.5765 -0.2514
  168SAPE  H19R18994   0.383   6.071   8.488  1.3089  2.2756 -0.9227
  168SAPE  H19S18995   0.351   5.961   8.351  0.8074 -1.3279  1.7477
  168SAPE  C22018996   0.190   6.090   8.426  0.4980 -0.3477  0.4487
  168SAPE  H20R18997   0.117   6.080   8.342 -0.7051 -0.3453  1.4519
  168SAPE  H20S18998   0.187   6.193   8.466 -0.3427  0.1327 -0.7828
  168SAPE  H20T18999   0.158   6.017   8.504 -1.6023  0.5798  0.5358
  168SAPE   C3319000  -0.196   5.840   7.342  0.0933 -0.2443 -0.1151
  168SAPE   H3X19001  -0.251   5.784   7.263 -0.3761  0.2328 -0.1316
  168SAPE   H3Y19002  -0.235   5.944   7.343 -0.7412 -0.5374 -0.9377
  168SAPE   C3419003  -0.195   5.769   7.479 -0.6032 -0.7468 -0.3216
  168SAPE   H4X19004  -0.147   5.669   7.481  2.7778  0.6930  2.5484
  168SAPE   H4Y19005  -0.299   5.762   7.516 -0.5568 -2.9868 -0.5262
  168SAPE   C3519006  -0.130   5.860   7.582 -0.4134 -0.7003 -0.1751
  168SAPE   H5X19007  -0.196   5.949   7.597 -0.4137 -1.0635  2.4902
  168SAPE   H5Y19008  -0.028   5.899   7.562  0.0709 -0.5216  2.2379
  168SAPE   C3619009  -0.102   5.780   7.711 -0.6129 -0.7763 -0.1900
  168SAPE   H6X19010  -0.043   5.688   7.692 -0.2035 -0.7517  0.8609
  168SAPE   H6Y19011  -0.200   5.742   7.745 -1.7204  1.4153 -0.7276
  168SAPE   C3719012  -0.033   5.857   7.820 -0.1384  0.0996 -0.2758
  168SAPE   H7X19013  -0.102   5.937   7.855  0.5319  2.3075 -3.5572
  168SAPE   H7Y19014   0.049   5.919   7.779 -0.4174 -0.0543 -1.0777
  168SAPE   C3819015   0.014   5.777   7.941 -0.5640 -0.2068  0.0425
  168SAPE   H8X19016   0.096   5.835   7.990  0.1752  0.3885 -1.7907
  168SAPE   H8Y19017   0.054   5.679   7.909  0.9588 -0.0367  1.2674
  168SAPE   C3919018  -0.096   5.753   8.053  0.0844  0.4573  0.2062
  168SAPE   H9X19019  -0.073   5.663   8.113 -0.5649  0.0464 -0.1559
  168SAPE   H9Y19020  -0.198   5.730   8.016 -0.8188  1.1990  2.1036
  168SAPE  C31019021  -0.124   5.872   8.151  0.3111  0.0805 -0.0269
  168SAPE  H10X19022  -0.170   5.959   8.099 -2.1378 -1.2834 -0.2804
  168SAPE  H10Y19023  -0.019   5.893   8.182  1.1560 -1.7191 -1.4832
  168SAPE  C31119024  -0.218   5.834   8.261 -0.0356 -1.0287 -0.7465
  168SAPE  H11X19025  -0.179   5.765   8.338  0.8423  0.4124  0.1317
  168SAPE  H11Y19026  -0.314   5.792   8.224  0.5794 -1.7371 -1.5800
  168SAPE  C31219027  -0.257   5.964   8.347 -0.5071 -0.1366  0.0810
  168SAPE  H12X19028  -0.284   6.047   8.278 -0.3560  0.5632  0.8426
  168SAPE  H12Y19029  -0.160   5.994   8.392 -0.0100  0.8305 -1.5646
  168SAPE  C31319030  -0.369   5.948   8.452 -0.8477  0.2166 -0.2178
  168SAPE  H13X19031  -0.459   5.891   8.422 -2.0607  0.4358  2.6338
  168SAPE  H13Y19032  -0.393   6.053   8.478 -1.0831  0.1557 -0.1896
  168SAPE  C31419033  -0.309   5.889   8.583  0.4082  0.2468  0.0379
  168SAPE  H14X19034  -0.198   5.896   8.594  0.5255  2.3997 -1.8890
  168SAPE  H14Y19035  -0.331   5.781   8.571 -0.1229  0.3535  0.0471
  168SAPE  C31519036  -0.383   5.942   8.708 -0.0183 -0.0877  0.1883
  168SAPE  H15X19037  -0.492   5.921   8.711  0.0033 -0.3977 -0.6939
  168SAPE  H15Y19038  -0.372   6.052   8.694 -2.6795  0.2767  0.3872
  168SAPE  C31619039  -0.319   5.905   8.845  0.1565 -0.4418  0.0602
  168SAPE  H16X19040  -0.229   5.966   8.866  0.5743 -1.0167 -0.0291
  168SAPE  H16Y19041  -0.280   5.802   8.848  1.0381 -0.1575 -1.1886
  168SAPE  C31719042  -0.409   5.950   8.966  1.1999  0.1989 -0.6108
  168SAPE  H17X19043  -0.515   5.918   8.961  1.2508 -0.9837  2.9977
  168SAPE  H17Y19044  -0.407   6.060   8.982  0.1632  0.2213 -0.5449
  168SAPE  C31819045  -0.361   5.896   9.101 -0.8926  0.2645  0.9376
  168SAPE  H18X19046  -0.380   5.787   9.101 -2.6579  0.5329 -0.3430
  168SAPE  H18Y19047  -0.404   5.943   9.193 -0.7283 -1.4507  1.9426
  168SAPE  H18Z19048  -0.252   5.914   9.111 -0.6492 -0.0858 -0.8763
  169SAPE     N19049   5.585   1.410   6.344  0.2162  1.2205 -0.1129
  169SAPE   HN119050   5.582   1.335   6.415 -0.6420  1.8273  0.5183
  169SAPE   HN219051   5.608   1.496   6.398 -1.1967  1.8432 -0.4737
  169SAPE   HN319052   5.485   1.417   6.316 -0.3140 -1.1847  0.9711
  169SAPE   C1219053   5.685   1.415   6.229 -0.2054 -0.8382  0.1102
  169SAPE  H12A19054   5.670   1.327   6.162  1.5305 -0.4165 -0.9051
  169SAPE  H12B19055   5.786   1.403   6.273 -0.0366 -0.6355 -0.2217
  169SAPE   C1119056   5.682   1.554   6.161 -0.1202  0.0269 -0.3836
  169SAPE  H11A19057   5.577   1.571   6.128 -0.5151  1.2087  1.3935
  169SAPE  H11B19058   5.741   1.544   6.067 -0.7052  0.6194 -0.8278
  169SAPE     P19059   5.850   1.753   6.231 -0.1888  0.2564  0.1476
  169SAPE   O1319060   5.863   1.785   6.086  1.2075  0.0885  0.5725
  169SAPE   O1419061   5.826   1.865   6.319 -0.0283 -0.2062 -0.6556
  169SAPE   O1219062   5.718   1.661   6.250 -0.2599 -0.1070  0.1046
  169SAPE   O1119063   5.975   1.670   6.278  0.5066  0.0666  0.5231
  169SAPE    C119064   5.981   1.585   6.396 -0.4575 -0.2375 -0.1005
  169SAPE    HA19065   5.881   1.573   6.441  0.4078 -1.8506  1.5418
  169SAPE    HB19066   6.021   1.485   6.368 -0.5067  0.4349 -2.8333
  169SAPE    C219067   6.076   1.648   6.499 -0.6246  0.4014  0.1950
  169SAPE    HS19068   6.079   1.577   6.584 -0.4456 -1.2493 -1.1389
  169SAPE   O2119069   6.035   1.774   6.543  0.1589  0.4364  0.3508
  169SAPE   C2119070   5.939   1.767   6.635  0.5275 -0.8439  0.1876
  169SAPE   O2219071   5.886   1.666   6.679 -0.7440 -0.1333 -0.4453
  169SAPE   C2219072   5.916   1.915   6.687  0.6798  0.8668 -0.3128
  169SAPE   H2R19073   5.968   1.993   6.627 -1.1507  2.6652  0.3420
  169SAPE   H2S19074   5.807   1.929   6.676  0.7690  1.9322  0.0310
  169SAPE    C319075   6.217   1.646   6.432 -0.2880  0.4547  0.3781
  169SAPE    HX19076   6.236   1.729   6.360 -2.6715 -1.3291 -2.5548
  169SAPE    HY19077   6.205   1.556   6.368 -0.5222 -0.3254  1.4834
  169SAPE   O3119078   6.327   1.630   6.527  0.7139 -0.0208 -0.0410
  169SAPE   C3119079   6.377   1.739   6.578 -0.0957  0.4654  0.2225
  169SAPE   O3219080   6.349   1.852   6.549 -0.7173  0.1188 -0.4533
  169SAPE   C3219081   6.486   1.710   6.671 -0.0240 -0.8675  0.0625
  169SAPE   H2X19082   6.549   1.626   6.634  2.0178  0.1352  1.0647
  169SAPE   H2Y19083   6.435   1.675   6.764  0.9647 -0.6208  0.7174
  169SAPE   C2319084   5.939   1.929   6.841 -0.5696 -0.2741 -0.4503
  169SAPE   H3R19085   5.896   1.840   6.892  0.9374 -0.5731  0.3371
  169SAPE   H3S19086   5.876   2.016   6.869 -0.5386  0.0058 -1.2135
  169SAPE   C2419087   6.086   1.938   6.892  0.2484  0.4166 -0.1174
  169SAPE   H4R19088   6.087   1.984   6.993  1.5029  0.4155 -0.1202
  169SAPE   H4S19089   6.126   2.016   6.823 -2.0192  0.8506 -1.0250
  169SAPE   C2519090   6.166   1.810   6.895 -0.2616 -0.0573  0.0771
  169SAPE   H5R19091   6.162   1.757   6.799  0.2452 -0.7465  0.4279
  169SAPE   C2619092   6.250   1.759   6.983 -1.1220 -0.1514  0.5859
  169SAPE   H6R19093   6.299   1.663   6.960  0.3478  0.8411 -0.5009
  169SAPE   C2719094   6.282   1.822   7.119  0.8712  0.4933  0.1441
  169SAPE   H7R19095   6.330   1.746   7.184  2.1993  0.6415 -0.6476
  169SAPE   H7S19096   6.184   1.820   7.172 -0.6908  0.4767 -2.5479
  169SAPE   C2819097   6.337   1.963   7.131 -0.0341  0.6086 -0.7816
  169SAPE   H8R19098   6.352   2.012   7.033 -0.6089  0.6282 -0.8592
  169SAPE   C2919099   6.354   2.030   7.247 -0.3461 -0.1884 -1.0415
  169SAPE   H9R19100   6.406   2.127   7.246  0.7993 -0.7761 -0.1450
  169SAPE  C21019101   6.324   1.967   7.382 -0.6766  0.6382  0.1357
  169SAPE  H10R19102   6.414   1.984   7.446  0.3885  1.2134 -1.4412
  169SAPE  H10S19103   6.313   1.858   7.366 -1.6377  0.9931 -1.8405
  169SAPE  C21119104   6.197   2.026   7.439 -0.7667  0.1102 -0.8240
  169SAPE  H11R19105   6.119   2.027   7.361 -0.8412 -0.0996 -0.7516
  169SAPE  C21219106   6.165   2.072   7.561 -0.2717 -0.6914 -0.1136
  169SAPE  H12R19107   6.068   2.125   7.566  0.7831  1.2034  1.7923
  169SAPE  C21319108   6.263   2.087   7.674  0.5194  1.1665  0.0491
  169SAPE  H13R19109   6.346   2.144   7.627 -0.9938  1.5881 -2.2682
  169SAPE  H13S19110   6.310   1.988   7.687  1.3351  1.2969 -1.6762
  169SAPE  C21419111   6.214   2.152   7.803 -0.4298 -0.1128 -0.1908
  169SAPE  H14R19112   6.130   2.223   7.806 -0.3663 -0.0238 -0.4549
  169SAPE  C21519113   6.266   2.131   7.926 -0.4828  0.1811 -0.1522
  169SAPE  H15R19114   6.233   2.182   8.018 -1.4692 -1.8138  0.6621
  169SAPE  C21619115   6.379   2.030   7.950 -0.7376  0.4007  0.5832
  169SAPE  H16R19116   6.467   2.086   7.989 -0.1846  0.6096 -0.9081
  169SAPE  H16S19117   6.406   1.972   7.860  0.6857  1.1802  0.4712
  169SAPE  C21719118   6.360   1.917   8.058  0.2702 -0.6578 -1.1229
  169SAPE  H17R19119   6.266   1.865   8.028  0.1250 -0.6888 -0.6151
  169SAPE  H17S19120   6.337   1.976   8.149 -0.2359  0.0512 -1.7015
  169SAPE  C21819121   6.477   1.825   8.078  0.8757 -0.7143 -0.5083
  169SAPE  H18R19122   6.553   1.866   8.148  0.6236  1.3049 -1.3371
  169SAPE  H18S19123   6.523   1.800   7.981  1.7803  2.4247 -1.0137
  169SAPE  C21919124   6.434   1.695   8.145 -0.1275  0.3443 -0.0380
  169SAPE  H19R19125   6.377   1.723   8.236  1.5789 -0.1933  1.2468
  169SAPE  H19S19126   6.522   1.640   8.185 -0.6347 -0.2239  0.3114
  169SAPE  C22019127   6.357   1.605   8.055  0.1814  0.1331 -0.3367
  169SAPE  H20R19128   6.247   1.619   8.047  0.2513  1.0489  0.1744
  169SAPE  H20S19129   6.379   1.509   8.107  3.3724  1.7826  1.6852
  169SAPE  H20T19130   6.402   1.591   7.954 -0.2995  0.2921 -0.5789
  169SAPE   C3319131   6.564   1.833   6.709 -0.2287  0.0970 -0.4420
  169SAPE   H3X19132   6.497   1.905   6.759  1.0578  1.3938 -0.5212
  169SAPE   H3Y19133   6.622   1.860   6.618  0.5107 -0.0541 -0.0201
  169SAPE   C3419134   6.668   1.803   6.818 -0.2464 -0.4151 -0.1515
  169SAPE   H4X19135   6.718   1.901   6.837 -0.7041 -0.6272  2.5056
  169SAPE   H4Y19136   6.752   1.740   6.782  0.5823  1.1609 -1.1086
  169SAPE   C3519137   6.613   1.753   6.942 -0.5994  0.1116 -0.0825
  169SAPE   H5X19138   6.559   1.656   6.933 -1.4522  0.5280  0.4015
  169SAPE   H5Y19139   6.544   1.833   6.977  0.6553  0.8396  0.8138
  169SAPE   C3619140   6.718   1.753   7.065  0.4357  0.4238  0.4696
  169SAPE   H6X19141   6.784   1.840   7.046 -1.7637  2.6497  2.4151
  169SAPE   H6Y19142   6.786   1.665   7.062  1.4324  1.0582  2.7915
  169SAPE   C3719143   6.657   1.764   7.208  0.0590  0.2237 -0.4726
  169SAPE   H7X19144   6.585   1.681   7.225  0.0412  0.4543  0.6728
  169SAPE   H7Y19145   6.602   1.860   7.215 -0.2913  0.1561 -1.9542
  169SAPE   C3819146   6.760   1.759   7.325 -0.0047 -0.2606  0.0167
  169SAPE   H8X19147   6.865   1.777   7.293  0.4917 -1.2508  1.0214
  169SAPE   H8Y19148   6.764   1.655   7.363 -1.3522  0.2704  1.7083
  169SAPE   C3919149   6.740   1.853   7.442 -0.0927  0.4980 -0.3293
  169SAPE   H9X19150   6.636   1.847   7.481  0.2613 -0.7671  0.4603
  169SAPE   H9Y19151   6.730   1.956   7.401 -1.6245  0.5525  0.1232
  169SAPE  C31019152   6.849   1.839   7.550  0.0117 -0.1983 -0.0310
  169SAPE  H10X19153   6.926   1.918   7.534 -1.2318  1.1426  0.3063
  169SAPE  H10Y19154   6.911   1.750   7.529  1.9901  0.6298  1.8716
  169SAPE  C31119155   6.797   1.838   7.690 -0.4878 -0.1384 -0.0698
  169SAPE  H11X19156   6.750   1.740   7.714  0.4925 -0.8733 -0.9930
  169SAPE  H11Y19157   6.726   1.923   7.695  1.9587  1.9516  2.5393
  169SAPE  C31219158   6.915   1.849   7.788  0.0093  0.3088  0.2760
  169SAPE  H12X19159   6.982   1.935   7.765 -0.3030  0.6594  0.6617
  169SAPE  H12Y19160   6.977   1.760   7.765  0.3944  1.0534 -1.7400
  169SAPE  C31319161   6.881   1.830   7.938 -0.4469 -0.0062  0.5220
  169SAPE  H13X19162   6.847   1.726   7.957  1.4533 -0.2471  3.2676
  169SAPE  H13Y19163   6.805   1.908   7.957 -0.2069  1.0709 -2.5045
  169SAPE  C31419164   6.999   1.867   8.029  0.6235  0.2022 -0.1654
  169SAPE  H14X19165   6.996   1.977   8.040 -0.1762  0.0086  1.8640
  169SAPE  H14Y19166   7.091   1.827   7.981  0.3590 -0.0443 -0.4694
  169SAPE  C31519167   6.997   1.802   8.161  0.1118  0.5984  0.1147
  169SAPE  H15X19168   7.006   1.691   8.154 -1.9142  0.2670  1.6423
  169SAPE  H15Y19169   6.907   1.826   8.223  0.9884  0.7688  1.3590
  169SAPE  C31619170   7.116   1.850   8.247  1.5321 -0.1811 -0.1761
  169SAPE  H16X19171   7.100   1.958   8.265  2.0497 -0.0983 -0.1784
  169SAPE  H16Y19172   7.209   1.831   8.188  0.5604 -0.5317 -1.6442
  169SAPE  C31719173   7.130   1.772   8.383 -0.3745 -0.1217  0.6461
  169SAPE  H17X19174   7.227   1.795   8.432 -1.0192 -0.1373  1.9820
  169SAPE  H17Y19175   7.136   1.663   8.364 -0.3821  0.0666 -0.5266
  169SAPE  C31819176   7.016   1.790   8.483 -0.8615  0.7723  0.3716
  169SAPE  H18X19177   7.041   1.747   8.582  0.0445 -1.8552 -0.9155
  169SAPE  H18Y19178   6.927   1.729   8.459 -0.3870  0.4997 -0.7327
  169SAPE  H18Z19179   6.991   1.899   8.487  0.2509  1.0917 -0.7729
  170SAPE     N19180   6.787   6.012   6.029 -0.2028  0.4767 -0.5635
  170SAPE   HN119181   6.844   5.965   5.956  0.3105  1.5327 -0.8665
  170SAPE   HN219182   6.714   6.076   5.990 -4.7747 -2.0158  2.8319
  170SAPE   HN319183   6.852   6.074   6.081  0.3727  0.0303 -0.7398
  170SAPE   C1219184   6.715   5.912   6.117 -0.0804 -0.1265 -0.3614
  170SAPE  H12A19185   6.791   5.841   6.157 -1.3319 -2.1596 -1.4370
  170SAPE  H12B19186   6.635   5.863   6.057 -1.4058  1.9817 -0.4440
  170SAPE   C1119187   6.647   5.984   6.240 -0.2291  0.6477 -0.0605
  170SAPE  H11A19188   6.719   6.032   6.310 -0.6334  1.9244 -0.4998
  170SAPE  H11B19189   6.597   5.905   6.301  1.3561  1.0578  1.9004
  170SAPE     P19190   6.403   6.046   6.174  0.1070  0.2385 -0.1326
  170SAPE   O1319191   6.345   6.152   6.085  0.4449 -0.3602  0.7197
  170SAPE   O1419192   6.388   5.911   6.116 -0.7100  0.3831 -0.5054
  170SAPE   O1219193   6.555   6.089   6.204  0.5697  0.3679 -0.0050
  170SAPE   O1119194   6.338   6.042   6.315  0.6521  0.5106 -0.0617
  170SAPE    C119195   6.347   6.145   6.412  0.2021 -0.1061 -0.2752
  170SAPE    HA19196   6.337   6.248   6.373 -1.6207  0.6679  1.9744
  170SAPE    HB19197   6.249   6.153   6.463 -0.2486 -0.1469 -1.1350
  170SAPE    C219198   6.449   6.122   6.527  1.1746  0.2578  0.1366
  170SAPE    HS19199   6.545   6.081   6.490  1.4449 -0.6636  1.7594
  170SAPE   O2119200   6.379   6.024   6.612 -0.5232 -0.0697 -0.0948
  170SAPE   C2119201   6.433   5.904   6.627  0.5496 -0.3849 -0.1521
  170SAPE   O2219202   6.530   5.856   6.568  0.2587 -0.4884 -0.1553
  170SAPE   C2219203   6.358   5.838   6.745  0.6027 -0.3953 -0.3315
  170SAPE   H2R19204   6.404   5.880   6.837 -1.3391  0.9153  0.1030
  170SAPE   H2S19205   6.252   5.868   6.728  0.5551  0.3007  1.0670
  170SAPE    C319206   6.461   6.252   6.603  0.6192 -0.6123 -0.9921
  170SAPE    HX19207   6.362   6.271   6.650  1.5115 -1.5641  1.4258
  170SAPE    HY19208   6.480   6.345   6.545 -0.0576  0.7715  0.8858
  170SAPE   O3119209   6.553   6.229   6.716  0.6216 -0.6217  0.3420
  170SAPE   C3119210   6.544   6.305   6.823 -0.3049  0.8622  0.0321
  170SAPE   O3219211   6.460   6.386   6.845 -0.0513 -0.0415  0.4117
  170SAPE   C3219212   6.641   6.282   6.926 -0.1257  0.1797 -0.1606
  170SAPE   H2X19213   6.726   6.348   6.898  1.1026 -0.6475  1.4360
  170SAPE   H2Y19214   6.675   6.177   6.935 -1.2222 -0.1462  0.4538
  170SAPE   C2319215   6.385   5.687   6.743 -0.6770 -0.3492 -0.2358
  170SAPE   H3R19216   6.494   5.664   6.731 -1.2764 -3.9386  0.0711
  170SAPE   H3S19217   6.331   5.634   6.663  0.6960 -0.7937 -0.9044
  170SAPE   C2419218   6.339   5.603   6.870 -0.7755  0.5270  0.8417
  170SAPE   H4R19219   6.398   5.634   6.959 -0.1425 -2.4286  1.5809
  170SAPE   H4S19220   6.364   5.496   6.850  0.9381  1.3569 -2.0808
  170SAPE   C2519221   6.188   5.603   6.897  0.2593  0.2010 -1.0707
  170SAPE   H5R19222   6.130   5.640   6.812 -2.6454  0.0130  0.6780
  170SAPE   C2619223   6.122   5.566   7.006  0.1493 -1.1095  0.1333
  170SAPE   H6R19224   6.012   5.561   6.999  0.2204 -1.9878 -0.5566
  170SAPE   C2719225   6.187   5.508   7.128 -0.1233 -0.3486 -0.0855
  170SAPE   H7R19226   6.287   5.462   7.112 -0.9352 -1.6280 -1.9190
  170SAPE   H7S19227   6.127   5.420   7.160  0.0039 -0.9284 -1.3656
  170SAPE   C2819228   6.197   5.618   7.231 -0.0293 -0.0992 -0.4093
  170SAPE   H8R19229   6.234   5.716   7.199 -0.5240  0.1902 -0.0981
  170SAPE   C2919230   6.175   5.602   7.366  0.3236  0.2878  0.0140
  170SAPE   H9R19231   6.205   5.688   7.428  2.8060  0.2394 -1.0312
  170SAPE  C21019232   6.134   5.484   7.450 -0.3483 -0.1081  0.2481
  170SAPE  H10R19233   6.227   5.435   7.487 -1.5335 -1.7595  1.1762
  170SAPE  H10S19234   6.088   5.405   7.385  0.4060 -2.8222  2.7840
  170SAPE  C21119235   6.036   5.528   7.547 -0.0484 -0.2299 -1.1216
  170SAPE  H11R19236   5.934   5.552   7.513 -0.1816  0.8094 -0.0521
  170SAPE  C21219237   6.062   5.558   7.679 -1.0093 -0.1159 -0.1590
  170SAPE  H12R19238   5.981   5.602   7.739 -1.1652 -0.6322  0.0064
  170SAPE  C21319239   6.191   5.544   7.754  0.2040 -0.0372 -0.2633
  170SAPE  H13R19240   6.273   5.502   7.692  2.0570  1.7910  0.8164
  170SAPE  H13S19241   6.183   5.475   7.840  1.0403  0.4541  0.2262
  170SAPE  C21419242   6.235   5.679   7.817 -0.2291  0.2307 -0.5058
  170SAPE  H14R19243   6.243   5.770   7.755 -3.4154  2.5104  2.0340
  170SAPE  C21519244   6.254   5.707   7.945  0.0545 -0.6654 -0.0736
  170SAPE  H15R19245   6.270   5.815   7.961 -1.7486 -0.3537 -0.1559
  170SAPE  C21619246   6.227   5.625   8.067 -0.3606 -0.1383 -0.4946
  170SAPE  H16R19247   6.284   5.658   8.157 -1.3624 -1.5362  0.7116
  170SAPE  H16S19248   6.262   5.520   8.052  0.6613 -0.1858  1.8448
  170SAPE  C21719249   6.075   5.620   8.101 -0.1315  0.5483  0.1496
  170SAPE  H17R19250   6.056   5.569   8.197 -1.4061  1.3273  0.3413
  170SAPE  H17S19251   6.025   5.549   8.032  1.0167 -1.5010  1.3405
  170SAPE  C21819252   6.003   5.752   8.099 -0.5779 -0.0082 -0.1250
  170SAPE  H18R19253   6.006   5.781   7.992 -1.0976 -0.8716 -0.3797
  170SAPE  H18S19254   6.058   5.811   8.175 -0.9378 -0.6450  0.6493
  170SAPE  C21919255   5.850   5.747   8.121 -1.0697 -0.6344  0.7459
  170SAPE  H19R19256   5.810   5.659   8.065  1.3019 -0.1769 -1.9092
  170SAPE  H19S19257   5.813   5.842   8.076  0.1952  1.1752  3.2818
  170SAPE  C22019258   5.806   5.747   8.264  0.3448  0.4646 -0.4973
  170SAPE  H20R19259   5.758   5.844   8.291 -0.3134 -0.1994  0.7930
  170SAPE  H20S19260   5.898   5.741   8.326 -0.5488  0.6665  0.8894
  170SAPE  H20T19261   5.739   5.661   8.283 -0.2119  0.6175 -1.7069
  170SAPE   C3319262   6.594   6.319   7.069  0.1065 -0.0660  0.0430
  170SAPE   H3X19263   6.504   6.261   7.098  0.6519 -1.9125 -1.7608
  170SAPE   H3Y19264   6.557   6.423   7.059 -3.3168 -0.9242  2.0873
  170SAPE   C3419265   6.708   6.305   7.175 -0.2652 -0.7006  0.4962
  170SAPE   H4X19266   6.786   6.378   7.146 -1.0826  0.1886  0.4895
  170SAPE   H4Y19267   6.738   6.199   7.186 -1.1956 -0.7556  3.5314
  170SAPE   C3519268   6.643   6.345   7.312 -1.3965 -0.3374  0.2701
  170SAPE   H5X19269   6.554   6.284   7.336 -1.1138 -1.4022 -1.2242
  170SAPE   H5Y19270   6.621   6.454   7.308  0.2744  0.0927  1.7149
  170SAPE   C3619271   6.753   6.335   7.421  0.3572  0.0749 -0.3309
  170SAPE   H6X19272   6.824   6.419   7.403  1.1135 -0.4207  0.2299
  170SAPE   H6Y19273   6.799   6.233   7.414  1.6151  0.6245 -0.4634
  170SAPE   C3719274   6.712   6.356   7.558  0.5142  0.0304 -0.2074
  170SAPE   H7X19275   6.638   6.278   7.584  0.8375 -0.1547  0.1630
  170SAPE   H7Y19276   6.671   6.456   7.587  1.5055  0.1833  0.7598
  170SAPE   C3819277   6.835   6.341   7.652  0.4438 -0.1689 -0.4368
  170SAPE   H8X19278   6.912   6.414   7.621 -0.4220  0.4579 -1.1412
  170SAPE   H8Y19279   6.874   6.238   7.637  0.3192 -0.0102 -1.9065
  170SAPE   C3919280   6.792   6.378   7.800 -0.5985 -0.5679 -0.4657
  170SAPE   H9X19281   6.743   6.477   7.810  0.9572  0.1572  0.2818
  170SAPE   H9Y19282   6.888   6.398   7.851 -0.6989 -0.0403 -0.4686
  170SAPE  C31019283   6.713   6.273   7.875  0.4365 -1.4077  0.2102
  170SAPE  H10X19284   6.769   6.178   7.889  1.1156 -1.2211 -1.1078
  170SAPE  H10Y19285   6.626   6.240   7.815  0.2698  0.8219 -0.8830
  170SAPE  C31119286   6.668   6.335   8.002  0.2920 -0.2464  0.2675
  170SAPE  H11X19287   6.600   6.422   7.985  1.2958  0.4438 -0.3584
  170SAPE  H11Y19288   6.764   6.382   8.033  0.0694  1.7963 -1.8197
  170SAPE  C31219289   6.619   6.232   8.108 -0.0198  0.2237  0.2931
  170SAPE  H12X19290   6.699   6.156   8.098  0.4698  0.7130  0.4598
  170SAPE  H12Y19291   6.524   6.183   8.079  0.4207  0.3252 -1.4156
  170SAPE  C31319292   6.616   6.298   8.249 -0.4735  0.9143  0.0626
  170SAPE  H13X19293   6.705   6.364   8.253  0.2177 -0.0405  3.1277
  170SAPE  H13Y19294   6.646   6.226   8.329 -1.4863  2.0854  1.5472
  170SAPE  C31419295   6.488   6.373   8.289 -0.1232 -0.7087 -0.0077
  170SAPE  H14X19296   6.396   6.310   8.290 -0.4211 -0.2777 -0.0947
  170SAPE  H14Y19297   6.465   6.448   8.210  0.2133  0.2539  0.7874
  170SAPE  C31519298   6.498   6.467   8.411  0.5401 -0.8173 -0.0471
  170SAPE  H15X19299   6.398   6.517   8.405  0.4337 -1.1824 -1.7883
  170SAPE  H15Y19300   6.579   6.540   8.390  0.3972 -0.6242  0.0566
  170SAPE  C31619301   6.539   6.407   8.548  0.0420 -0.3989  0.4570
  170SAPE  H16X19302   6.563   6.498   8.608 -0.7615  1.1716 -1.4947
  170SAPE  H16Y19303   6.643   6.367   8.552  1.7389  3.4660 -0.4798
  170SAPE  C31719304   6.437   6.315   8.618 -0.5480  1.1976 -0.0767
  170SAPE  H17X19305   6.473   6.275   8.716 -1.5865  1.4420  0.4208
  170SAPE  H17Y19306   6.425   6.227   8.552 -0.3726 -1.7667  3.4700
  170SAPE  C31819307   6.297   6.371   8.630 -0.1312  0.6500 -0.4285
  170SAPE  H18X19308   6.313   6.474   8.669  0.9039  0.3868 -0.1300
  170SAPE  H18Y19309   6.232   6.321   8.705 -0.3136  0.3326 -0.7981
  170SAPE  H18Z19310   6.238   6.367   8.536 -1.2728 -0.3006  0.3047
  171SAPE     N19311   3.353   0.113   6.425  0.2040 -0.3563  0.5468
  171SAPE   HN119312   3.281   0.181   6.456 -1.0785 -1.5956  0.3472
  171SAPE   HN219313   3.305   0.024   6.447  0.2281 -0.4578  0.1992
  171SAPE   HN319314   3.435   0.133   6.486 -0.0412  0.0694  0.7451
  171SAPE   C1219315   3.380   0.126   6.275  0.7114  0.4912  0.0684
  171SAPE  H12A19316   3.441   0.045   6.230  0.1647  0.7112 -1.1325
  171SAPE  H12B19317   3.431   0.223   6.252  1.2406  0.4601  1.0780
  171SAPE   C1119318   3.250   0.126   6.200  0.3405 -0.0938 -0.1974
  171SAPE  H11A19319   3.261   0.140   6.090  0.3330  0.7553 -0.0993
  171SAPE  H11B19320   3.203   0.222   6.233 -1.7739  0.5167 -4.2764
  171SAPE     P19321   3.017   0.015   6.186 -0.1491 -0.4182 -0.4792
  171SAPE   O1319322   2.994   0.100   6.066  0.7231 -0.0956 -0.0399
  171SAPE   O1419323   2.963  -0.121   6.181  0.6618 -0.0319 -0.0398
  171SAPE   O1219324   3.171   0.010   6.231 -0.3168  0.2037 -0.1012
  171SAPE   O1119325   2.948   0.088   6.310 -0.9513  0.0965 -0.1841
  171SAPE    C119326   2.925   0.014   6.429 -0.1133 -0.4433 -0.1589
  171SAPE    HA19327   2.884  -0.088   6.413  0.1376 -0.5239 -0.2982
  171SAPE    HB19328   3.022   0.013   6.484  0.6536  0.8068 -1.4086
  171SAPE    C219329   2.822   0.086   6.522 -0.2308  0.2934  0.0295
  171SAPE    HS19330   2.860   0.185   6.556  2.0147 -0.7107  0.6530
  171SAPE   O2119331   2.799   0.012   6.641 -0.5197  0.1234 -0.0233
  171SAPE   C2119332   2.896   0.008   6.731 -0.5003  0.1933 -0.1310
  171SAPE   O2219333   3.007   0.059   6.729  0.1878  0.2779 -0.3224
  171SAPE   C2219334   2.843  -0.055   6.855  0.2429 -0.4739  0.1131
  171SAPE   H2R19335   2.811  -0.157   6.823 -1.1046 -0.1434  0.3368
  171SAPE   H2S19336   2.923  -0.067   6.931  0.4585 -3.0669 -0.4108
  171SAPE    C319337   2.697   0.117   6.435 -0.0768  0.4289 -0.0129
  171SAPE    HX19338   2.667   0.025   6.379 -1.5408  0.7069  0.2613
  171SAPE    HY19339   2.728   0.189   6.356  0.1662  0.8834  0.4977
  171SAPE   O3119340   2.583   0.172   6.509 -0.0701 -1.0326  0.4182
  171SAPE   C3119341   2.510   0.087   6.581 -0.2839  0.2736  0.1558
  171SAPE   O3219342   2.525  -0.033   6.584 -0.0057  0.0660  0.0354
  171SAPE   C3219343   2.401   0.170   6.647  0.3931  0.1981  0.3695
  171SAPE   H2X19344   2.316   0.166   6.576  1.3734 -0.6083 -0.8143
  171SAPE   H2Y19345   2.430   0.278   6.652 -0.6082  0.4846  0.1276
  171SAPE   C2319346   2.715   0.012   6.902  0.2837  0.2369 -0.3953
  171SAPE   H3R19347   2.670  -0.047   6.984  0.6357  3.3568  2.2279
  171SAPE   H3S19348   2.641   0.001   6.820  0.2242  0.7169 -0.4105
  171SAPE   C2419349   2.715   0.149   6.961 -0.5286 -1.0507  0.2236
  171SAPE   H4R19350   2.612   0.180   6.991 -0.4363 -0.8567  0.3422
  171SAPE   H4S19351   2.752   0.220   6.885 -3.0116  0.5958  0.4127
  171SAPE   C2519352   2.809   0.133   7.077 -0.5008  0.3637 -0.6011
  171SAPE   H5R19353   2.916   0.132   7.051 -0.2060 -1.7022  0.4711
  171SAPE   C2619354   2.784   0.105   7.209 -0.4176  0.4705 -0.4571
  171SAPE   H6R19355   2.867   0.123   7.278  0.3150  1.6208 -1.6000
  171SAPE   C2719356   2.646   0.085   7.268 -0.5420  0.2365 -0.2329
  171SAPE   H7R19357   2.651  -0.003   7.335 -1.3623  0.0467 -0.4192
  171SAPE   H7S19358   2.583   0.051   7.183 -3.4751  1.3427  1.3496
  171SAPE   C2819359   2.568   0.202   7.335 -0.8769 -0.1873  0.0319
  171SAPE   H8R19360   2.569   0.297   7.280  1.7015  0.8985  1.7820
  171SAPE   C2919361   2.523   0.201   7.463  0.6390  0.4563  1.2125
  171SAPE   H9R19362   2.477   0.291   7.507 -0.2309  1.9369 -2.3792
  171SAPE  C21019363   2.544   0.089   7.568 -0.3350  0.5944 -0.0771
  171SAPE  H10R19364   2.610   0.010   7.526 -2.6907 -1.7880  0.3960
  171SAPE  H10S19365   2.443   0.046   7.589  0.3437 -1.1039 -0.1421
  171SAPE  C21119366   2.602   0.135   7.696  0.6951  0.1415 -0.2903
  171SAPE  H11R19367   2.711   0.125   7.705  0.6575  0.4685  0.6929
  171SAPE  C21219368   2.542   0.191   7.803  0.2218  0.4475  0.2312
  171SAPE  H12R19369   2.607   0.218   7.888  1.5012  0.8834 -0.8679
  171SAPE  C21319370   2.393   0.218   7.814 -0.6673 -0.4133  0.5949
  171SAPE  H13R19371   2.370   0.276   7.722 -3.1955 -1.4526  0.5078
  171SAPE  H13S19372   2.372   0.289   7.897  2.0905 -0.0865  1.1051
  171SAPE  C21419373   2.301   0.103   7.816 -0.0222 -0.1275 -0.1807
  171SAPE  H14R19374   2.257   0.077   7.719  0.4636  0.1322 -0.4752
  171SAPE  C21519375   2.269   0.033   7.926  0.3184  0.2560  0.4238
  171SAPE  H15R19376   2.202  -0.053   7.918  0.0746  0.3435  1.3541
  171SAPE  C21619377   2.318   0.047   8.068  0.3121  0.0628  1.3872
  171SAPE  H16R19378   2.229   0.076   8.128 -0.8383  1.4282 -0.8326
  171SAPE  H16S19379   2.388   0.133   8.076  0.9388 -0.4185  1.1158
  171SAPE  C21719380   2.381  -0.083   8.115 -0.9339 -0.2375 -0.3934
  171SAPE  H17R19381   2.454  -0.122   8.042 -0.5342  0.2236 -0.2407
  171SAPE  H17S19382   2.301  -0.160   8.113 -1.4815  0.1735  2.0568
  171SAPE  C21819383   2.426  -0.070   8.255  0.6663  0.2862  1.1393
  171SAPE  H18R19384   2.332  -0.050   8.310  0.6696 -0.4632  1.4277
  171SAPE  H18S19385   2.480   0.027   8.258  0.4158  0.6899 -2.3687
  171SAPE  C21919386   2.498  -0.200   8.302  0.3511 -0.3187  0.7958
  171SAPE  H19R19387   2.553  -0.187   8.397 -0.7113  2.3526  1.1496
  171SAPE  H19S19388   2.567  -0.225   8.218  0.7431 -0.5410  1.1852
  171SAPE  C22019389   2.404  -0.310   8.316 -0.7270 -0.1818 -0.9218
  171SAPE  H20R19390   2.468  -0.389   8.359  1.8786  2.5601  0.6583
  171SAPE  H20S19391   2.371  -0.352   8.219  1.1519 -1.4551 -1.0676
  171SAPE  H20T19392   2.328  -0.295   8.396  0.6807 -0.6035  0.5642
  171SAPE   C3319393   2.372   0.128   6.788 -0.1150 -0.2397 -0.1905
  171SAPE   H3X19394   2.458   0.143   6.856 -0.7449  1.3365  0.3023
  171SAPE   H3Y19395   2.356   0.018   6.791  1.8923 -0.6438 -2.0677
  171SAPE   C3419396   2.248   0.204   6.846 -0.6122  0.8338  0.6581
  171SAPE   H4X19397   2.162   0.211   6.776 -0.0023 -3.7920 -0.9121
  171SAPE   H4Y19398   2.287   0.307   6.862 -0.7427  1.4642 -2.3976
  171SAPE   C3519399   2.198   0.129   6.970  0.1357  0.1795 -0.5483
  171SAPE   H5X19400   2.170   0.028   6.932  0.4354 -0.3682  0.6407
  171SAPE   H5Y19401   2.108   0.175   7.015 -0.0265 -0.9595  0.3204
  171SAPE   C3619402   2.299   0.099   7.083  0.2640  0.5349 -1.1026
  171SAPE   H6X19403   2.326   0.198   7.126 -1.0423  0.2655  0.4312
  171SAPE   H6Y19404   2.388   0.057   7.030 -0.4575 -0.1082 -1.8188
  171SAPE   C3719405   2.249  -0.007   7.189 -0.4234  0.2625 -0.6284
  171SAPE   H7X19406   2.333  -0.025   7.259 -1.6366  0.7592  1.0265
  171SAPE   H7Y19407   2.215  -0.098   7.135 -0.6711 -1.9192  2.9167
  171SAPE   C3819408   2.128   0.043   7.270 -0.2558 -0.0144 -0.0584
  171SAPE   H8X19409   2.054   0.058   7.189  0.9001 -3.1020 -1.8703
  171SAPE   H8Y19410   2.176   0.130   7.319  2.1824 -1.6344  0.6534
  171SAPE   C3919411   2.068  -0.060   7.365 -0.9034 -0.2945 -0.9449
  171SAPE   H9X19412   2.017  -0.143   7.312  1.6408  0.4071 -4.9665
  171SAPE   H9Y19413   1.994  -0.003   7.425 -0.7919 -0.0513 -1.0337
  171SAPE  C31019414   2.164  -0.110   7.466 -0.0951  0.5570 -0.2671
  171SAPE  H10X19415   2.228  -0.032   7.513  2.0364 -1.9797  1.3596
  171SAPE  H10Y19416   2.234  -0.184   7.420  0.2158 -0.2856  1.4539
  171SAPE  C31119417   2.076  -0.181   7.579 -0.2418  1.1364  0.7219
  171SAPE  H11X19418   2.013  -0.249   7.518  1.4089  1.9290 -2.0066
  171SAPE  H11Y19419   2.000  -0.109   7.616 -0.1586  1.5605  0.0768
  171SAPE  C31219420   2.155  -0.246   7.686  0.5594  1.0112 -0.4017
  171SAPE  H12X19421   2.212  -0.167   7.739  1.5107  0.9973 -1.3933
  171SAPE  H12Y19422   2.228  -0.322   7.651  1.5702 -0.0513  3.5160
  171SAPE  C31319423   2.056  -0.305   7.795  0.0269  0.4337  0.5736
  171SAPE  H13X19424   1.976  -0.363   7.742 -1.7849  2.2666  1.1754
  171SAPE  H13Y19425   2.005  -0.218   7.840 -0.1160  0.5858  0.1248
  171SAPE  C31419426   2.127  -0.378   7.913  0.2027  0.3764 -0.1810
  171SAPE  H14X19427   2.211  -0.314   7.948 -0.5412  0.2851  1.9106
  171SAPE  H14Y19428   2.172  -0.473   7.878  1.2774  0.6557  0.3951
  171SAPE  C31519429   2.038  -0.424   8.029  0.0555  0.7051  0.5056
  171SAPE  H15X19430   1.976  -0.342   8.073 -1.2920 -0.0802  0.1297
  171SAPE  H15Y19431   2.113  -0.457   8.104 -0.3853 -0.1479  0.5864
  171SAPE  C31619432   1.947  -0.542   7.991  0.5883  0.5210 -0.3188
  171SAPE  H16X19433   1.993  -0.614   7.920 -0.1339  0.8985 -1.1727
  171SAPE  H16Y19434   1.862  -0.513   7.926  0.5285 -1.0948 -1.0161
  171SAPE  C31719435   1.895  -0.612   8.116  0.7829 -0.5766  0.0752
  171SAPE  H17X19436   1.800  -0.663   8.093  1.6019 -1.4450 -1.6196
  171SAPE  H17Y19437   1.881  -0.548   8.206  1.9334  0.3476 -0.3695
  171SAPE  C31819438   1.997  -0.715   8.165  0.0799  0.1184 -0.5203
  171SAPE  H18X19439   2.086  -0.671   8.215 -0.8485 -0.5410  1.8628
  171SAPE  H18Y19440   2.030  -0.778   8.080 -1.1057 -1.4049  0.1027
  171SAPE  H18Z19441   1.965  -0.788   8.243  0.1786 -0.6307 -1.1728
  172SAPE     N19442   1.687   5.477   5.905 -0.1515  0.1712  0.3045
  172SAPE   HN119443   1.624   5.526   5.839 -0.4491 -0.2439  0.2775
  172SAPE   HN219444   1.778   5.527   5.893 -1.2612  1.8209 -1.8386
  172SAPE   HN319445   1.687   5.379   5.871 -2.0192  0.6814 -1.3107
  172SAPE   C1219446   1.641   5.490   6.049  0.9030  0.5764  0.9374
  172SAPE  H12A19447   1.622   5.598   6.068 -1.4425  0.7362 -1.6008
  172SAPE  H12B19448   1.725   5.450   6.108  1.5243 -0.2306 -0.4491
  172SAPE   C1119449   1.518   5.400   6.067 -0.4156  0.4914  0.0331
  172SAPE  H11A19450   1.439   5.446   6.004 -0.1080  0.6709 -0.2210
  172SAPE  H11B19451   1.496   5.405   6.176 -0.6717 -1.1527  0.0901
  172SAPE     P19452   1.574   5.143   6.103 -0.1555  0.1255 -0.2452
  172SAPE   O1319453   1.452   5.071   6.132 -0.1345  0.0085 -0.0270
  172SAPE   O1419454   1.682   5.068   6.027 -0.0428  0.2800  0.0200
  172SAPE   O1219455   1.542   5.267   6.016  0.1601 -0.0124  0.1946
  172SAPE   O1119456   1.634   5.207   6.234  0.0948 -0.0186 -0.0776
  172SAPE    C119457   1.561   5.192   6.361 -0.0107  0.3650  0.1530
  172SAPE    HA19458   1.596   5.273   6.428  2.6629 -1.2198  0.8337
  172SAPE    HB19459   1.451   5.197   6.351 -0.1069 -1.8310 -0.3488
  172SAPE    C219460   1.576   5.047   6.425 -0.2904 -0.4392  0.6573
  172SAPE    HS19461   1.509   4.973   6.377  0.1281 -0.3350 -0.0900
  172SAPE   O2119462   1.550   5.048   6.572  0.4291  0.0359 -0.3010
  172SAPE   C2119463   1.424   5.069   6.605  0.3334  0.2462 -0.2083
  172SAPE   O2219464   1.333   5.100   6.531  0.0523  0.2523  0.6647
  172SAPE   C2219465   1.401   5.061   6.750 -0.0424  0.7120  0.1514
  172SAPE   H2R19466   1.464   4.981   6.795 -0.9842  0.2842  0.7246
  172SAPE   H2S19467   1.427   5.156   6.802 -0.6210  2.0646 -1.9114
  172SAPE    C319468   1.727   4.993   6.404  0.0292 -0.1074 -0.3170
  172SAPE    HX19469   1.787   5.085   6.423 -0.6614  0.2331  0.2872
  172SAPE    HY19470   1.751   4.967   6.299  1.6252  2.2401 -0.6199
  172SAPE   O3119471   1.771   4.892   6.507  0.6584  0.1856  0.2849
  172SAPE   C3119472   1.701   4.769   6.493 -0.3635 -0.1986 -0.2946
  172SAPE   O3219473   1.616   4.752   6.405  0.2556  0.3204 -0.2114
  172SAPE   C3219474   1.744   4.668   6.600 -0.6045  0.0402  0.1245
  172SAPE   H2X19475   1.765   4.712   6.700  1.9473  1.2062 -0.8206
  172SAPE   H2Y19476   1.843   4.631   6.566 -0.1393 -0.1618  1.6094
  172SAPE   C2319477   1.257   5.035   6.787 -0.0571  0.0940 -0.2805
  172SAPE   H3R19478   1.223   4.934   6.754  1.1282 -0.1261 -0.8622
  172SAPE   H3S19479   1.196   5.107   6.729 -0.9712 -0.4103  0.0299
  172SAPE   C2419480   1.228   5.055   6.938  0.1139  0.2783 -0.5691
  172SAPE   H4R19481   1.118   5.044   6.931  0.0838  1.1614 -1.7616
  172SAPE   H4S19482   1.236   5.158   6.979  2.9878 -0.5493  1.2435
  172SAPE   C2519483   1.301   4.956   7.027 -0.3251 -0.0106 -0.2400
  172SAPE   H5R19484   1.400   4.915   6.999  0.3599  0.5361  1.2727
  172SAPE   C2619485   1.243   4.917   7.143 -0.1080 -0.3702 -0.5676
  172SAPE   H6R19486   1.297   4.844   7.204  0.2677  1.1589  1.0012
  172SAPE   C2719487   1.112   4.963   7.205  0.1427 -0.4731  0.7074
  172SAPE   H7R19488   1.077   5.061   7.165 -1.7789 -1.1241  0.6959
  172SAPE   H7S19489   1.134   4.989   7.311  0.7554  0.2780  0.4104
  172SAPE   C2819490   1.013   4.845   7.203  0.1117  0.3328 -0.4026
  172SAPE   H8R19491   0.949   4.852   7.115 -0.0804  1.8094 -0.1770
  172SAPE   C2919492   0.994   4.749   7.300  0.1623 -0.1636  0.0441
  172SAPE   H9R19493   0.920   4.670   7.284 -0.0775 -0.0235  0.4556
  172SAPE  C21019494   1.058   4.753   7.434  0.0660 -0.6648  0.1173
  172SAPE  H10R19495   1.169   4.757   7.424  0.0086 -0.0920 -0.2908
  172SAPE  H10S19496   1.055   4.647   7.468  1.9817 -1.2253 -1.2520
  172SAPE  C21119497   0.991   4.848   7.526 -0.1039 -0.8725  0.4095
  172SAPE  H11R19498   0.945   4.938   7.484 -1.1004 -0.6064  1.9915
  172SAPE  C21219499   0.974   4.837   7.658  0.6181  0.2868  0.4637
  172SAPE  H12R19500   0.910   4.918   7.698 -1.9843 -0.4104 -1.9903
  172SAPE  C21319501   1.020   4.727   7.745  0.1385 -0.6694 -0.1894
  172SAPE  H13R19502   1.117   4.763   7.786 -0.6357  1.9553 -0.4819
  172SAPE  H13S19503   1.049   4.642   7.679  3.6345  1.2781 -1.4685
  172SAPE  C21419504   0.912   4.690   7.842 -0.5934 -0.3337  0.5639
  172SAPE  H14R19505   0.817   4.745   7.847 -3.0447 -4.0611 -0.9214
  172SAPE  C21519506   0.927   4.583   7.924  0.1541  0.0179 -0.1924
  172SAPE  H15R19507   0.848   4.558   7.996 -0.8701  1.3983 -0.7902
  172SAPE  C21619508   1.042   4.482   7.922  0.1093  0.0711 -0.8897
  172SAPE  H16R19509   1.141   4.516   7.885 -0.0148  1.6839  0.1859
  172SAPE  H16S19510   1.011   4.398   7.856 -1.9828 -0.5070  0.7057
  172SAPE  C21719511   1.066   4.429   8.066 -0.1524 -0.1645 -0.0399
  172SAPE  H17R19512   1.155   4.363   8.066  0.7721  1.0288  1.4483
  172SAPE  H17S19513   0.979   4.366   8.094  0.0538 -0.2522  0.4116
  172SAPE  C21819514   1.107   4.543   8.158 -0.7551 -0.1783 -0.5650
  172SAPE  H18R19515   1.023   4.615   8.170 -2.5446 -2.1402 -0.9779
  172SAPE  H18S19516   1.193   4.603   8.121 -2.8652  1.4785 -3.1197
  172SAPE  C21919517   1.140   4.487   8.300  0.0848 -0.0287 -0.5204
  172SAPE  H19R19518   1.212   4.404   8.295 -1.4983 -1.4587 -0.4571
  172SAPE  H19S19519   1.049   4.458   8.357  0.2772  0.2416 -0.0702
  172SAPE  C22019520   1.203   4.608   8.378 -0.3316  0.0872  0.2151
  172SAPE  H20R19521   1.308   4.625   8.346 -0.1409 -0.3663  0.5887
  172SAPE  H20S19522   1.213   4.591   8.487 -1.5014  1.2076  0.5164
  172SAPE  H20T19523   1.152   4.705   8.361  0.6692  0.6031  0.0332
  172SAPE   C3319524   1.642   4.564   6.606 -0.1139 -1.0516 -0.5021
  172SAPE   H3X19525   1.679   4.470   6.653  0.3822 -0.5181  0.1908
  172SAPE   H3Y19526   1.609   4.538   6.503  2.2731 -0.0227 -1.5863
  172SAPE   C3419527   1.523   4.621   6.685  0.2253  0.1809 -0.6812
  172SAPE   H4X19528   1.443   4.544   6.679  1.5116 -1.1229 -1.9699
  172SAPE   H4Y19529   1.485   4.710   6.632  0.4357  0.6333 -0.0820
  172SAPE   C3519530   1.541   4.654   6.833  0.1686  0.3959 -0.0113
  172SAPE   H5X19531   1.436   4.669   6.866  0.0776 -3.0726  1.7630
  172SAPE   H5Y19532   1.594   4.749   6.855  0.4124  0.3191 -0.2484
  172SAPE   C3619533   1.600   4.534   6.917 -0.2521 -0.1224 -0.2583
  172SAPE   H6X19534   1.702   4.513   6.879 -0.6331  0.1176 -1.4746
  172SAPE   H6Y19535   1.547   4.438   6.899 -0.9831 -0.1017  1.5725
  172SAPE   C3719536   1.606   4.570   7.063  0.2580 -0.6239 -0.2968
  172SAPE   H7X19537   1.638   4.675   7.076 -1.9144  0.2941 -1.7251
  172SAPE   H7Y19538   1.676   4.503   7.117 -1.5398 -0.1479  2.8656
  172SAPE   C3819539   1.471   4.545   7.133 -0.6443 -0.3926  0.1867
  172SAPE   H8X19540   1.410   4.461   7.093  0.1038 -1.0041  0.3023
  172SAPE   H8Y19541   1.405   4.633   7.122 -3.1845 -2.1979  0.2363
  172SAPE   C3919542   1.490   4.514   7.275 -0.2265  0.2994 -0.2421
  172SAPE   H9X19543   1.555   4.591   7.321  0.2490 -1.0927  1.5258
  172SAPE   H9Y19544   1.538   4.415   7.287  0.0116  0.7260  3.5715
  172SAPE  C31019545   1.348   4.524   7.348  0.6279  0.5210 -0.1422
  172SAPE  H10X19546   1.278   4.450   7.305 -0.6553  0.4168  1.9635
  172SAPE  H10Y19547   1.313   4.630   7.344  0.5359  0.4967 -0.0083
  172SAPE  C31119548   1.357   4.479   7.500  0.5269 -0.1469  0.4116
  172SAPE  H11X19549   1.416   4.384   7.497 -0.2540 -0.6223 -0.3727
  172SAPE  H11Y19550   1.256   4.478   7.546 -1.1444  4.0121 -2.5146
  172SAPE  C31219551   1.434   4.578   7.580  0.1656 -0.3249 -0.5721
  172SAPE  H12X19552   1.408   4.685   7.561  0.1966 -0.0610  0.7601
  172SAPE  H12Y19553   1.545   4.570   7.574  0.2664 -1.1091  1.6169
  172SAPE  C31319554   1.409   4.575   7.735  0.0296 -0.7687  0.7790
  172SAPE  H13X19555   1.302   4.589   7.759 -0.3273 -1.7494 -0.1826
  172SAPE  H13Y19556   1.461   4.652   7.796 -5.0847  3.5781  0.3571
  172SAPE  C31419557   1.430   4.434   7.803  0.1773 -0.0186 -0.9023
  172SAPE  H14X19558   1.530   4.393   7.777  1.8254  2.0263  1.7034
  172SAPE  H14Y19559   1.344   4.368   7.778 -0.1944 -0.3415  1.1089
  172SAPE  C31519560   1.440   4.445   7.958  0.3369  0.5659 -0.0470
  172SAPE  H15X19561   1.344   4.476   8.005  0.6491  0.7846  0.4626
  172SAPE  H15Y19562   1.527   4.511   7.978  1.5326 -0.6518 -1.0358
  172SAPE  C31619563   1.469   4.312   8.026 -0.3298  0.9397  0.1579
  172SAPE  H16X19564   1.550   4.258   7.972 -1.8340  0.2700 -1.5343
  172SAPE  H16Y19565   1.385   4.240   8.035  0.2598  0.2812  0.4954
  172SAPE  C31719566   1.510   4.339   8.172 -0.1809  0.0105 -0.2441
  172SAPE  H17X19567   1.463   4.422   8.229 -0.7460  0.5958 -1.5277
  172SAPE  H17Y19568   1.614   4.379   8.171  0.0943 -0.5753  1.2829
  172SAPE  C31819569   1.507   4.212   8.260  0.0084 -0.8154  0.4905
  172SAPE  H18X19570   1.588   4.137   8.245  0.8151  0.2402 -0.6544
  172SAPE  H18Y19571   1.413   4.157   8.241  0.7804 -2.1905  0.5468
  172SAPE  H18Z19572   1.511   4.236   8.368 -2.5290 -0.8642  0.6473
  173SOPE     N19573   3.434   2.784  10.797  0.0028  0.1316 -0.6688
  173SOPE   HN119574   3.421   2.737  10.889  0.4125  0.7068 -0.3117
  173SOPE   HN219575   3.534   2.764  10.777  0.7958  2.4010  0.6360
  173SOPE   HN319576   3.437   2.880  10.836 -0.0559  0.0252 -0.3973
  173SOPE   C1219577   3.331   2.759  10.689 -0.3172  0.0146  0.5585
  173SOPE  H12A19578   3.347   2.654  10.656  0.4180  0.2110  0.2688
  173SOPE  H12B19579   3.361   2.835  10.613  0.2932  0.2715  1.0493
  173SOPE   C1119580   3.196   2.787  10.746 -0.0937  0.9380 -0.2129
  173SOPE  H11A19581   3.180   2.701  10.815  0.4562  1.2031  0.2528
  173SOPE  H11B19582   3.117   2.771  10.670  0.9951  0.1583 -1.2103
  173SOPE     P19583   3.107   3.034  10.769 -0.6342  0.1039 -0.1498
  173SOPE   O1319584   3.143   3.158  10.837  0.0825  0.6418  0.0702
  173SOPE   O1419585   2.963   3.006  10.780  0.0070  0.0517  0.0736
  173SOPE   O1219586   3.190   2.910  10.814 -0.3614  0.0082  0.3132
  173SOPE   O1119587   3.148   3.052  10.614  0.0051 -0.0316 -0.1354
  173SOPE    C119588   3.273   3.104  10.574  0.2943 -0.0089 -0.4041
  173SOPE    HA19589   3.357   3.059  10.632 -1.4528 -2.0823  0.6559
  173SOPE    HB19590   3.275   3.214  10.592 -1.0434 -0.1097  0.4195
  173SOPE    C219591   3.296   3.096  10.426  0.6708  0.0724  0.2387
  173SOPE    HS19592   3.400   3.126  10.400  0.9930 -1.5782 -0.5167
  173SOPE   O2119593   3.205   3.183  10.348  0.4482  0.0974  0.0141
  173SOPE   C2119594   3.214   3.312  10.359 -0.1525 -0.3880 -0.1415
  173SOPE   O2219595   3.308   3.378  10.399 -0.0760  0.7135 -0.0210
  173SOPE   C2219596   3.078   3.374  10.317 -0.1316 -0.3210  0.2029
  173SOPE   H2R19597   2.994   3.342  10.382 -2.5448  0.3685 -2.3621
  173SOPE   H2S19598   3.058   3.345  10.212 -3.1446  1.1346  0.2709
  173SOPE    C319599   3.277   2.952  10.376  0.4768  0.8098 -0.6510
  173SOPE    HX19600   3.190   2.900  10.421  1.4396 -0.2699  0.0353
  173SOPE    HY19601   3.361   2.887  10.409  0.1008 -1.0690 -3.0822
  173SOPE   O3119602   3.267   2.946  10.231 -0.0682  0.2766  0.1002
  173SOPE   C3119603   3.152   2.958  10.171  0.6516 -0.3856  0.1660
  173SOPE   O3219604   3.043   2.959  10.224  0.5853  0.4069 -0.0293
  173SOPE   C3219605   3.176   2.961  10.019 -0.0146  0.5310 -0.2866
  173SOPE   H2X19606   3.133   2.865   9.983  0.6248 -1.1651  3.0945
  173SOPE   H2Y19607   3.285   2.965  10.000  0.4787  2.9229  2.3633
  173SOPE   C2319608   3.089   3.528  10.331  0.0415 -0.1429  0.0012
  173SOPE   H3R19609   3.173   3.565  10.267  0.2522 -0.2820  0.1949
  173SOPE   H3S19610   3.114   3.557  10.435  0.1970  0.9566 -0.3364
  173SOPE   C2419611   2.961   3.592  10.284 -0.3584 -0.0468  0.5674
  173SOPE   H4R19612   2.876   3.526  10.311  0.9910 -1.7369  0.8680
  173SOPE   H4S19613   2.955   3.692  10.333  0.0946 -0.8881  2.4046
  173SOPE   C2519614   2.946   3.623  10.131 -0.1180 -0.1728  0.8860
  173SOPE   H5R19615   2.850   3.679  10.131  0.6459  1.2140  2.7002
  173SOPE   H5S19616   3.025   3.690  10.092 -0.4207 -1.6278 -2.6550
  173SOPE   C2619617   2.931   3.497  10.037  0.3951 -0.1497  0.3822
  173SOPE   H6R19618   3.031   3.452  10.020 -0.2566 -2.7214  2.5872
  173SOPE   H6S19619   2.871   3.415  10.083  4.2664 -3.1500  0.5956
  173SOPE   C2719620   2.869   3.523   9.899  0.4348  0.0001  0.2435
  173SOPE   H7R19621   2.858   3.428   9.843  1.4053  0.6088 -1.0515
  173SOPE   H7S19622   2.769   3.568   9.919 -0.0323 -0.4543 -0.9651
  173SOPE   C2819623   2.933   3.637   9.810  0.0130  0.2584 -0.6152
  173SOPE   H8R19624   2.958   3.719   9.881  0.8357 -0.9564  0.5530
  173SOPE   H8S19625   3.027   3.608   9.759 -1.0514  1.1618 -3.2463
  173SOPE   C2919626   2.838   3.677   9.697  0.0930 -0.1564  0.3006
  173SOPE   H9119627   2.732   3.698   9.720  0.4185  1.3503  0.5617
  173SOPE  C21019628   2.872   3.704   9.571 -0.2270 -0.1820  0.1088
  173SOPE  H10119629   2.797   3.743   9.500  0.9805  2.8330  0.3334
  173SOPE  C21119630   3.005   3.689   9.512 -0.0374  0.1383 -0.3770
  173SOPE  H11R19631   3.070   3.629   9.580  0.6172  2.8501  1.5520
  173SOPE  H11S19632   3.047   3.791   9.501 -1.7397  0.6828 -2.3257
  173SOPE  C21219633   3.000   3.615   9.384  0.4885 -0.1022 -0.1453
  173SOPE  H12R19634   2.958   3.679   9.304  0.7724 -0.3022 -0.4533
  173SOPE  H12S19635   2.941   3.521   9.377 -0.9348  0.7788 -0.5681
  173SOPE  C21319636   3.141   3.585   9.326 -0.0807  0.0948 -0.1776
  173SOPE  H13R19637   3.140   3.536   9.227  0.3374  0.4825 -0.3759
  173SOPE  H13S19638   3.193   3.508   9.387 -1.4885 -1.1641 -0.5127
  173SOPE  C21419639   3.237   3.705   9.314  0.0429  0.5130  0.9724
  173SOPE  H14R19640   3.330   3.657   9.277  0.7548 -0.1743  3.4169
  173SOPE  H14S19641   3.263   3.748   9.413 -0.7915 -1.6608  2.2261
  173SOPE  C21519642   3.170   3.808   9.221  0.7626 -0.2773 -0.9083
  173SOPE  H15R19643   3.242   3.891   9.210  1.0516 -0.3321  0.4187
  173SOPE  H15S19644   3.079   3.855   9.262 -0.9516 -2.0602 -2.4565
  173SOPE  C21619645   3.124   3.755   9.087  0.6079  0.4584  0.0077
  173SOPE  H16R19646   3.023   3.709   9.088 -0.4322  2.6507  0.3734
  173SOPE  H16S19647   3.183   3.666   9.056 -0.3516  0.3080 -1.4852
  173SOPE  C21719648   3.119   3.863   8.980  0.2020  0.9053  0.2712
  173SOPE  H17R19649   3.219   3.904   8.954 -0.2353  0.4231 -2.5180
  173SOPE  H17S19650   3.050   3.939   9.022 -0.5166  0.0916  0.5876
  173SOPE  C21819651   3.056   3.808   8.849 -0.5728  0.1779  0.7411
  173SOPE  H18R19652   2.955   3.763   8.856  0.7614 -3.0717  0.7794
  173SOPE  H18S19653   3.112   3.729   8.795 -2.8085  0.1036 -1.6860
  173SOPE  H18T19654   3.047   3.898   8.784 -1.7417  0.7129  1.5917
  173SOPE   C3319655   3.112   3.085   9.947  0.4430  0.4649 -0.1634
  173SOPE   H3X19656   3.163   3.179   9.977  0.3516  0.3015  0.5216
  173SOPE   H3Y19657   3.010   3.093   9.989  0.7770  0.4133  0.6626
  173SOPE   C3419658   3.095   3.073   9.800  0.0677  0.0243  0.0815
  173SOPE   H4X19659   3.022   2.992   9.782  0.6138 -0.3838 -0.3495
  173SOPE   H4Y19660   3.189   3.040   9.751 -1.1271 -1.5607 -1.2451
  173SOPE   C3519661   3.045   3.204   9.743  0.0999  0.3505 -0.4039
  173SOPE   H5X19662   3.097   3.300   9.758 -0.7424  1.5490 -4.1375
  173SOPE   H5Y19663   2.948   3.216   9.796 -0.1800  0.7672 -0.9991
  173SOPE   C3619664   3.022   3.192   9.595 -0.6623 -0.2307 -0.5697
  173SOPE   H6X19665   2.946   3.269   9.568  0.3065  0.7812 -0.5088
  173SOPE   H6Y19666   2.972   3.094   9.582 -0.8078 -0.4518  1.3196
  173SOPE   C3719667   3.149   3.209   9.501 -0.0176 -0.1483 -0.4652
  173SOPE   H7X19668   3.227   3.135   9.529 -0.1127 -0.3993 -0.8530
  173SOPE   H7Y19669   3.182   3.310   9.533  0.2266 -0.7784  1.4015
  173SOPE   C3819670   3.125   3.200   9.352  0.4035  0.5002  0.1705
  173SOPE   H8X19671   3.217   3.252   9.319 -0.2124  0.0422 -2.4668
  173SOPE   H8Y19672   3.035   3.257   9.320  0.1903  0.1710  0.1782
  173SOPE   C3919673   3.115   3.055   9.299  0.4033 -0.0491  0.0210
  173SOPE   H9X19674   3.024   3.002   9.333 -0.4658  1.6138  0.3797
  173SOPE   H9Y19675   3.198   2.995   9.341  3.1891  1.1495 -3.2740
  173SOPE  C31019676   3.116   3.036   9.146 -0.3442  0.1160  0.1418
  173SOPE  H10X19677   3.021   3.079   9.107 -1.3715 -2.1437 -0.0324
  173SOPE  H10Y19678   3.090   2.928   9.137 -3.4177  0.8629 -1.5926
  173SOPE  C31119679   3.244   3.059   9.073 -0.6106  0.2227  0.3527
  173SOPE  H11X19680   3.329   3.026   9.137 -0.2428  0.6702  0.0995
  173SOPE  H11Y19681   3.264   3.166   9.053  2.3416 -0.1918  0.6351
  173SOPE  C31219682   3.242   2.983   8.939  0.5942 -0.2279 -0.1785
  173SOPE  H12X19683   3.148   3.007   8.886 -0.4009 -0.1604  1.5494
  173SOPE  H12Y19684   3.252   2.876   8.968  0.1060 -0.4802 -0.9186
  173SOPE  C31319685   3.350   3.035   8.845 -0.5669 -0.7456 -0.1765
  173SOPE  H13X19686   3.450   3.033   8.894  0.0324 -0.1852 -1.3301
  173SOPE  H13Y19687   3.320   3.141   8.834 -0.9507 -0.4731  2.7313
  173SOPE  C31419688   3.374   2.964   8.719  0.1600 -0.1441  0.3782
  173SOPE  H14X19689   3.403   2.857   8.730  0.8755  0.1483  1.5544
  173SOPE  H14Y19690   3.458   3.015   8.667  0.5825 -0.9076  0.3063
  173SOPE  C31519691   3.249   2.968   8.633  0.1360 -0.1942  0.4409
  173SOPE  H15X19692   3.226   3.077   8.627  0.3308 -0.1018  1.2890
  173SOPE  H15Y19693   3.154   2.921   8.666 -1.0345  0.5217 -1.6819
  173SOPE  C31619694   3.270   2.906   8.489  0.8594 -0.5582  0.1264
  173SOPE  H16X19695   3.278   2.796   8.487 -0.2535 -0.6919  1.2615
  173SOPE  H16Y19696   3.352   2.969   8.449 -0.3393  3.0210  2.6977
  173SOPE  C31719697   3.139   2.926   8.403  0.2703  0.1845  0.0352
  173SOPE  H17X19698   3.098   3.026   8.430 -0.5279  0.0607 -0.6802
  173SOPE  H17Y19699   3.053   2.859   8.424 -0.2470  1.0054  0.6054
  173SOPE  C31819700   3.169   2.914   8.248 -0.0040 -0.1832  0.2383
  173SOPE  H18X19701   3.246   2.993   8.234  0.9641 -0.1665  4.3247
  173SOPE  H18Y19702   3.076   2.953   8.202 -0.6755  0.3736  1.9865
  173SOPE  H18Z19703   3.206   2.814   8.215 -1.3530  0.0500 -2.1897
  174SOPE     N19704   2.325   3.475  10.728 -0.4278 -0.2747 -0.4165
  174SOPE   HN119705   2.401   3.428  10.782  0.1598  1.8548  0.7049
  174SOPE   HN219706   2.358   3.571  10.708  1.1525 -0.7861 -0.3899
  174SOPE   HN319707   2.248   3.482  10.797  1.4363 -1.0527  1.8791
  174SOPE   C1219708   2.286   3.405  10.602 -0.1586 -0.4823  0.4791
  174SOPE  H12A19709   2.239   3.310  10.637 -1.1789 -0.1222  0.1055
  174SOPE  H12B19710   2.376   3.383  10.540 -0.1656  0.2540  0.1989
  174SOPE   C1119711   2.180   3.480  10.521  0.2210  0.0767 -0.3067
  174SOPE  H11A19712   2.142   3.414  10.441  1.6097 -2.0544  0.7188
  174SOPE  H11B19713   2.237   3.559  10.467  0.7456 -0.7075 -0.9130
  174SOPE     P19714   1.945   3.443  10.623  0.1341 -0.0430  0.2664
  174SOPE   O1319715   1.847   3.511  10.710  0.4882  0.1920 -0.0729
  174SOPE   O1419716   1.987   3.311  10.667 -0.1124  0.1327 -0.0237
  174SOPE   O1219717   2.075   3.531  10.602  0.3263 -0.2386  0.5869
  174SOPE   O1119718   1.874   3.428  10.478 -0.9602 -0.2927 -0.2423
  174SOPE    C119719   1.730   3.400  10.476  0.2981  0.0657  0.0633
  174SOPE    HA19720   1.669   3.477  10.528  0.9971 -0.5769  1.9252
  174SOPE    HB19721   1.711   3.319  10.550 -2.1342  0.1295 -0.4294
  174SOPE    C219722   1.678   3.355  10.343 -1.0955 -0.9904  0.1123
  174SOPE    HS19723   1.595   3.285  10.366 -1.4147 -0.2426  1.3515
  174SOPE   O2119724   1.775   3.276  10.272  0.6020  0.0088 -0.4349
  174SOPE   C2119725   1.850   3.189  10.330  0.2150  0.6643 -0.1876
  174SOPE   O2219726   1.844   3.137  10.441 -0.4446 -0.1619  0.4751
  174SOPE   C2219727   1.950   3.137  10.217  0.6938  0.3748  0.1021
  174SOPE   H2R19728   2.051   3.105  10.250  1.9284  2.0922 -1.7492
  174SOPE   H2S19729   1.972   3.230  10.160  0.0347  0.3475 -0.1979
  174SOPE    C319730   1.631   3.487  10.263 -0.5979 -0.3107 -0.2924
  174SOPE    HX19731   1.708   3.568  10.263 -0.2810 -0.6088 -0.8041
  174SOPE    HY19732   1.546   3.517  10.328 -0.0465 -1.4433  1.0009
  174SOPE   O3119733   1.594   3.460  10.126 -0.2870 -0.1366  0.3782
  174SOPE   C3119734   1.684   3.490  10.035 -0.3693 -0.1986 -0.3136
  174SOPE   O3219735   1.796   3.544  10.048  0.3451  0.1430 -0.2735
  174SOPE   C3219736   1.631   3.433   9.903 -0.2534  0.0433  0.4613
  174SOPE   H2X19737   1.521   3.445   9.897 -0.2303 -0.0229 -0.2533
  174SOPE   H2Y19738   1.642   3.323   9.916 -0.1852  0.0029  0.0911
  174SOPE   C2319739   1.890   3.038  10.115 -0.3053 -0.0388  0.1283
  174SOPE   H3R19740   1.788   3.069  10.083 -0.1329 -0.0172 -0.4159
  174SOPE   H3S19741   1.879   2.941  10.168 -1.7263 -1.0954 -1.9662
  174SOPE   C2419742   1.974   3.000   9.992  0.1199  0.2213  0.5520
  174SOPE   H4R19743   1.967   3.077   9.913  1.1902 -0.7336 -0.5067
  174SOPE   H4S19744   2.078   2.984  10.027  0.1203  2.0647  1.5309
  174SOPE   C2519745   1.920   2.879   9.919  0.1180  0.1843  0.1731
  174SOPE   H5R19746   1.818   2.899   9.882  0.5822  1.7043 -0.3699
  174SOPE   H5S19747   1.976   2.870   9.823 -0.0489  1.5781 -0.0756
  174SOPE   C2619748   1.929   2.749  10.000  0.2938  0.0043  0.0174
  174SOPE   H6R19749   1.845   2.750  10.072  0.8051  1.0682  0.6141
  174SOPE   H6S19750   1.904   2.661   9.936  1.2615 -1.1536  1.1679
  174SOPE   C2719751   2.056   2.718  10.080 -0.6921  0.6676  0.1538
  174SOPE   H7R19752   2.052   2.782  10.171 -0.3160 -0.3990  0.9427
  174SOPE   H7S19753   2.041   2.615  10.118  2.0911  1.2522  3.3221
  174SOPE   C2819754   2.187   2.730   9.996 -0.0732  0.2269  0.2513
  174SOPE   H8R19755   2.186   2.823   9.934 -0.2719 -0.0027 -0.0899
  174SOPE   H8S19756   2.271   2.727  10.069  0.1900  1.8334  0.0655
  174SOPE   C2919757   2.206   2.615   9.903 -0.1336  0.0213  0.6996
  174SOPE   H9119758   2.203   2.516   9.949  3.3366 -0.4272  0.2119
  174SOPE  C21019759   2.243   2.621   9.776 -0.2680 -0.0078  0.1564
  174SOPE  H10119760   2.238   2.527   9.718 -2.4958 -0.4879  1.0260
  174SOPE  C21119761   2.275   2.744   9.692 -0.2150 -0.1914 -0.9446
  174SOPE  H11R19762   2.376   2.790   9.693  0.0642 -0.8093  0.0713
  174SOPE  H11S19763   2.213   2.827   9.734  2.0840  0.8567  0.6369
  174SOPE  C21219764   2.242   2.711   9.544 -0.1747  0.2735 -0.2698
  174SOPE  H12R19765   2.302   2.625   9.508  1.4244  1.6244 -0.9762
  174SOPE  H12S19766   2.254   2.807   9.490 -0.5469  1.5473  1.7639
  174SOPE  C21319767   2.103   2.675   9.513 -0.5170  0.5826 -0.4196
  174SOPE  H13R19768   2.035   2.758   9.540  0.8389  0.6707  3.2920
  174SOPE  H13S19769   2.070   2.598   9.586  0.6669 -1.0365 -1.5157
  174SOPE  C21419770   2.077   2.625   9.372 -0.3101  0.7030 -0.4686
  174SOPE  H14R19771   2.150   2.546   9.343 -0.2685 -0.1874  1.9063
  174SOPE  H14S19772   2.095   2.708   9.300  0.4009 -0.2903 -1.4755
  174SOPE  C21519773   1.930   2.602   9.353 -0.0618 -0.0321  0.0917
  174SOPE  H15R19774   1.882   2.692   9.398 -1.2078 -1.9489  2.9951
  174SOPE  H15S19775   1.902   2.512   9.411  0.8786  0.1906  0.9148
  174SOPE  C21619776   1.886   2.575   9.209 -0.1940  0.6412 -0.4218
  174SOPE  H16R19777   1.775   2.571   9.218 -0.1580  1.0490  0.2468
  174SOPE  H16S19778   1.925   2.476   9.177  0.3272  1.3148 -1.9674
  174SOPE  C21719779   1.902   2.689   9.106  1.1056  0.0587 -0.3516
  174SOPE  H17R19780   2.012   2.684   9.090  1.1340 -0.2463 -0.0606
  174SOPE  H17S19781   1.870   2.779   9.161  1.5279 -0.6274  1.0639
  174SOPE  C21819782   1.825   2.686   8.976 -0.2363 -0.3045  0.3965
  174SOPE  H18R19783   1.828   2.593   8.915 -0.3376 -0.5968  0.8334
  174SOPE  H18S19784   1.872   2.765   8.914  1.7844 -1.4031  0.4401
  174SOPE  H18T19785   1.723   2.720   9.004  0.1619  1.1294  0.1684
  174SOPE   C3319786   1.722   3.485   9.783  0.1281 -0.1374 -0.4031
  174SOPE   H3X19787   1.827   3.478   9.819 -0.2800 -1.4818  0.6236
  174SOPE   H3Y19788   1.711   3.593   9.762 -1.6105 -0.1446  0.2827
  174SOPE   C3419789   1.698   3.405   9.658 -0.2954 -0.1128  0.5354
  174SOPE   H4X19790   1.590   3.407   9.632 -0.0897  0.7329 -0.3266
  174SOPE   H4Y19791   1.724   3.300   9.683 -1.6026 -0.3732  0.8832
  174SOPE   C3519792   1.788   3.457   9.546  0.7093  0.5582 -0.0436
  174SOPE   H5X19793   1.887   3.411   9.561 -0.1350 -0.9475  1.2233
  174SOPE   H5Y19794   1.805   3.567   9.549 -0.6420  0.7717  1.1054
  174SOPE   C3619795   1.724   3.410   9.408  0.0043 -0.4280 -0.6223
  174SOPE   H6X19796   1.767   3.453   9.315 -0.9137  1.6904 -0.1339
  174SOPE   H6Y19797   1.622   3.454   9.404  0.9074  1.7165 -3.0438
  174SOPE   C3719798   1.732   3.260   9.385  0.5017 -0.1027  0.1733
  174SOPE   H7X19799   1.679   3.238   9.291 -0.3776  0.5447  0.5070
  174SOPE   H7Y19800   1.683   3.210   9.471 -1.5415 -2.0207 -2.0042
  174SOPE   C3819801   1.874   3.212   9.369 -0.2970  0.1337 -0.3136
  174SOPE   H8X19802   1.915   3.216   9.472 -0.3854 -0.6622 -0.2429
  174SOPE   H8Y19803   1.935   3.278   9.303  0.1148  0.2401  0.1704
  174SOPE   C3919804   1.890   3.064   9.354  0.3409 -0.4557  1.0400
  174SOPE   H9X19805   1.855   3.018   9.259  1.8616  0.7242 -0.1349
  174SOPE   H9Y19806   1.828   3.001   9.422  0.2492 -3.3404 -1.5153
  174SOPE  C31019807   2.042   3.032   9.367 -0.4930  0.0577  0.0229
  174SOPE  H10X19808   2.061   2.931   9.409  1.6055 -0.3766 -1.7764
  174SOPE  H10Y19809   2.081   3.106   9.440 -2.1204 -0.0360  1.0294
  174SOPE  C31119810   2.129   3.060   9.242 -0.3044 -0.1539 -0.1653
  174SOPE  H11X19811   2.233   3.038   9.273 -1.0114 -1.0190  1.7854
  174SOPE  H11Y19812   2.122   3.167   9.214 -1.1663 -0.5053 -1.3695
  174SOPE  C31219813   2.113   2.965   9.120 -0.7894  0.4183  0.6563
  174SOPE  H12X19814   2.013   2.985   9.075 -0.8726  1.0551  1.1124
  174SOPE  H12Y19815   2.124   2.857   9.143  0.4716  0.3919  0.0019
  174SOPE  C31319816   2.213   2.990   8.995  0.1463  0.4900  0.4043
  174SOPE  H13X19817   2.161   2.955   8.904  0.0082  0.0837  0.6357
  174SOPE  H13Y19818   2.309   2.939   9.019  0.5773  1.1720  0.1393
  174SOPE  C31419819   2.252   3.132   8.965  1.1338 -0.5860 -0.9586
  174SOPE  H14X19820   2.320   3.170   9.044 -0.2434 -0.3001  0.1380
  174SOPE  H14Y19821   2.161   3.194   8.949  0.1575 -1.6165  0.3450
  174SOPE  C31519822   2.320   3.137   8.833 -0.6888  0.3012  0.2031
  174SOPE  H15X19823   2.261   3.097   8.749 -0.1339  0.3465 -0.2161
  174SOPE  H15Y19824   2.410   3.071   8.839 -1.0119 -0.1463  0.1221
  174SOPE  C31619825   2.355   3.284   8.795 -0.3382  0.0662  0.4452
  174SOPE  H16X19826   2.450   3.307   8.849 -0.8637 -1.1912  1.9682
  174SOPE  H16Y19827   2.280   3.359   8.827 -0.7282  0.3509 -1.0528
  174SOPE  C31719828   2.390   3.298   8.643  0.5978  0.0175  0.0406
  174SOPE  H17X19829   2.354   3.395   8.604  0.3437 -0.0135  0.1967
  174SOPE  H17Y19830   2.344   3.218   8.581 -1.0051 -0.1621  1.3795
  174SOPE  C31819831   2.541   3.298   8.623 -0.6298 -0.6043  1.0182
  174SOPE  H18X19832   2.580   3.373   8.695  0.6913 -0.4250  0.1644
  174SOPE  H18Y19833   2.562   3.341   8.523 -0.2752 -0.9813  0.9294
  174SOPE  H18Z19834   2.588   3.199   8.641 -0.2272 -0.9326 -1.4907
  175SOPE     N19835   4.071   3.018  10.793  0.6309  0.5360  0.3839
  175SOPE   HN119836   4.097   3.052  10.888  0.6512  0.1885  0.5041
  175SOPE   HN219837   4.018   2.931  10.816  0.8764  0.5938  1.2030
  175SOPE   HN319838   4.152   2.965  10.756 -1.4666 -3.2404  0.5903
  175SOPE   C1219839   4.006   3.126  10.708 -0.7811  0.4233  0.5359
  175SOPE  H12A19840   4.082   3.203  10.683 -1.3714  0.8899  0.1603
  175SOPE  H12B19841   3.929   3.186  10.760 -1.8419  0.0715 -0.5700
  175SOPE   C1119842   3.950   3.067  10.572  0.2277 -0.7106 -0.0029
  175SOPE  H11A19843   4.042   3.021  10.530  1.0960  0.0449  0.9871
  175SOPE  H11B19844   3.935   3.149  10.499  1.7238 -0.3862  0.0176
  175SOPE     P19845   3.691   3.019  10.596 -0.1864 -0.0129 -0.1753
  175SOPE   O1319846   3.676   3.118  10.703 -0.1094 -0.0332  0.4960
  175SOPE   O1419847   3.610   2.897  10.593  0.5026 -0.3383 -0.4399
  175SOPE   O1219848   3.845   2.980  10.590 -0.1048  0.0884 -0.1722
  175SOPE   O1119849   3.668   3.091  10.458  0.2705 -0.1204  0.7585
  175SOPE    C119850   3.665   3.233  10.448  0.4955  0.0723 -0.7074
  175SOPE    HA19851   3.761   3.269  10.491  0.0249 -0.2282  0.6149
  175SOPE    HB19852   3.585   3.283  10.507  1.2952  1.5615 -0.8176
  175SOPE    C219853   3.668   3.276  10.291 -0.5505 -0.1982  0.1558
  175SOPE    HS19854   3.673   3.387  10.294 -2.0537 -0.1272  0.4978
  175SOPE   O2119855   3.550   3.242  10.222  0.3108  0.0414 -0.6678
  175SOPE   C2119856   3.525   3.324  10.123  0.0440  0.2590  0.4055
  175SOPE   O2219857   3.578   3.430  10.102 -0.2474  0.2611  0.4773
  175SOPE   C2219858   3.420   3.257  10.031 -1.1346 -0.0422  0.0435
  175SOPE   H2R19859   3.320   3.247  10.079 -1.1065 -2.3303 -0.2382
  175SOPE   H2S19860   3.460   3.154  10.016  0.8157  0.4435  1.4678
  175SOPE    C319861   3.785   3.212  10.220 -0.5884  0.6815  0.4815
  175SOPE    HX19862   3.770   3.102  10.212  1.9240  0.2805  0.2448
  175SOPE    HY19863   3.870   3.217  10.291 -1.2849  1.1192  1.2949
  175SOPE   O3119864   3.820   3.266  10.089 -0.1771 -0.5819  0.0573
  175SOPE   C3119865   3.899   3.371  10.096  0.1315  0.4821  0.0710
  175SOPE   O3219866   3.934   3.436  10.194 -0.0631  0.6344 -0.0956
  175SOPE   C3219867   3.934   3.414   9.950  0.0449 -0.2896 -0.1925
  175SOPE   H2X19868   3.842   3.407   9.889 -0.5596 -0.8848  0.7655
  175SOPE   H2Y19869   4.000   3.330   9.920 -0.8629 -1.4634  0.9585
  175SOPE   C2319870   3.413   3.334   9.900 -0.2714 -0.1972  0.4203
  175SOPE   H3R19871   3.358   3.273   9.825  0.1321  0.8483 -0.7610
  175SOPE   H3S19872   3.508   3.349   9.845 -1.2104 -1.5126 -1.6988
  175SOPE   C2419873   3.348   3.478   9.908  0.4431 -0.4404  0.1495
  175SOPE   H4R19874   3.268   3.471   9.984  1.1805 -3.7030  0.7650
  175SOPE   H4S19875   3.422   3.552   9.945  1.1768 -0.3293 -1.4168
  175SOPE   C2519876   3.316   3.545   9.777  0.1597 -0.4922 -0.2204
  175SOPE   H5R19877   3.236   3.483   9.732 -0.8972 -0.0163  0.9476
  175SOPE   H5S19878   3.275   3.645   9.801 -0.0271 -0.5662 -0.2321
  175SOPE   C2619879   3.426   3.565   9.677 -0.0500 -0.4006  0.0975
  175SOPE   H6R19880   3.401   3.661   9.627  0.5116  0.9450  2.2532
  175SOPE   H6S19881   3.524   3.578   9.729  0.1009 -1.7479  0.2011
  175SOPE   C2719882   3.437   3.459   9.565  0.0099  0.5603  0.4462
  175SOPE   H7R19883   3.453   3.356   9.604  0.5575  1.0222  1.4537
  175SOPE   H7S19884   3.336   3.462   9.518  1.1403 -0.2838 -2.2593
  175SOPE   C2819885   3.547   3.491   9.466 -0.0252  0.0262  0.3941
  175SOPE   H8R19886   3.534   3.572   9.391  0.9837 -1.0349 -0.9819
  175SOPE   H8S19887   3.633   3.528   9.526 -0.2030  1.8421 -0.4027
  175SOPE   C2919888   3.582   3.364   9.386 -0.0587 -0.2785 -0.5053
  175SOPE   H9119889   3.670   3.306   9.415  0.1737 -0.4493 -1.5041
  175SOPE  C21019890   3.526   3.315   9.279  0.2203  0.1011  0.5970
  175SOPE  H10119891   3.579   3.232   9.230  0.8008 -0.0056  1.3857
  175SOPE  C21119892   3.405   3.378   9.209  0.7299  0.5011  0.0509
  175SOPE  H11R19893   3.340   3.424   9.286  2.2424  1.4380  0.8187
  175SOPE  H11S19894   3.352   3.296   9.156 -0.5939  1.2006  0.2467
  175SOPE  C21219895   3.452   3.477   9.101  0.0095  0.2613 -0.0942
  175SOPE  H12R19896   3.535   3.544   9.134 -0.1423  0.6509 -0.4968
  175SOPE  H12S19897   3.374   3.544   9.060  2.1557  2.0453 -1.5043
  175SOPE  C21319898   3.491   3.413   8.976 -0.1413  0.0737  0.6029
  175SOPE  H13R19899   3.411   3.341   8.950  0.2136 -0.1167 -0.0059
  175SOPE  H13S19900   3.578   3.345   8.987 -1.5312 -1.7047  0.8733
  175SOPE  C21419901   3.495   3.498   8.846 -0.4990  0.4553 -0.2450
  175SOPE  H14R19902   3.558   3.590   8.852 -1.7937  1.7207 -3.6555
  175SOPE  H14S19903   3.392   3.534   8.823  0.3097  3.8581  0.8336
  175SOPE  C21519904   3.535   3.415   8.721  0.4287  0.2736 -0.4086
  175SOPE  H15R19905   3.465   3.330   8.718 -0.8384  1.2608  0.2785
  175SOPE  H15S19906   3.639   3.378   8.736 -0.6411 -2.1554  1.6200
  175SOPE  C21619907   3.524   3.502   8.592  0.9324 -0.2922 -0.0186
  175SOPE  H16R19908   3.581   3.597   8.601 -0.7380  0.7612 -0.2680
  175SOPE  H16S19909   3.416   3.515   8.568  0.2850 -1.8091  1.8044
  175SOPE  C21719910   3.560   3.426   8.468  0.1120 -0.1205 -0.0989
  175SOPE  H17R19911   3.667   3.402   8.455  0.5123  1.7297 -0.5468
  175SOPE  H17S19912   3.528   3.489   8.382 -1.3384 -2.4366 -1.3383
  175SOPE  C21819913   3.479   3.297   8.455 -0.2588  0.0991 -0.0657
  175SOPE  H18R19914   3.375   3.336   8.458 -0.7101 -1.0876  1.7488
  175SOPE  H18S19915   3.484   3.213   8.528  1.0194 -2.3650 -2.8127
  175SOPE  H18T19916   3.503   3.254   8.356 -1.4609 -0.5541 -0.0875
  175SOPE   C3319917   4.017   3.540   9.935 -0.4019 -0.2827  0.0018
  175SOPE   H3X19918   4.095   3.545  10.013 -0.8172  0.0500  0.3974
  175SOPE   H3Y19919   3.968   3.636   9.961  0.2366  0.4390 -1.3431
  175SOPE   C3419920   4.081   3.565   9.800  0.0746 -0.5495  0.1752
  175SOPE   H4X19921   4.152   3.483   9.778  0.6149 -0.9762  3.0712
  175SOPE   H4Y19922   4.132   3.663   9.791  1.1596 -1.1341 -0.2014
  175SOPE   C3519923   3.979   3.565   9.683 -0.1228  0.4138  0.2984
  175SOPE   H5X19924   3.905   3.646   9.699  1.2002  1.0857  3.8882
  175SOPE   H5Y19925   3.925   3.468   9.688  1.2902 -0.4344 -0.2354
  175SOPE   C3619926   4.057   3.583   9.547  0.1575  0.0765  0.1779
  175SOPE   H6X19927   4.124   3.497   9.530 -1.3764 -1.1367  0.0647
  175SOPE   H6Y19928   4.109   3.681   9.542  2.4485 -1.1506 -1.3328
  175SOPE   C3719929   3.954   3.596   9.427  0.6463 -0.0899 -0.8493
  175SOPE   H7X19930   3.887   3.681   9.453  0.7089  0.1216 -1.3729
  175SOPE   H7Y19931   3.906   3.496   9.429  0.9080 -0.2393  1.8870
  175SOPE   C3819932   4.011   3.613   9.289 -0.3100 -0.5421  0.4240
  175SOPE   H8X19933   4.117   3.581   9.278 -0.5194 -0.3968 -2.9423
  175SOPE   H8Y19934   4.013   3.721   9.265  0.2344 -1.2060 -3.1590
  175SOPE   C3919935   3.945   3.530   9.182  0.0143 -0.1526 -0.2219
  175SOPE   H9X19936   3.835   3.543   9.185  0.1118  0.5184  0.5540
  175SOPE   H9Y19937   3.962   3.420   9.190 -0.5392 -0.1342  1.7176
  175SOPE  C31019938   3.997   3.566   9.040 -0.2501  0.1674 -0.1909
  175SOPE  H10X19939   4.105   3.540   9.032 -0.3869 -0.6692  0.5647
  175SOPE  H10Y19940   3.975   3.674   9.025 -1.4303  0.3742  2.4973
  175SOPE  C31119941   3.918   3.476   8.948  0.2547  0.0607  0.6319
  175SOPE  H11X19942   3.808   3.491   8.949  0.0287 -0.4582 -2.6915
  175SOPE  H11Y19943   3.944   3.369   8.959  2.2871  0.3730 -0.5717
  175SOPE  C31219944   3.956   3.499   8.801  0.1195  0.8672  0.2378
  175SOPE  H12X19945   3.932   3.411   8.739  1.3257 -0.0483  1.0008
  175SOPE  H12Y19946   4.067   3.501   8.791  0.0928  1.0351 -0.0194
  175SOPE  C31319947   3.897   3.626   8.749  0.6164 -0.2575  0.6535
  175SOPE  H13X19948   3.921   3.721   8.802  1.8197 -0.6965  0.9325
  175SOPE  H13Y19949   3.786   3.621   8.755  0.4011  1.5383 -0.8398
  175SOPE  C31419950   3.939   3.648   8.598  0.1658 -0.0146 -0.1055
  175SOPE  H14X19951   3.915   3.558   8.539 -1.2707  0.8423 -0.8643
  175SOPE  H14Y19952   4.049   3.650   8.582 -0.0306 -0.3689 -1.5932
  175SOPE  C31519953   3.882   3.758   8.511  0.6587 -0.0632  0.1149
  175SOPE  H15X19954   3.774   3.745   8.489  0.9393  0.5526 -1.7982
  175SOPE  H15Y19955   3.922   3.748   8.408 -0.7773  1.3416 -0.6195
  175SOPE  C31619956   3.914   3.902   8.554 -0.4619 -0.0142 -0.8545
  175SOPE  H16X19957   4.023   3.910   8.537 -0.3297 -0.0236 -0.0354
  175SOPE  H16Y19958   3.886   3.917   8.660 -1.2588 -1.2809 -0.8616
  175SOPE  C31719959   3.843   4.007   8.472  0.4059 -0.2537  0.6911
  175SOPE  H17X19960   3.841   4.108   8.518 -0.1849  0.9687 -1.8348
  175SOPE  H17Y19961   3.741   3.970   8.447  0.0684  2.0390 -1.7454
  175SOPE  C31819962   3.921   4.034   8.342  0.0320 -0.3877 -0.4825
  175SOPE  H18X19963   4.014   4.090   8.365 -0.2154  0.1093 -0.6799
  175SOPE  H18Y19964   3.861   4.102   8.278 -0.0676  0.9511  0.9802
  175SOPE  H18Z19965   3.951   3.944   8.284  1.8226  0.8225 -1.5444
  176SOPE     N19966   3.911   4.635  10.627 -0.0674  0.2914 -0.8335
  176SOPE   HN119967   3.932   4.535  10.607 -0.4038  0.6013 -2.9638
  176SOPE   HN219968   3.815   4.662  10.597 -0.7547 -1.4530 -0.3559
  176SOPE   HN319969   3.988   4.697  10.594 -0.9676  2.7193  1.2884
  176SOPE   C1219970   3.921   4.637  10.779 -0.4912  0.0651 -0.2108
  176SOPE  H12A19971   3.911   4.742  10.816 -1.4094 -0.6731  1.7697
  176SOPE  H12B19972   4.024   4.603  10.800 -0.7536  1.0117  3.1483
  176SOPE   C1119973   3.801   4.562  10.846 -0.3455  0.1083 -0.2090
  176SOPE  H11A19974   3.715   4.628  10.824  0.2603  0.3216 -2.0983
  176SOPE  H11B19975   3.817   4.562  10.956 -0.4480  0.2215 -0.1950
  176SOPE     P19976   3.855   4.316  10.851  0.5155  0.2724  0.0928
  176SOPE   O1319977   3.761   4.290  10.965  0.2003  0.0425 -0.2080
  176SOPE   O1419978   4.000   4.344  10.869  0.0794  0.9529  0.1166
  176SOPE   O1219979   3.788   4.437  10.783  1.0946 -0.1445 -0.0893
  176SOPE   O1119980   3.841   4.207  10.746  0.2136  0.3003  0.8082
  176SOPE    C119981   3.732   4.197  10.656 -0.4206 -0.6799 -0.0043
  176SOPE    HA19982   3.710   4.293  10.604  1.4655 -0.0864  0.2407
  176SOPE    HB19983   3.636   4.165  10.703 -1.3618 -0.1741 -1.5137
  176SOPE    C219984   3.751   4.101  10.534  0.4096  0.9100 -0.5731
  176SOPE    HS19985   3.739   4.002  10.585 -0.2045  1.3249  0.1120
  176SOPE   O2119986   3.883   4.134  10.478 -0.3430 -0.4800  0.6201
  176SOPE   C2119987   3.941   4.022  10.424  0.1759  0.4146 -1.0026
  176SOPE   O2219988   3.905   3.909  10.451  0.2178  0.1588 -0.0468
  176SOPE   C2219989   4.047   4.056  10.314 -0.0001  0.5005  0.3843
  176SOPE   H2R19990   4.142   4.071  10.368  0.2696 -2.3327  0.8789
  176SOPE   H2S19991   4.022   4.153  10.266 -1.2389  0.6850  1.3618
  176SOPE    C319992   3.646   4.137  10.430  0.0810 -0.0183 -0.0883
  176SOPE    HX19993   3.670   4.241  10.400  1.0021 -0.1542  0.1655
  176SOPE    HY19994   3.549   4.157  10.480 -0.0259  1.6788 -0.9081
  176SOPE   O3119995   3.633   4.051  10.312  0.1277  0.4084 -0.1016
  176SOPE   C3119996   3.549   3.954  10.345  0.1287  0.0300 -0.3326
  176SOPE   O3219997   3.517   3.924  10.458 -0.1529 -0.3980 -0.3752
  176SOPE   C3219998   3.537   3.881  10.208  0.2208  0.1354 -0.6350
  176SOPE   H2X19999   3.516   3.966  10.139  1.9463  2.2228  1.2081
  176SOPE   H2Y20000   3.457   3.806  10.222  0.4238  0.2391  1.4356
  176SOPE   C2320001   4.066   3.963  10.188  0.2914 -0.1612  0.1176
  176SOPE   H3R20002   3.969   3.931  10.144 -0.1592 -0.1160  1.0512
  176SOPE   H3S20003   4.111   3.865  10.216 -0.8282 -1.6814 -2.8988
  176SOPE   C2420004   4.147   4.025  10.081 -0.0837 -0.0237 -0.1212
  176SOPE   H4R20005   4.099   4.121  10.052 -1.4497 -0.0813  1.7262
  176SOPE   H4S20006   4.240   4.057  10.133 -0.1884 -1.7428  1.1961
  176SOPE   C2520007   4.188   3.926   9.977 -0.2133 -0.3148  0.5381
  176SOPE   H5R20008   4.256   3.845  10.012  1.3300  0.4396 -0.5923
  176SOPE   H5S20009   4.099   3.882   9.928  1.5351 -0.3663 -2.9081
  176SOPE   C2620010   4.261   3.979   9.859 -0.1477  0.0444  0.8174
  176SOPE   H6R20011   4.355   4.033   9.881 -0.1138  0.4667 -0.2895
  176SOPE   H6S20012   4.287   3.891   9.796 -1.4663  1.2339 -1.5226
  176SOPE   C2720013   4.171   4.070   9.769 -0.2273 -0.1011  0.6245
  176SOPE   H7R20014   4.073   4.021   9.756 -1.0553  0.8008  2.8984
  176SOPE   H7S20015   4.154   4.161   9.831  0.1410 -0.9791  2.0757
  176SOPE   C2820016   4.252   4.120   9.644  0.7368 -0.2562  0.0934
  176SOPE   H8R20017   4.199   4.214   9.618  0.1286 -0.7182 -0.3623
  176SOPE   H8S20018   4.361   4.142   9.653  1.1781 -1.3223 -1.8505
  176SOPE   C2920019   4.242   4.015   9.528 -0.1554  0.1383 -0.0473
  176SOPE   H9120020   4.240   3.913   9.569  0.2264 -0.2342 -0.9497
  176SOPE  C21020021   4.228   4.040   9.404  0.1058 -0.6495  0.3980
  176SOPE  H10120022   4.217   3.951   9.341  2.8123 -0.9276  0.1846
  176SOPE  C21120023   4.223   4.179   9.336 -0.3180  0.5652  0.6324
  176SOPE  H11R20024   4.285   4.256   9.386 -0.0171  0.9560 -0.3192
  176SOPE  H11S20025   4.124   4.227   9.325  0.5397  1.7761 -3.1618
  176SOPE  C21220026   4.279   4.165   9.190  0.4952  0.4193  0.5939
  176SOPE  H12R20027   4.251   4.261   9.141  1.6050  0.9688  1.0041
  176SOPE  H12S20028   4.221   4.082   9.146  1.0463  0.5336 -0.3676
  176SOPE  C21320029   4.425   4.134   9.178 -0.2978 -0.0199  0.0198
  176SOPE  H13R20030   4.458   4.129   9.072  0.5329 -2.8443  0.3149
  176SOPE  H13S20031   4.455   4.035   9.219 -1.4539 -1.2528 -1.9571
  176SOPE  C21420032   4.513   4.240   9.244  0.0358  0.3871  1.0987
  176SOPE  H14R20033   4.490   4.244   9.353 -2.8965  1.9104  0.5202
  176SOPE  H14S20034   4.488   4.336   9.194 -0.6032 -0.8457 -1.0763
  176SOPE  C21520035   4.662   4.214   9.236 -0.8138  0.4699 -0.0358
  176SOPE  H15R20036   4.694   4.185   9.134  0.2190  0.9804  0.1351
  176SOPE  H15S20037   4.670   4.119   9.292 -0.3953  0.2913 -0.4000
  176SOPE  C21620038   4.735   4.333   9.294 -0.7559 -0.4573 -0.2487
  176SOPE  H16R20039   4.710   4.357   9.400  0.9832  1.1433 -0.1424
  176SOPE  H16S20040   4.702   4.422   9.236 -0.2622 -0.0347  0.1115
  176SOPE  C21720041   4.883   4.310   9.290  0.7698  0.1837 -0.0312
  176SOPE  H17R20042   4.918   4.301   9.185  2.0228  0.3648  0.3551
  176SOPE  H17S20043   4.919   4.220   9.344  0.7402  1.1184  1.6013
  176SOPE  C21820044   4.965   4.430   9.335 -0.7882  0.5767 -0.3850
  176SOPE  H18R20045   4.922   4.521   9.288 -1.0340  0.1848 -0.9276
  176SOPE  H18S20046   5.071   4.415   9.306 -0.1811 -0.3541  2.0972
  176SOPE  H18T20047   4.961   4.444   9.445  0.8403 -0.1817 -0.2133
  176SOPE   C3320048   3.663   3.790  10.189 -0.0973  0.1399  0.3345
  176SOPE   H3X20049   3.664   3.713  10.269 -1.1795 -0.1303  0.0975
  176SOPE   H3Y20050   3.758   3.846  10.205  0.0563  0.8648 -2.5791
  176SOPE   C3420051   3.681   3.739  10.045  0.1713 -0.5791  1.0676
  176SOPE   H4X20052   3.587   3.690  10.013 -0.2566  1.2024 -0.6504
  176SOPE   H4Y20053   3.760   3.661  10.038  0.1058 -0.5201 -1.0511
  176SOPE   C3520054   3.705   3.858   9.946  0.0866  0.7914 -0.7124
  176SOPE   H5X20055   3.801   3.905   9.978  0.6737 -0.3981 -0.6323
  176SOPE   H5Y20056   3.634   3.939   9.971  1.5013  1.5977  0.9652
  176SOPE   C3620057   3.698   3.828   9.807 -0.2691  0.2255 -0.0420
  176SOPE   H6X20058   3.600   3.795   9.767 -0.4494 -1.2097  1.4633
  176SOPE   H6Y20059   3.766   3.742   9.789  0.9676  1.0134  0.7256
  176SOPE   C3720060   3.753   3.949   9.724 -0.7338  0.5433 -0.2587
  176SOPE   H7X20061   3.847   3.982   9.774 -0.1351 -0.5910 -0.5844
  176SOPE   H7Y20062   3.680   4.032   9.725  0.9581  2.1044  0.4527
  176SOPE   C3820063   3.778   3.922   9.576 -0.3023 -0.7509 -1.1711
  176SOPE   H8X20064   3.826   3.822   9.577 -0.2811 -0.7389 -0.6406
  176SOPE   H8Y20065   3.860   3.993   9.550  0.4331  0.8717  4.1832
  176SOPE   C3920066   3.659   3.934   9.489 -0.8075  0.6496 -0.7244
  176SOPE   H9X20067   3.617   4.037   9.481  1.2728  1.4800 -1.4743
  176SOPE   H9Y20068   3.585   3.862   9.530  0.3115  0.7606  1.6913
  176SOPE  C31020069   3.697   3.888   9.346  0.3843  0.7414 -0.0334
  176SOPE  H10X20070   3.708   3.778   9.350 -3.4356  0.0927 -2.3331
  176SOPE  H10Y20071   3.783   3.948   9.307 -0.2524  0.5533 -1.7960
  176SOPE  C31120072   3.590   3.896   9.244 -0.2257  0.7678 -0.0079
  176SOPE  H11X20073   3.529   3.988   9.256  2.0244  2.3112  0.1528
  176SOPE  H11Y20074   3.517   3.814   9.264  1.0551 -0.6725 -0.9416
  176SOPE  C31220075   3.633   3.881   9.095 -0.2133  0.1339  0.5229
  176SOPE  H12X20076   3.700   3.793   9.088 -1.4597 -1.1985  3.5467
  176SOPE  H12Y20077   3.695   3.969   9.069 -0.5859  0.5949  1.1585
  176SOPE  C31320078   3.519   3.874   8.989 -0.0538 -0.9307  0.2772
  176SOPE  H13X20079   3.436   3.947   9.003 -0.2981 -0.8357 -1.4461
  176SOPE  H13Y20080   3.467   3.776   8.996 -2.4993  0.3171  0.7093
  176SOPE  C31420081   3.576   3.893   8.844 -0.0401  0.0886 -0.8018
  176SOPE  H14X20082   3.642   3.805   8.830 -1.3096 -1.2066  0.9210
  176SOPE  H14Y20083   3.627   3.991   8.837 -2.1108  1.5931  2.7592
  176SOPE  C31520084   3.466   3.878   8.734 -0.2972 -0.4956  0.4342
  176SOPE  H15X20085   3.386   3.947   8.766 -1.4631 -1.7315  0.2915
  176SOPE  H15Y20086   3.429   3.773   8.738  1.0471 -1.0955 -1.3130
  176SOPE  C31620087   3.524   3.924   8.596 -0.3941 -0.0570  0.1680
  176SOPE  H16X20088   3.582   3.834   8.566 -1.6712 -0.4065 -1.3834
  176SOPE  H16Y20089   3.592   4.012   8.595 -0.6730  0.1617  0.2555
  176SOPE  C31720090   3.414   3.936   8.492 -0.0460  0.1033 -0.2984
  176SOPE  H17X20091   3.319   3.885   8.521  1.0251 -1.4624  0.5847
  176SOPE  H17Y20092   3.472   3.905   8.402  0.0616  0.7308 -0.4481
  176SOPE  C31820093   3.369   4.075   8.459  0.0653 -0.6935  0.2404
  176SOPE  H18X20094   3.451   4.143   8.427 -1.8397  0.4460 -2.6019
  176SOPE  H18Y20095   3.332   4.115   8.556 -0.4459 -2.5245  0.8485
  176SOPE  H18Z20096   3.293   4.082   8.378  0.3490 -1.3024 -0.0850
  177SOPE     N20097   2.597   2.085  10.732  0.1250  0.0309 -0.0160
  177SOPE   HN120098   2.569   2.092  10.632 -0.8196  1.3053  0.3237
  177SOPE   HN220099   2.646   1.993  10.735 -0.0906 -0.0951 -0.2356
  177SOPE   HN320100   2.508   2.073  10.783 -0.7948  2.8230 -0.7740
  177SOPE   C1220101   2.670   2.202  10.786 -0.1742 -0.0962 -0.0342
  177SOPE  H12A20102   2.650   2.293  10.725 -0.2384  1.0344  1.6223
  177SOPE  H12B20103   2.780   2.194  10.770 -0.4065 -1.0126 -1.3377
  177SOPE   C1120104   2.639   2.226  10.932  0.1351  0.7798 -0.0962
  177SOPE  H11A20105   2.535   2.264  10.926 -0.0680  0.0808 -1.8207
  177SOPE  H11B20106   2.705   2.309  10.965  1.1607 -0.5003  1.1947
  177SOPE     P20107   2.777   2.066  11.082 -0.2476  0.2097 -0.1005
  177SOPE   O1320108   2.784   1.921  11.114 -0.4240 -0.4317  0.5236
  177SOPE   O1420109   2.790   2.155  11.199 -0.1564  0.5873 -0.0082
  177SOPE   O1220110   2.644   2.104  11.013 -0.3181  0.2519 -0.3839
  177SOPE   O1120111   2.888   2.096  10.970 -0.4107 -0.1668  0.4831
  177SOPE    C120112   3.005   2.024  10.941  0.3309  0.4227 -0.7175
  177SOPE    HA20113   3.033   1.976  11.037 -1.6765  3.8994  1.8252
  177SOPE    HB20114   3.089   2.091  10.911 -1.7949  2.6557 -2.0262
  177SOPE    C220115   2.994   1.907  10.830 -0.2792 -0.1649  0.9083
  177SOPE    HS20116   3.091   1.855  10.839  0.1562  0.2197 -1.1970
  177SOPE   O2120117   2.976   1.979  10.704  0.0163 -0.4244  0.1059
  177SOPE   C2120118   3.053   1.930  10.610  0.0025  0.5142  0.9487
  177SOPE   O2220119   3.130   1.837  10.619 -0.2276 -0.3054 -0.3451
  177SOPE   C2220120   3.041   2.014  10.494  0.9481  0.1703  0.2265
  177SOPE   H2R20121   3.064   2.117  10.531 -1.6294  1.0391 -0.3733
  177SOPE   H2S20122   2.938   2.025  10.455  1.6314 -2.6890 -2.8250
  177SOPE    C320123   2.886   1.807  10.865  0.1364  0.1157 -0.7217
  177SOPE    HX20124   2.788   1.854  10.892 -0.2411 -1.5152  0.9345
  177SOPE    HY20125   2.916   1.765  10.963 -1.7964 -0.1228 -0.1848
  177SOPE   O3120126   2.862   1.693  10.776 -0.1200  0.2001  0.5533
  177SOPE   C3120127   2.787   1.726  10.671  0.8646  0.5024 -0.2145
  177SOPE   O3220128   2.743   1.837  10.652  0.4568 -0.4505 -0.6039
  177SOPE   C3220129   2.756   1.603  10.578 -0.7811  0.3701 -0.6191
  177SOPE   H2X20130   2.673   1.544  10.621  1.0789 -0.0162  2.8068
  177SOPE   H2Y20131   2.844   1.535  10.575  0.1800  1.4843  0.6536
  177SOPE   C2320132   3.132   1.966  10.372  0.2282  0.0535 -0.0529
  177SOPE   H3R20133   3.123   1.860  10.342  1.3336  0.3175 -1.4372
  177SOPE   H3S20134   3.237   1.986  10.402 -0.4024  3.7233  0.1855
  177SOPE   C2420135   3.103   2.055  10.251  0.5418 -0.5912  0.8555
  177SOPE   H4R20136   2.994   2.051  10.233  0.9002  0.2865 -1.8309
  177SOPE   H4S20137   3.131   2.159  10.280 -2.3121  0.7495 -0.8641
  177SOPE   C2520138   3.172   2.006  10.119 -0.2937 -0.5699 -0.2401
  177SOPE   H5R20139   3.283   2.006  10.131 -0.1755 -0.5922 -1.2811
  177SOPE   H5S20140   3.160   1.897  10.103 -0.4931 -0.1565 -3.7214
  177SOPE   C2620141   3.121   2.093  10.010  0.5902  0.2273 -0.0560
  177SOPE   H6R20142   3.017   2.073   9.976 -0.1322  3.7680 -0.3013
  177SOPE   H6S20143   3.112   2.200  10.036 -2.5546 -0.6270  3.1740
  177SOPE   C2720144   3.212   2.085   9.887 -0.4989 -0.3679 -0.7704
  177SOPE   H7R20145   3.317   2.112   9.912 -1.1967  1.6952  0.1207
  177SOPE   H7S20146   3.214   1.975   9.869 -3.5303 -0.6232  0.0277
  177SOPE   C2820147   3.162   2.156   9.764 -0.4287 -0.9021 -0.3148
  177SOPE   H8R20148   3.123   2.253   9.800  0.9941 -0.2966 -0.3239
  177SOPE   H8S20149   3.252   2.196   9.712 -1.2788  0.8623 -0.4749
  177SOPE   C2920150   3.063   2.093   9.676 -0.2736 -0.4040  0.3212
  177SOPE   H9120151   2.976   2.051   9.728 -0.7625  0.1712 -0.0142
  177SOPE  C21020152   3.082   2.067   9.540 -0.0508  0.2754 -1.1536
  177SOPE  H10120153   3.004   2.018   9.480 -1.3897  1.9988 -0.8973
  177SOPE  C21120154   3.206   2.101   9.454 -0.0220 -0.2102  0.0516
  177SOPE  H11R20155   3.287   2.144   9.518 -0.2010 -1.1911  0.9651
  177SOPE  H11S20156   3.181   2.176   9.376 -0.2252  2.3612  2.4383
  177SOPE  C21220157   3.279   1.985   9.378  0.0029  0.1827 -0.2482
  177SOPE  H12R20158   3.278   1.903   9.453 -0.1000 -0.8612 -1.3453
  177SOPE  H12S20159   3.385   2.002   9.349 -0.8270  0.6347 -3.4664
  177SOPE  C21320160   3.202   1.938   9.252 -0.2286 -0.3112 -0.0833
  177SOPE  H13R20161   3.207   2.016   9.173 -0.9362 -0.4691 -0.2952
  177SOPE  H13S20162   3.093   1.926   9.271 -0.5800  1.2334 -0.9699
  177SOPE  C21420163   3.263   1.819   9.183 -0.6290  0.8390  0.0022
  177SOPE  H14R20164   3.248   1.735   9.255 -1.6039  0.3680 -0.7167
  177SOPE  H14S20165   3.369   1.842   9.162 -0.4563 -0.9650 -1.4003
  177SOPE  C21520166   3.197   1.759   9.047  0.3612 -0.5944  0.1640
  177SOPE  H15R20167   3.210   1.841   8.972  0.0104 -0.2365  0.4905
  177SOPE  H15S20168   3.087   1.752   9.045  0.4111 -1.4429 -0.0044
  177SOPE  C21620169   3.272   1.639   8.990 -0.5812  0.2828 -0.3262
  177SOPE  H16R20170   3.233   1.549   9.042 -2.7787  1.5180  0.2855
  177SOPE  H16S20171   3.381   1.655   9.008 -0.1422 -3.1640  0.8173
  177SOPE  C21720172   3.250   1.614   8.833  0.3003 -0.3402 -0.4118
  177SOPE  H17R20173   3.278   1.708   8.781  1.4624 -0.8222 -0.7165
  177SOPE  H17S20174   3.146   1.586   8.806  0.0873 -3.1796  2.7148
  177SOPE  C21820175   3.343   1.519   8.761  0.2922  1.5189 -0.1477
  177SOPE  H18R20176   3.316   1.412   8.778  2.4153  0.8127 -0.8098
  177SOPE  H18S20177   3.449   1.533   8.793  0.1631  0.0141  1.0940
  177SOPE  H18T20178   3.334   1.529   8.651  2.0113 -4.4100 -1.2410
  177SOPE   C3320179   2.710   1.656  10.447  0.2649 -0.2960 -0.0297
  177SOPE   H3X20180   2.623   1.726  10.452 -0.7656 -1.5835  0.7021
  177SOPE   H3Y20181   2.667   1.570  10.391 -1.2716  0.9989 -0.9477
  177SOPE   C3420182   2.827   1.726  10.366  0.0327  0.3340 -0.3951
  177SOPE   H4X20183   2.913   1.656  10.362  0.4446  0.8099 -0.0435
  177SOPE   H4Y20184   2.856   1.816  10.425 -0.8767 -0.2151  0.9539
  177SOPE   C3520185   2.774   1.764  10.235 -0.3551 -0.4318 -0.1079
  177SOPE   H5X20186   2.726   1.863  10.250 -0.1400 -0.4406  0.6651
  177SOPE   H5Y20187   2.696   1.694  10.198 -3.0002  2.3906 -0.1909
  177SOPE   C3620188   2.881   1.779  10.127  0.3783 -0.4037 -1.1674
  177SOPE   H6X20189   2.936   1.682  10.128  1.3782  0.1326  1.2958
  177SOPE   H6Y20190   2.942   1.867  10.155 -2.8716  1.7705 -0.3293
  177SOPE   C3720191   2.817   1.811   9.992  0.2743  0.1735 -0.7386
  177SOPE   H7X20192   2.891   1.862   9.927  3.3931 -1.8703  0.9387
  177SOPE   H7Y20193   2.734   1.882  10.011 -0.4511  0.0558 -3.1193
  177SOPE   C3820194   2.731   1.706   9.924  0.7408 -0.1198  0.2370
  177SOPE   H8X20195   2.660   1.658   9.995 -0.8392 -0.3098 -1.3978
  177SOPE   H8Y20196   2.794   1.614   9.917  0.8332 -0.1828  1.6043
  177SOPE   C3920197   2.671   1.755   9.785 -0.2606 -0.1013 -0.6427
  177SOPE   H9X20198   2.650   1.864   9.793 -1.7079 -0.4760  1.1848
  177SOPE   H9Y20199   2.583   1.700   9.746 -0.2780 -0.6435  0.1489
  177SOPE  C31020200   2.781   1.741   9.680 -0.0773  0.0158 -0.4547
  177SOPE  H10X20201   2.779   1.630   9.668 -0.5503 -0.1652  1.1507
  177SOPE  H10Y20202   2.880   1.755   9.728 -0.5041 -0.9166  0.7523
  177SOPE  C31120203   2.748   1.823   9.550  0.0097  0.1921 -0.5890
  177SOPE  H11X20204   2.768   1.927   9.581 -1.8493  1.3418 -2.9552
  177SOPE  H11Y20205   2.640   1.800   9.537  0.8378 -2.6238 -4.2104
  177SOPE  C31220206   2.837   1.786   9.435  0.1495  0.0116  0.0785
  177SOPE  H12X20207   2.945   1.803   9.456  0.5460 -0.8412 -1.1941
  177SOPE  H12Y20208   2.808   1.858   9.355  1.2484  0.1411 -0.2135
  177SOPE  C31320209   2.819   1.646   9.384 -0.0099 -0.4882 -0.0716
  177SOPE  H13X20210   2.715   1.632   9.346 -0.3480 -0.5624  0.8483
  177SOPE  H13Y20211   2.830   1.577   9.471 -1.9353 -0.4980  0.2038
  177SOPE  C31420212   2.904   1.616   9.256  1.0377 -0.2757  0.0221
  177SOPE  H14X20213   3.010   1.609   9.289  0.5074 -2.2546  1.5279
  177SOPE  H14Y20214   2.873   1.699   9.188  0.9007 -1.5389 -1.5233
  177SOPE  C31520215   2.871   1.476   9.194 -0.0553  0.5280 -0.2832
  177SOPE  H15X20216   2.763   1.468   9.170  0.7228 -3.8669 -3.6921
  177SOPE  H15Y20217   2.895   1.406   9.277 -2.6733  0.4259  0.4752
  177SOPE  C31620218   2.947   1.426   9.076 -0.3807 -0.3696  0.1259
  177SOPE  H16X20219   3.057   1.425   9.092 -0.3832 -0.5219  0.1349
  177SOPE  H16Y20220   2.928   1.504   8.998  1.3487  0.3971  0.4159
  177SOPE  C31720221   2.927   1.285   9.027 -0.0390  0.0494 -0.7707
  177SOPE  H17X20222   2.836   1.285   8.964 -0.0624 -0.4888 -0.7420
  177SOPE  H17Y20223   2.920   1.223   9.118  0.5670  0.9918 -0.0565
  177SOPE  C31820224   3.039   1.225   8.938  0.4693 -0.7499 -0.4387
  177SOPE  H18X20225   3.030   1.118   8.913 -1.6696 -0.4941 -0.9588
  177SOPE  H18Y20226   3.134   1.228   8.997  0.0391  0.6890  0.2294
  177SOPE  H18Z20227   3.049   1.282   8.843  2.0254 -1.3735 -0.6767
  178SOPE     N20228   6.213   0.367  11.089 -0.1269  0.6347  0.0324
  178SOPE   HN120229   6.180   0.377  10.991 -0.8962  0.3191  0.2537
  178SOPE   HN220230   6.152   0.306  11.147 -1.9044  1.5411 -0.7995
  178SOPE   HN320231   6.208   0.463  11.130  1.6232  1.3388 -1.2661
  178SOPE   C1220232   6.358   0.334  11.068 -0.1513  0.1567 -0.3202
  178SOPE  H12A20233   6.363   0.226  11.043  1.1039  0.4821 -1.6588
  178SOPE  H12B20234   6.411   0.346  11.165 -1.2764  1.1683  0.1908
  178SOPE   C1120235   6.424   0.412  10.949 -0.6378 -0.2769 -0.1240
  178SOPE  H11A20236   6.532   0.393  10.935 -0.4879  0.4511  0.0077
  178SOPE  H11B20237   6.423   0.516  10.987  1.7912 -0.4258  0.5006
  178SOPE     P20238   6.372   0.495  10.713 -0.0839 -0.2180 -0.1485
  178SOPE   O1320239   6.275   0.601  10.731 -0.5099 -0.2587 -0.2236
  178SOPE   O1420240   6.371   0.422  10.584  0.7333 -0.1563 -0.3922
  178SOPE   O1220241   6.350   0.398  10.833 -0.3766  0.5466  0.3211
  178SOPE   O1120242   6.516   0.552  10.751  0.4276 -0.4923  0.1135
  178SOPE    C120243   6.644   0.512  10.700  0.2009 -0.5775 -0.3079
  178SOPE    HA20244   6.650   0.403  10.722 -1.6314 -0.2141  2.5701
  178SOPE    HB20245   6.728   0.555  10.757 -0.2631  0.3940 -0.3379
  178SOPE    C220246   6.655   0.556  10.554  0.5721 -0.7033 -0.4176
  178SOPE    HS20247   6.567   0.527  10.492  0.1532  0.6755 -0.4932
  178SOPE   O2120248   6.776   0.495  10.503  0.0596  0.2102  0.0394
  178SOPE   C2120249   6.765   0.358  10.469  0.5257 -0.1763  0.2274
  178SOPE   O2220250   6.673   0.290  10.502  0.0764 -0.5041  0.2557
  178SOPE   C2220251   6.881   0.316  10.387 -0.8968  0.8182 -0.1029
  178SOPE   H2R20252   6.915   0.223  10.437 -0.2774 -0.3615 -2.5750
  178SOPE   H2S20253   6.972   0.378  10.371  2.7159 -3.4977  1.7520
  178SOPE    C320254   6.659   0.710  10.525  0.3462 -0.3428  0.2965
  178SOPE    HX20255   6.744   0.745  10.587  2.5931  1.9104 -3.5810
  178SOPE    HY20256   6.579   0.767  10.576  0.0584  0.0552 -0.5641
  178SOPE   O3120257   6.674   0.740  10.384 -0.1976 -0.6670 -0.0037
  178SOPE   C3120258   6.562   0.786  10.329 -0.3229  0.0569  0.0256
  178SOPE   O3220259   6.452   0.799  10.381 -0.3966  0.3095  0.1486
  178SOPE   C3220260   6.586   0.809  10.178 -0.0627  0.4442  0.1958
  178SOPE   H2X20261   6.688   0.852  10.168  0.1241 -0.3680 -1.9492
  178SOPE   H2Y20262   6.530   0.900  10.145  0.8915  1.1640  0.5000
  178SOPE   C2320263   6.837   0.256  10.249  0.4766  0.2964  0.3307
  178SOPE   H3R20264   6.734   0.216  10.247  0.5293  0.1705  0.1271
  178SOPE   H3S20265   6.893   0.161  10.239  2.2738  1.2243  1.1037
  178SOPE   C2420266   6.877   0.343  10.130 -0.3176 -0.3132  0.3680
  178SOPE   H4R20267   6.816   0.435  10.142 -1.2482 -0.6219 -1.6445
  178SOPE   H4S20268   6.985   0.369  10.130 -0.3724  0.5681 -3.4566
  178SOPE   C2520269   6.854   0.276   9.988  0.5523 -0.2327 -0.2112
  178SOPE   H5R20270   6.912   0.182   9.993  0.4749 -0.3256 -0.9532
  178SOPE   H5S20271   6.750   0.240   9.973  1.4562 -3.3678  0.2759
  178SOPE   C2620272   6.903   0.367   9.877  0.1651  0.0500  0.7261
  178SOPE   H6R20273   6.834   0.454   9.886 -0.2650 -0.2673  0.5361
  178SOPE   H6S20274   7.004   0.409   9.898  0.2792  0.7346 -0.9837
  178SOPE   C2720275   6.881   0.318   9.737 -0.3566  0.4588  0.2152
  178SOPE   H7R20276   6.914   0.213   9.723 -0.2326  0.4540  0.5464
  178SOPE   H7S20277   6.773   0.319   9.714 -0.4719 -0.2862  0.7005
  178SOPE   C2820278   6.952   0.407   9.634 -0.4479  0.0073  0.0793
  178SOPE   H8R20279   6.926   0.512   9.661 -2.0588 -0.2588 -0.2931
  178SOPE   H8S20280   7.062   0.402   9.625 -0.5617 -0.4925 -1.1827
  178SOPE   C2920281   6.882   0.400   9.500 -0.2591 -0.2120  0.2448
  178SOPE   H9120282   6.772   0.393   9.503 -0.2270 -4.1676 -1.9588
  178SOPE  C21020283   6.939   0.386   9.379 -0.2889  0.1978 -0.9082
  178SOPE  H10120284   6.884   0.388   9.284 -1.1068  0.4697 -0.4364
  178SOPE  C21120285   7.087   0.374   9.359 -0.4618 -0.2439 -0.2045
  178SOPE  H11R20286   7.131   0.272   9.350  2.3481  0.9635 -1.3749
  178SOPE  H11S20287   7.146   0.428   9.435  1.1211 -2.9049  0.5975
  178SOPE  C21220288   7.123   0.452   9.232 -0.0811 -0.4325 -0.7461
  178SOPE  H12R20289   7.231   0.479   9.229 -0.3608  1.5267  2.2865
  178SOPE  H12S20290   7.064   0.545   9.214  1.6753  1.0061  0.6171
  178SOPE  C21320291   7.088   0.369   9.105  0.5384  0.4324  0.2201
  178SOPE  H13R20292   6.990   0.320   9.118 -0.4580  1.7106 -1.8398
  178SOPE  H13S20293   7.164   0.288   9.104 -0.2544 -0.3707 -2.0912
  178SOPE  C21420294   7.086   0.435   8.965 -0.4449 -0.6721 -0.2497
  178SOPE  H14R20295   7.187   0.478   8.952 -0.4303 -0.2944  1.0084
  178SOPE  H14S20296   7.025   0.528   8.964  2.4649  1.3891  0.9538
  178SOPE  C21520297   7.042   0.344   8.849  0.4985  0.0658 -0.1444
  178SOPE  H15R20298   6.972   0.270   8.894 -0.7684  2.0035  1.2289
  178SOPE  H15S20299   7.136   0.292   8.820  0.5996  0.5154 -0.6327
  178SOPE  C21620300   6.989   0.415   8.725  0.2321 -0.3120  0.2205
  178SOPE  H16R20301   7.050   0.504   8.699 -2.6717  1.7814  0.2433
  178SOPE  H16S20302   6.886   0.448   8.749 -0.1662 -0.8518 -0.6793
  178SOPE  C21720303   6.987   0.326   8.592  0.4363  0.1477 -0.0882
  178SOPE  H17R20304   6.970   0.398   8.510  1.2839 -0.7931 -1.1141
  178SOPE  H17S20305   6.911   0.245   8.588 -1.4228  1.8311 -0.3300
  178SOPE  C21820306   7.120   0.256   8.566 -0.5785  0.0915 -0.2751
  178SOPE  H18R20307   7.207   0.324   8.575 -0.3269 -0.4297  1.6364
  178SOPE  H18S20308   7.117   0.212   8.464  0.0164 -0.5418 -0.0281
  178SOPE  H18T20309   7.136   0.180   8.645 -0.7318  0.1926 -0.1473
  178SOPE   C3320310   6.548   0.692  10.086 -0.1823 -0.4428 -0.2287
  178SOPE   H3X20311   6.438   0.694  10.099 -0.0473  1.1601  1.0741
  178SOPE   H3Y20312   6.603   0.600  10.113 -0.7719 -0.6895  0.1358
  178SOPE   C3420313   6.575   0.720   9.940 -0.3712  0.8012 -0.4560
  178SOPE   H4X20314   6.684   0.735   9.921 -0.3873 -0.2395 -1.4134
  178SOPE   H4Y20315   6.533   0.821   9.919 -0.7025  0.7073 -0.2515
  178SOPE   C3520316   6.515   0.615   9.847 -0.5554 -0.5571  0.1139
  178SOPE   H5X20317   6.405   0.624   9.847 -0.5134  0.0927  0.4095
  178SOPE   H5Y20318   6.538   0.512   9.882 -0.8325 -0.4659  0.5723
  178SOPE   C3620319   6.580   0.622   9.705 -0.1338  0.3163 -0.5261
  178SOPE   H6X20320   6.528   0.549   9.640  0.8077  1.0839 -2.1990
  178SOPE   H6Y20321   6.684   0.585   9.715  0.3118  1.1367 -1.8530
  178SOPE   C3720322   6.582   0.762   9.638  0.6704 -0.4420 -0.1636
  178SOPE   H7X20323   6.641   0.761   9.544 -0.2293 -2.4011 -0.7447
  178SOPE   H7Y20324   6.641   0.820   9.713  2.6553 -0.2609 -1.7754
  178SOPE   C3820325   6.441   0.818   9.616  0.2452 -0.6438 -0.0480
  178SOPE   H8X20326   6.460   0.927   9.610 -2.0180 -0.2188 -0.1276
  178SOPE   H8Y20327   6.374   0.816   9.705 -0.4872  1.2249 -0.5147
  178SOPE   C3920328   6.379   0.767   9.489  0.8217 -0.4366 -0.1319
  178SOPE   H9X20329   6.269   0.784   9.496  1.1005  1.2502  0.7930
  178SOPE   H9Y20330   6.395   0.658   9.474  0.5461 -0.5097  0.0898
  178SOPE  C31020331   6.398   0.854   9.366 -0.4746  1.1793  0.7105
  178SOPE  H10X20332   6.502   0.830   9.337 -0.2529  0.6007  1.9061
  178SOPE  H10Y20333   6.389   0.958   9.403 -2.1896  0.9118  1.1690
  178SOPE  C31120334   6.308   0.820   9.245  0.8780 -0.2810  0.1226
  178SOPE  H11X20335   6.203   0.853   9.262 -0.0224 -3.3620  1.2273
  178SOPE  H11Y20336   6.299   0.710   9.228  4.0017 -0.5817 -0.2499
  178SOPE  C31220337   6.360   0.882   9.118 -0.8687  0.3377  0.1221
  178SOPE  H12X20338   6.457   0.830   9.101 -1.0604 -0.0250  0.1192
  178SOPE  H12Y20339   6.377   0.991   9.133 -2.6222  0.6036  0.3843
  178SOPE  C31320340   6.261   0.856   9.000 -0.6917 -0.3290 -0.3571
  178SOPE  H13X20341   6.167   0.911   9.025 -0.8388 -0.0377 -1.5252
  178SOPE  H13Y20342   6.231   0.749   8.993 -1.3206 -0.0981 -1.2269
  178SOPE  C31420343   6.317   0.906   8.866  0.0000  0.5697 -0.3892
  178SOPE  H14X20344   6.406   0.842   8.848  1.5984  2.3077  0.9670
  178SOPE  H14Y20345   6.358   1.009   8.864  2.5262 -0.3581 -0.2408
  178SOPE  C31520346   6.220   0.874   8.755 -0.9811 -0.2748 -0.7535
  178SOPE  H15X20347   6.145   0.955   8.747  0.6262  1.2945 -0.4457
  178SOPE  H15Y20348   6.192   0.770   8.780  1.0461 -0.8354 -0.6234
  178SOPE  C31620349   6.296   0.865   8.623 -0.1205 -0.5543  0.9992
  178SOPE  H16X20350   6.253   0.778   8.568  0.6241 -1.6487  2.0980
  178SOPE  H16Y20351   6.407   0.852   8.622  0.5038  3.3852 -0.0396
  178SOPE  C31720352   6.275   0.990   8.534  0.1969 -0.2113  0.8773
  178SOPE  H17X20353   6.289   1.085   8.591 -2.2385  1.9025 -1.7205
  178SOPE  H17Y20354   6.166   0.989   8.511 -0.0615 -2.6011  1.9702
  178SOPE  C31820355   6.364   0.993   8.413  0.6549 -0.5323 -0.5692
  178SOPE  H18X20356   6.328   1.074   8.347 -1.0999 -2.3180 -1.9111
  178SOPE  H18Y20357   6.354   0.909   8.341 -0.1566 -0.1749 -0.8764
  178SOPE  H18Z20358   6.472   1.003   8.441  0.1882 -0.4728  1.3986
  179SOPE     N20359   5.814   0.833   6.179  0.2653  0.7559  0.2067
  179SOPE   HN120360   5.760   0.915   6.215  0.4801  0.9172  0.1640
  179SOPE   HN220361   5.906   0.837   6.228 -0.9297  1.9585  2.5217
  179SOPE   HN320362   5.831   0.855   6.079 -0.0597  0.0746 -0.0000
  179SOPE   C1220363   5.743   0.710   6.221 -0.3722  0.3855 -0.1582
  179SOPE  H12A20364   5.650   0.691   6.163 -1.6059  1.2002  1.4758
  179SOPE  H12B20365   5.693   0.723   6.319  1.6721 -0.6013  1.0877
  179SOPE   C1120366   5.848   0.597   6.252  0.4268  0.2864 -0.0998
  179SOPE  H11A20367   5.901   0.591   6.155  1.4712 -2.5795  0.5509
  179SOPE  H11B20368   5.805   0.495   6.265  2.9140 -0.6227  1.8356
  179SOPE     P20369   5.905   0.589   6.511 -0.1618  0.0350 -0.1121
  179SOPE   O1320370   6.040   0.561   6.574 -0.0396 -0.6779  0.0162
  179SOPE   O1420371   5.808   0.479   6.497 -0.5694 -0.4535 -0.3203
  179SOPE   O1220372   5.941   0.634   6.362 -0.0698 -0.2089 -0.0864
  179SOPE   O1120373   5.849   0.724   6.581 -0.0632 -0.2157  0.2016
  179SOPE    C120374   5.938   0.838   6.586  0.3091  0.2332 -0.3376
  179SOPE    HA20375   5.895   0.916   6.520 -1.4804  0.8062  1.4389
  179SOPE    HB20376   6.041   0.821   6.547  1.4856  2.1694  1.7487
  179SOPE    C220377   5.962   0.891   6.733  0.4975 -0.4260 -0.1705
  179SOPE    HS20378   6.032   0.977   6.739  1.1973 -0.9867 -0.2933
  179SOPE   O2120379   6.003   0.787   6.818 -0.4709 -0.0851 -0.3606
  179SOPE   C2120380   6.127   0.741   6.809  0.4333 -0.1910  0.7677
  179SOPE   O2220381   6.216   0.793   6.745 -0.0238 -0.2337  0.0524
  179SOPE   C2220382   6.145   0.623   6.890 -0.4125  0.1329 -0.3834
  179SOPE   H2R20383   6.242   0.577   6.862 -0.2236 -0.4096  1.0923
  179SOPE   H2S20384   6.068   0.551   6.856 -2.0571  2.0511 -0.9428
  179SOPE    C320385   5.831   0.958   6.787  0.2893 -0.7390  0.1286
  179SOPE    HX20386   5.770   0.877   6.831 -1.5987  0.7102  0.3111
  179SOPE    HY20387   5.776   0.984   6.694  1.7631 -0.4281 -0.7070
  179SOPE   O3120388   5.846   1.071   6.877 -0.2226 -0.0378  0.5165
  179SOPE   C3120389   5.894   1.184   6.815  1.0090 -0.3896  0.1826
  179SOPE   O3220390   5.915   1.195   6.697 -0.7139  0.3121  0.1158
  179SOPE   C3220391   5.903   1.300   6.918 -0.8585  0.9364 -0.0156
  179SOPE   H2X20392   6.010   1.330   6.913 -1.0280  1.4867 -0.3331
  179SOPE   H2Y20393   5.891   1.250   7.016 -1.1838 -1.3036 -1.1267
  179SOPE   C2320394   6.146   0.635   7.048 -0.3699 -0.3543  0.2725
  179SOPE   H3R20395   6.195   0.547   7.095 -1.0854 -0.6738  0.4308
  179SOPE   H3S20396   6.041   0.624   7.084 -1.4326  0.1815 -2.4522
  179SOPE   C2420397   6.207   0.772   7.091 -0.6249 -0.3553 -0.2355
  179SOPE   H4R20398   6.315   0.775   7.063 -0.3230  3.1726  0.9079
  179SOPE   H4S20399   6.151   0.853   7.040 -2.4077 -2.8811 -2.6067
  179SOPE   C2520400   6.199   0.786   7.249  0.3390 -0.2964  0.1409
  179SOPE   H5R20401   6.094   0.790   7.286  0.3343  0.3582  0.0633
  179SOPE   H5S20402   6.235   0.697   7.305  0.6063  0.4493  1.1861
  179SOPE   C2620403   6.269   0.914   7.304  0.2260 -0.7125  1.1699
  179SOPE   H6R20404   6.375   0.891   7.325  0.4173 -0.7251  0.2405
  179SOPE   H6S20405   6.264   0.988   7.221 -2.1131  0.5699  2.3583
  179SOPE   C2720406   6.197   0.961   7.428  0.1964  0.4349 -0.7147
  179SOPE   H7R20407   6.128   1.044   7.401  1.3792  1.7082  0.0152
  179SOPE   H7S20408   6.139   0.884   7.482 -1.0784  1.8656  0.0336
  179SOPE   C2820409   6.294   1.023   7.537  0.6624  0.0921  0.9115
  179SOPE   H8R20410   6.350   0.940   7.586  0.3773 -0.1308  0.8631
  179SOPE   H8S20411   6.360   1.092   7.480 -0.2748 -0.0217 -0.3657
  179SOPE   C2920412   6.237   1.105   7.648  0.0006  0.2949  0.0137
  179SOPE   H9120413   6.216   1.206   7.609  0.1432  0.1690 -0.3962
  179SOPE  C21020414   6.188   1.081   7.773 -0.6683 -0.0933 -0.3524
  179SOPE  H10120415   6.157   1.168   7.833 -1.8163 -1.2252  0.7551
  179SOPE  C21120416   6.188   0.946   7.847  0.2652  0.4031 -0.1312
  179SOPE  H11R20417   6.208   0.862   7.777 -0.1552  1.7642 -1.9843
  179SOPE  H11S20418   6.084   0.942   7.885 -0.4943  0.6791 -2.0917
  179SOPE  C21220419   6.272   0.941   7.974 -0.1310 -0.5101  0.3180
  179SOPE  H12R20420   6.253   1.024   8.046 -0.1141  1.1952 -1.5527
  179SOPE  H12S20421   6.379   0.953   7.945 -0.6346  0.4406 -1.2639
  179SOPE  C21320422   6.254   0.813   8.047  0.4894  0.0583 -0.0287
  179SOPE  H13R20423   6.324   0.799   8.132 -0.9544 -0.7241  1.0587
  179SOPE  H13S20424   6.265   0.728   7.977  3.2276 -1.1431  1.7093
  179SOPE  C21420425   6.125   0.812   8.133 -0.6309 -0.0989 -0.6541
  179SOPE  H14R20426   6.033   0.813   8.072 -0.1446  1.9786 -1.4551
  179SOPE  H14S20427   6.113   0.885   8.216  0.5921 -1.1606  0.5062
  179SOPE  C21520428   6.124   0.684   8.217  0.3232 -0.9706 -0.2071
  179SOPE  H15R20429   6.193   0.702   8.303 -1.3124  1.9695  0.6356
  179SOPE  H15S20430   6.160   0.596   8.160  0.7901 -0.9957  0.1159
  179SOPE  C21620431   5.983   0.648   8.278  0.8266 -0.7946  0.1448
  179SOPE  H16R20432   5.906   0.653   8.199  0.5665  0.0897  0.4467
  179SOPE  H16S20433   5.948   0.728   8.346 -1.6396 -1.7396  0.0800
  179SOPE  C21720434   5.983   0.523   8.364 -0.3895 -0.4700 -0.2190
  179SOPE  H17R20435   6.035   0.449   8.299  0.9271 -0.5969  0.9132
  179SOPE  H17S20436   5.877   0.492   8.376  0.0192 -2.2399 -0.8446
  179SOPE  C21820437   6.065   0.527   8.498 -0.0287  0.1200 -0.0192
  179SOPE  H18R20438   6.171   0.554   8.479  0.2617  0.9095  2.4690
  179SOPE  H18S20439   6.072   0.426   8.543  1.4327  0.5431  0.7552
  179SOPE  H18T20440   6.027   0.596   8.577 -0.3161  0.7829 -0.7170
  179SOPE   C3320441   5.797   1.402   6.896  0.2280 -0.0797 -0.0417
  179SOPE   H3X20442   5.700   1.349   6.882 -2.1478  3.2837  2.2044
  179SOPE   H3Y20443   5.836   1.449   6.804  0.2834 -0.2865 -0.1244
  179SOPE   C3420444   5.778   1.504   7.012 -0.5957 -0.0075  0.5168
  179SOPE   H4X20445   5.748   1.447   7.102  0.1823 -1.0063  0.1672
  179SOPE   H4Y20446   5.697   1.576   6.989 -0.9865 -0.4309  0.5773
  179SOPE   C3520447   5.915   1.568   7.048 -0.2381 -0.7498  0.1426
  179SOPE   H5X20448   5.922   1.648   6.971 -0.0033 -0.5220  0.3943
  179SOPE   H5Y20449   6.000   1.500   7.028  0.3177  0.3928 -1.6183
  179SOPE   C3620450   5.918   1.643   7.180  0.4469  0.4332  0.6573
  179SOPE   H6X20451   6.024   1.663   7.207  0.7713 -2.0605  1.5236
  179SOPE   H6Y20452   5.881   1.570   7.255  1.4883 -1.7341 -0.8403
  179SOPE   C3720453   5.845   1.774   7.182 -0.3101 -0.0895  0.0976
  179SOPE   H7X20454   5.737   1.755   7.164 -0.2236  0.5189 -1.1942
  179SOPE   H7Y20455   5.888   1.846   7.109 -0.3503 -1.0373 -0.8986
  179SOPE   C3820456   5.881   1.854   7.310  0.2824 -0.9434  0.4490
  179SOPE   H8X20457   5.848   1.960   7.307  2.4949 -0.2227  0.1781
  179SOPE   H8Y20458   5.990   1.868   7.298 -0.2131  2.3905 -1.2080
  179SOPE   C3920459   5.835   1.781   7.437  0.1204 -0.0274 -0.8132
  179SOPE   H9X20460   5.893   1.687   7.433  2.0565  0.9390  1.7825
  179SOPE   H9Y20461   5.725   1.765   7.436  0.3687 -2.6125  1.7379
  179SOPE  C31020462   5.871   1.855   7.569  0.5337 -0.3436  0.1442
  179SOPE  H10X20463   5.818   1.952   7.557  1.3359  0.3656  1.9497
  179SOPE  H10Y20464   5.982   1.867   7.572  0.2443  4.3366  0.2137
  179SOPE  C31120465   5.827   1.802   7.700 -0.1176  0.5583 -0.0983
  179SOPE  H11X20466   5.847   1.692   7.694 -2.0848  0.1364  0.3444
  179SOPE  H11Y20467   5.720   1.819   7.725 -0.1997  0.9187 -0.6792
  179SOPE  C31220468   5.913   1.861   7.812  0.2058  0.5070  0.3968
  179SOPE  H12X20469   5.912   1.969   7.785 -1.6386  0.4477  0.0778
  179SOPE  H12Y20470   6.018   1.825   7.811  0.9505  2.4658  1.4226
  179SOPE  C31320471   5.856   1.824   7.950  0.2051  0.2857  0.6192
  179SOPE  H13X20472   5.886   1.720   7.973  2.8129  0.3974 -1.7783
  179SOPE  H13Y20473   5.745   1.837   7.951  0.3773  3.7290 -2.3811
  179SOPE  C31420474   5.915   1.910   8.059 -0.0918  0.2259 -0.2009
  179SOPE  H14X20475   5.894   2.018   8.041  0.5691  0.1778 -1.4156
  179SOPE  H14Y20476   6.023   1.883   8.052  0.4389  2.1390  0.0817
  179SOPE  C31520477   5.875   1.871   8.203  0.4530 -0.0514  0.1131
  179SOPE  H15X20478   5.932   1.936   8.273  3.6758 -0.5838 -1.7917
  179SOPE  H15Y20479   5.901   1.764   8.217  0.0902 -0.2374 -0.5855
  179SOPE  C31620480   5.724   1.899   8.227  0.7517 -0.2188 -0.1904
  179SOPE  H16X20481   5.656   1.864   8.147  1.2270 -1.9053  0.1077
  179SOPE  H16Y20482   5.710   2.010   8.230 -0.6052 -0.3890  1.6677
  179SOPE  C31720483   5.672   1.853   8.363  0.6850  0.0868 -0.7894
  179SOPE  H17X20484   5.567   1.891   8.362  0.6265 -0.0202  0.2861
  179SOPE  H17Y20485   5.740   1.899   8.437  1.8259  0.2365 -1.9018
  179SOPE  C31820486   5.680   1.703   8.390  0.4323  0.6313 -0.2528
  179SOPE  H18X20487   5.666   1.687   8.499 -1.9108  0.3711 -0.5454
  179SOPE  H18Y20488   5.770   1.649   8.353  0.2965 -1.3320  2.0211
  179SOPE  H18Z20489   5.592   1.650   8.346 -0.0179  2.5578 -1.8092
  180SOPE     N20490   5.829   5.861   6.216  0.8381 -0.6459  0.1257
  180SOPE   HN120491   5.751   5.918   6.178  1.3825 -0.6280 -1.0037
  180SOPE   HN220492   5.916   5.919   6.223  1.1085 -1.1646  1.5613
  180SOPE   HN320493   5.843   5.785   6.147 -0.1156  1.9276 -3.1253
  180SOPE   C1220494   5.789   5.820   6.357  0.0781 -0.6608 -0.1512
  180SOPE  H12A20495   5.825   5.908   6.415 -0.5658 -0.1098 -0.5671
  180SOPE  H12B20496   5.829   5.720   6.384 -0.8101 -0.9541  0.1087
  180SOPE   C1120497   5.632   5.821   6.381  0.2063  0.1300 -0.5339
  180SOPE  H11A20498   5.592   5.921   6.357 -0.1997  0.5899  1.8261
  180SOPE  H11B20499   5.611   5.818   6.490  1.1214 -0.7681 -0.3593
  180SOPE     P20500   5.415   5.724   6.283  0.3891  0.5624  0.1762
  180SOPE   O1320501   5.358   5.600   6.218 -0.1666  0.3341 -0.1188
  180SOPE   O1420502   5.392   5.851   6.218  0.5244 -0.2020  0.1049
  180SOPE   O1220503   5.564   5.717   6.311  0.0133  0.0618  0.0000
  180SOPE   O1120504   5.343   5.734   6.423  0.4566  0.1961  0.0791
  180SOPE    C120505   5.358   5.637   6.526 -0.2714 -0.9039  0.3496
  180SOPE    HA20506   5.383   5.692   6.619  0.2358  0.1631 -0.3943
  180SOPE    HB20507   5.450   5.577   6.511  0.7842  0.0048  2.6358
  180SOPE    C220508   5.238   5.551   6.549 -0.4769  0.0617 -0.2527
  180SOPE    HS20509   5.211   5.516   6.447 -0.0700 -0.0713 -0.3185
  180SOPE   O2120510   5.130   5.632   6.599 -0.1208 -0.4326 -0.4079
  180SOPE   C2120511   5.007   5.576   6.605  0.0776 -0.2965 -0.2341
  180SOPE   O2220512   4.967   5.464   6.585  0.7631  0.5143 -0.5425
  180SOPE   C2220513   4.915   5.689   6.660  0.6834 -0.1639  0.5195
  180SOPE   H2R20514   4.826   5.689   6.594 -0.1172  2.8652  1.4001
  180SOPE   H2S20515   4.959   5.790   6.643  0.9445 -0.4100 -0.3147
  180SOPE    C320516   5.268   5.423   6.639  0.1389 -0.2846  0.2733
  180SOPE    HX20517   5.337   5.357   6.583  1.8568  1.2627  0.4592
  180SOPE    HY20518   5.176   5.362   6.637  0.9004 -1.5743 -3.1914
  180SOPE   O3120519   5.326   5.463   6.763 -0.7115  0.5486  0.4048
  180SOPE   C3120520   5.250   5.490   6.867  0.1904 -0.0534 -0.2497
  180SOPE   O3220521   5.128   5.481   6.870  0.6317  0.7142 -0.1153
  180SOPE   C3220522   5.339   5.536   6.986  0.2716  0.3816  0.5123
  180SOPE   H2X20523   5.422   5.600   6.949 -0.1184  0.5349 -0.1109
  180SOPE   H2Y20524   5.378   5.439   7.025 -0.7263  0.6301  2.2003
  180SOPE   C2320525   4.888   5.684   6.811  0.2640  0.0862  0.2192
  180SOPE   H3R20526   4.849   5.783   6.842  1.1694 -0.3006  2.7879
  180SOPE   H3S20527   4.988   5.684   6.857  1.5885  1.2783 -2.4057
  180SOPE   C2420528   4.798   5.570   6.859  0.4337 -0.4010  0.0600
  180SOPE   H4R20529   4.704   5.580   6.801  1.5332 -2.9556 -2.3387
  180SOPE   H4S20530   4.828   5.468   6.826  1.1836  0.1555 -1.0307
  180SOPE   C2520531   4.767   5.566   7.010 -0.1742  0.2733  0.0213
  180SOPE   H5R20532   4.723   5.659   7.052 -1.4057 -0.3841  0.2382
  180SOPE   H5S20533   4.692   5.485   7.023 -0.4595  0.6405  0.7006
  180SOPE   C2620534   4.895   5.528   7.093 -0.6400 -0.2439 -0.1470
  180SOPE   H6R20535   4.948   5.443   7.045  0.7973 -0.6162  1.9523
  180SOPE   H6S20536   4.969   5.610   7.103 -1.7975  0.8168 -0.0850
  180SOPE   C2720537   4.854   5.478   7.235  0.4737  0.2036 -0.1069
  180SOPE   H7R20538   4.764   5.412   7.237  1.8988 -1.8681 -0.5435
  180SOPE   H7S20539   4.944   5.434   7.284  0.2724  0.0932  0.1691
  180SOPE   C2820540   4.809   5.593   7.315 -0.1107 -0.0027 -0.1704
  180SOPE   H8R20541   4.894   5.665   7.312  0.9352 -1.2136 -1.2566
  180SOPE   H8S20542   4.727   5.646   7.264  1.3884  1.3134 -1.3120
  180SOPE   C2920543   4.744   5.554   7.448  0.3227  0.0530  0.6873
  180SOPE   H9120544   4.650   5.499   7.440 -0.5442  1.6885 -1.4206
  180SOPE  C21020545   4.784   5.582   7.575  0.0691  0.3123  0.3190
  180SOPE  H10120546   4.720   5.538   7.653 -1.0038 -0.7311 -1.0905
  180SOPE  C21120547   4.912   5.660   7.620  0.6180 -0.4790  0.1804
  180SOPE  H11R20548   4.949   5.711   7.529  1.0121  1.1947  1.2368
  180SOPE  H11S20549   4.996   5.591   7.643  4.6142  3.7288 -0.3509
  180SOPE  C21220550   4.887   5.763   7.732  0.2553 -0.2112  0.5687
  180SOPE  H12R20551   4.817   5.837   7.686  0.7139 -2.3116 -4.0176
  180SOPE  H12S20552   4.982   5.817   7.754 -1.6543  2.7279  2.4588
  180SOPE  C21320553   4.840   5.706   7.857  0.4639 -0.5593 -0.7606
  180SOPE  H13R20554   4.911   5.625   7.883 -0.9351 -2.0232 -1.3895
  180SOPE  H13S20555   4.743   5.654   7.850 -0.8629  1.8977 -2.2147
  180SOPE  C21420556   4.840   5.821   7.960 -0.1986  0.5785  0.5527
  180SOPE  H14R20557   4.753   5.883   7.931 -2.8620 -1.3296  3.7444
  180SOPE  H14S20558   4.941   5.867   7.957  0.6864 -1.3122 -0.4908
  180SOPE  C21520559   4.803   5.777   8.104  0.3618  0.7515 -0.0465
  180SOPE  H15R20560   4.700   5.736   8.096  0.6262  0.4179 -2.7187
  180SOPE  H15S20561   4.811   5.860   8.177  0.0105 -0.0659  0.9314
  180SOPE  C21620562   4.902   5.676   8.162  0.5404  0.4262  0.0550
  180SOPE  H16R20563   5.008   5.711   8.159  0.9389 -0.7621 -2.3382
  180SOPE  H16S20564   4.903   5.576   8.113  1.9571 -0.2665  1.4120
  180SOPE  C21720565   4.863   5.644   8.314 -0.2821  0.2743  0.3340
  180SOPE  H17R20566   4.764   5.594   8.307 -1.2550  1.6750  3.1031
  180SOPE  H17S20567   4.858   5.744   8.361 -1.9088  0.1222  0.5465
  180SOPE  C21820568   4.963   5.551   8.389  0.9215  0.4018  0.1058
  180SOPE  H18R20569   4.944   5.533   8.497  0.4757 -0.7404 -0.1488
  180SOPE  H18S20570   5.057   5.610   8.382  0.9780  0.1265 -3.9660
  180SOPE  H18T20571   4.984   5.452   8.343 -1.2764  0.5735 -1.3943
  180SOPE   C3320572   5.254   5.609   7.096  0.2953  0.5951  0.6665
  180SOPE   H3X20573   5.192   5.531   7.142 -1.0876  0.3058 -1.5556
  180SOPE   H3Y20574   5.194   5.693   7.055  0.9929  1.1278  0.6993
  180SOPE   C3420575   5.336   5.676   7.205  0.1557 -0.3205  0.2608
  180SOPE   H4X20576   5.368   5.776   7.168 -0.3380 -0.4671 -0.5695
  180SOPE   H4Y20577   5.436   5.631   7.222  1.1184  0.5897 -2.5366
  180SOPE   C3520578   5.264   5.694   7.334 -0.4971 -1.0555  0.8372
  180SOPE   H5X20579   5.251   5.591   7.374 -1.1441 -0.3761  2.5038
  180SOPE   H5Y20580   5.162   5.734   7.316 -0.4659 -2.0864 -2.0108
  180SOPE   C3620581   5.338   5.774   7.441 -0.1766  0.9905 -0.3198
  180SOPE   H6X20582   5.356   5.871   7.390  0.0205  0.6707 -0.8719
  180SOPE   H6Y20583   5.437   5.730   7.468  1.0352  2.4617 -2.1553
  180SOPE   C3720584   5.263   5.793   7.570  0.0893  0.4626  0.3918
  180SOPE   H7X20585   5.249   5.695   7.621  1.7954  0.3709  0.7322
  180SOPE   H7Y20586   5.167   5.845   7.547 -0.1621 -0.1777 -0.0213
  180SOPE   C3820587   5.346   5.882   7.665 -0.3039 -0.5642  0.1551
  180SOPE   H8X20588   5.355   5.981   7.616  1.1964 -1.0516 -0.6246
  180SOPE   H8Y20589   5.449   5.848   7.691  0.5486  1.8808  0.2006
  180SOPE   C3920590   5.260   5.903   7.787 -0.5852 -0.8147  0.0899
  180SOPE   H9X20591   5.230   5.799   7.811  0.5462 -1.2161 -0.1973
  180SOPE   H9Y20592   5.171   5.956   7.747 -0.5595 -0.4523  0.5053
  180SOPE  C31020593   5.326   5.985   7.896  0.5104 -0.2780  0.8834
  180SOPE  H10X20594   5.329   6.091   7.865 -1.7467 -0.5188 -0.4543
  180SOPE  H10Y20595   5.424   5.933   7.907  0.7800 -0.4236 -1.6240
  180SOPE  C31120596   5.258   5.997   8.032  0.3565  0.2049  0.9991
  180SOPE  H11X20597   5.271   5.904   8.092 -0.4664 -0.1792  0.6036
  180SOPE  H11Y20598   5.147   6.011   8.030  0.2513  0.9597  4.4061
  180SOPE  C31220599   5.330   6.100   8.121  0.0694  0.0498  0.1428
  180SOPE  H12X20600   5.349   6.191   8.061  1.5919  0.6384  1.4519
  180SOPE  H12Y20601   5.437   6.078   8.140 -0.1193 -1.3959 -0.3633
  180SOPE  C31320602   5.261   6.151   8.244 -0.5877 -0.3480  0.4990
  180SOPE  H13X20603   5.154   6.173   8.220 -0.8748 -0.6845  1.4371
  180SOPE  H13Y20604   5.305   6.240   8.293  0.3304 -1.6384  2.1272
  180SOPE  C31420605   5.248   6.048   8.358 -0.2392 -0.0393 -0.3751
  180SOPE  H14X20606   5.214   5.950   8.317  1.7060 -0.4245 -1.1641
  180SOPE  H14Y20607   5.174   6.084   8.432  1.0212  0.7296  0.5542
  180SOPE  C31520608   5.385   6.019   8.417  0.0223  0.4324 -0.4010
  180SOPE  H15X20609   5.406   6.098   8.493  0.0524 -0.1274  0.1729
  180SOPE  H15Y20610   5.461   6.043   8.339 -0.8936  3.4033 -0.5168
  180SOPE  C31620611   5.398   5.870   8.470  1.0073 -0.9394 -0.4422
  180SOPE  H16X20612   5.347   5.794   8.408 -0.2875 -0.6254  0.2177
  180SOPE  H16Y20613   5.323   5.867   8.552  0.4053  0.8356 -0.8758
  180SOPE  C31720614   5.533   5.828   8.529 -0.0156 -0.1761  0.0857
  180SOPE  H17X20615   5.563   5.900   8.609  0.5628 -1.0430  0.6661
  180SOPE  H17Y20616   5.606   5.835   8.446  1.3693  1.2497  1.3474
  180SOPE  C31820617   5.532   5.692   8.590 -0.3703 -0.1385 -0.3575
  180SOPE  H18X20618   5.467   5.618   8.538 -1.3778  0.6266 -0.2025
  180SOPE  H18Y20619   5.501   5.692   8.696 -0.4922  0.5848 -0.3868
  180SOPE  H18Z20620   5.631   5.644   8.575 -1.2148 -1.9657 -0.3341
  181SOPE     N20621   4.730   5.155   6.345 -0.0682  0.4102 -0.3165
  181SOPE   HN120622   4.748   5.073   6.406 -0.1280  1.4031  1.0950
  181SOPE   HN220623   4.823   5.185   6.308 -0.0574  0.0906 -0.5491
  181SOPE   HN320624   4.704   5.219   6.423  0.7708 -1.7306  1.8773
  181SOPE   C1220625   4.627   5.128   6.232  0.1933  0.1608 -0.1165
  181SOPE  H12A20626   4.629   5.213   6.160 -2.3135 -0.2738 -0.7822
  181SOPE  H12B20627   4.525   5.131   6.276 -0.6609 -0.9211 -1.9026
  181SOPE   C1120628   4.652   4.995   6.165  0.4588 -0.7673 -0.6642
  181SOPE  H11A20629   4.588   4.980   6.076 -0.6693 -0.3330  0.0421
  181SOPE  H11B20630   4.619   4.924   6.244  1.2667 -1.0564 -0.5711
  181SOPE     P20631   4.838   4.832   6.082 -0.0250  0.0806 -0.5010
  181SOPE   O1320632   4.863   4.843   5.942  0.2677 -0.6230  0.4156
  181SOPE   O1420633   4.743   4.729   6.128  0.7621 -0.2158 -0.1876
  181SOPE   O1220634   4.792   4.972   6.136  0.9825 -0.3678  0.4498
  181SOPE   O1120635   4.975   4.812   6.157  0.3533 -0.1381  0.4308
  181SOPE    C120636   5.002   4.828   6.295  0.1916 -0.5992  0.6007
  181SOPE    HA20637   5.008   4.938   6.304 -1.5229  0.0447 -3.7899
  181SOPE    HB20638   5.105   4.787   6.297  0.2302 -0.8549 -2.4132
  181SOPE    C220639   4.899   4.745   6.382 -0.7582 -0.1894 -1.3365
  181SOPE    HS20640   4.797   4.781   6.355 -0.7928 -1.5450 -3.2572
  181SOPE   O2120641   4.924   4.762   6.522  0.2407  0.5379 -0.2859
  181SOPE   C2120642   4.901   4.887   6.560 -1.0046  0.3871  0.0853
  181SOPE   O2220643   4.858   4.975   6.485 -0.2129  0.1062  0.4111
  181SOPE   C2220644   4.952   4.904   6.704 -0.5049 -0.0122 -0.2039
  181SOPE   H2R20645   5.016   4.816   6.724 -0.0609  0.4246  0.3284
  181SOPE   H2S20646   4.863   4.897   6.771  0.0689 -2.1207  0.4286
  181SOPE    C320647   4.900   4.588   6.348  0.2768 -0.8940 -0.2002
  181SOPE    HX20648   4.928   4.574   6.242  1.0591 -1.8858  0.1256
  181SOPE    HY20649   4.798   4.554   6.375  0.7455 -0.3610  2.5549
  181SOPE   O3120650   5.002   4.522   6.424  0.2128 -0.6105  0.0273
  181SOPE   C3120651   4.970   4.457   6.539  0.0340 -0.4356 -0.4480
  181SOPE   O3220652   4.856   4.449   6.578  0.1916 -0.0738  0.6567
  181SOPE   C3220653   5.090   4.379   6.588 -0.2180  0.7904  0.3562
  181SOPE   H2X20654   5.150   4.460   6.633 -0.1718  0.8746  0.1441
  181SOPE   H2Y20655   5.135   4.332   6.498 -0.8614  0.9051 -0.0302
  181SOPE   C2320656   5.037   5.031   6.744  1.0605 -0.0574 -0.2718
  181SOPE   H3R20657   4.977   5.122   6.723 -0.2900 -0.7615  0.3487
  181SOPE   H3S20658   5.123   5.032   6.674  0.6979  0.4792 -0.7124
  181SOPE   C2420659   5.067   5.040   6.898 -0.8943 -0.7335  0.3704
  181SOPE   H4R20660   4.966   5.044   6.945 -1.4428 -1.5389 -0.6909
  181SOPE   H4S20661   5.106   4.944   6.938  0.7568  0.1852  1.0604
  181SOPE   C2520662   5.152   5.164   6.940 -0.2435 -0.0133 -0.3223
  181SOPE   H5R20663   5.247   5.162   6.884  1.3805 -1.0907  2.2952
  181SOPE   H5S20664   5.101   5.253   6.897  2.9414  0.4304 -3.6732
  181SOPE   C2620665   5.173   5.193   7.088  0.1009  0.3276 -0.0022
  181SOPE   H6R20666   5.208   5.298   7.103  0.2496  0.3861 -0.7525
  181SOPE   H6S20667   5.085   5.177   7.153  0.9962 -0.2477  1.1104
  181SOPE   C2720668   5.269   5.094   7.151  0.3894 -0.8282  0.5324
  181SOPE   H7R20669   5.241   4.990   7.122 -2.1073  0.0589 -0.5816
  181SOPE   H7S20670   5.371   5.112   7.110  0.6604 -0.0487  1.4960
  181SOPE   C2820671   5.273   5.082   7.303 -0.0831 -0.1249  0.1523
  181SOPE   H8R20672   5.177   5.045   7.344  1.1746 -1.4231  2.1188
  181SOPE   H8S20673   5.348   5.005   7.331  0.9884  1.3446  1.5343
  181SOPE   C2920674   5.318   5.215   7.369  0.2822 -0.5721 -0.4483
  181SOPE   H9120675   5.416   5.253   7.335  1.1428 -0.7808  1.6426
  181SOPE  C21020676   5.251   5.272   7.479  0.4456  0.0258  0.4545
  181SOPE  H10120677   5.281   5.371   7.517  1.7539 -0.1063 -0.2078
  181SOPE  C21120678   5.130   5.202   7.548 -0.0854 -0.3812  0.4203
  181SOPE  H11R20679   5.164   5.119   7.614 -0.4740 -1.0954 -0.2550
  181SOPE  H11S20680   5.057   5.169   7.471 -1.4806  2.2411  0.5064
  181SOPE  C21220681   5.047   5.295   7.634  0.8327  0.1385 -0.1339
  181SOPE  H12R20682   5.012   5.380   7.572 -0.0957  0.2797  0.5527
  181SOPE  H12S20683   5.121   5.320   7.713  2.3826 -2.3579 -0.6821
  181SOPE  C21320684   4.919   5.236   7.697  0.2967  0.5867 -0.1330
  181SOPE  H13R20685   4.938   5.130   7.727  0.7508 -0.1906 -2.9230
  181SOPE  H13S20686   4.844   5.223   7.617 -0.8791 -0.3361  1.0649
  181SOPE  C21420687   4.868   5.315   7.817 -0.4914 -0.5265  0.2516
  181SOPE  H14R20688   4.795   5.392   7.785 -1.6491 -1.6714  0.1060
  181SOPE  H14S20689   4.954   5.374   7.857  2.0862 -2.3215 -2.2333
  181SOPE  C21520690   4.808   5.218   7.923  0.2306 -0.3115 -0.1651
  181SOPE  H15R20691   4.889   5.147   7.950  2.1181  2.1323  1.1247
  181SOPE  H15S20692   4.729   5.166   7.865 -0.0772  0.8622 -0.8259
  181SOPE  C21620693   4.744   5.273   8.056 -0.2928  0.5534  0.9624
  181SOPE  H16R20694   4.831   5.268   8.124  3.1954  1.5916 -2.9530
  181SOPE  H16S20695   4.674   5.192   8.084 -0.0758  0.5160  1.3997
  181SOPE  C21720696   4.669   5.407   8.040  1.1755 -0.7558  0.1539
  181SOPE  H17R20697   4.747   5.482   8.016  1.9923 -1.0287  1.8122
  181SOPE  H17S20698   4.631   5.450   8.135 -0.5066 -2.2829  0.2225
  181SOPE  C21820699   4.547   5.423   7.944 -0.9400 -0.2289  0.2559
  181SOPE  H18R20700   4.539   5.530   7.916  2.4098 -0.6134 -2.7837
  181SOPE  H18S20701   4.446   5.391   7.980 -0.9100 -1.5510 -0.7775
  181SOPE  H18T20702   4.575   5.379   7.846  1.2793 -0.6588  1.0286
  181SOPE   C3320703   5.041   4.287   6.702 -0.2315  0.5350 -0.0143
  181SOPE   H3X20704   5.112   4.203   6.720 -0.4406 -0.1762 -2.1988
  181SOPE   H3Y20705   4.941   4.243   6.679  0.7263 -0.8575 -1.8807
  181SOPE   C3420706   5.039   4.366   6.830  0.0316  0.1074  0.2084
  181SOPE   H4X20707   5.020   4.473   6.806 -1.0769  0.1505  1.1451
  181SOPE   H4Y20708   5.135   4.352   6.885  0.5943 -0.5323 -0.8963
  181SOPE   C3520709   4.918   4.332   6.915 -0.2740  0.7741  0.9311
  181SOPE   H5X20710   4.922   4.222   6.930 -1.8284  0.4916 -0.4049
  181SOPE   H5Y20711   4.828   4.356   6.855  0.3566 -0.5612 -0.6481
  181SOPE   C3620712   4.919   4.392   7.053  0.3131 -0.3095  1.4381
  181SOPE   H6X20713   5.021   4.380   7.095  1.0381  0.8118  0.0850
  181SOPE   H6Y20714   4.835   4.347   7.110 -0.7906 -1.5854 -1.0318
  181SOPE   C3720715   4.895   4.537   7.041  0.0006 -0.2595 -0.1347
  181SOPE   H7X20716   4.796   4.558   6.995 -0.3417  1.1595  1.1579
  181SOPE   H7Y20717   4.975   4.586   6.981 -0.8689  1.5505  0.1036
  181SOPE   C3820718   4.902   4.607   7.174  0.1370 -0.1427 -0.0027
  181SOPE   H8X20719   4.895   4.715   7.151 -3.9982 -0.5238 -1.2212
  181SOPE   H8Y20720   4.992   4.588   7.237 -2.1032 -2.1803  2.8697
  181SOPE   C3920721   4.783   4.571   7.266  0.1834 -0.3785 -0.0930
  181SOPE   H9X20722   4.795   4.464   7.294 -2.2908 -1.2666 -2.0687
  181SOPE   H9Y20723   4.696   4.579   7.198 -1.2144  0.4634  1.6886
  181SOPE  C31020724   4.759   4.665   7.385 -0.1149 -0.0911 -0.0720
  181SOPE  H10X20725   4.746   4.770   7.353 -4.6891 -0.7391 -1.0514
  181SOPE  H10Y20726   4.847   4.662   7.454 -1.6305  0.5345  1.9879
  181SOPE  C31120727   4.639   4.622   7.472  0.0037  0.4775  0.4359
  181SOPE  H11X20728   4.625   4.512   7.479 -0.6032  0.5095 -0.1205
  181SOPE  H11Y20729   4.546   4.658   7.421  0.7388  2.6180  0.5386
  181SOPE  C31220730   4.639   4.680   7.618 -0.1712 -0.5813  0.5217
  181SOPE  H12X20731   4.537   4.682   7.662  0.5749  0.1850  2.3114
  181SOPE  H12Y20732   4.674   4.786   7.618  1.7019 -0.9770 -3.5749
  181SOPE  C31320733   4.726   4.591   7.710  0.2171 -0.6833 -0.4661
  181SOPE  H13X20734   4.821   4.561   7.661 -0.6161 -2.6878 -0.9401
  181SOPE  H13Y20735   4.664   4.501   7.730  0.9242 -1.5952 -2.2092
  181SOPE  C31420736   4.751   4.660   7.843 -0.1461  0.1795 -0.1074
  181SOPE  H14X20737   4.773   4.582   7.919  0.0556 -0.0830 -0.4378
  181SOPE  H14Y20738   4.657   4.709   7.878  0.4284  0.3792  1.2191
  181SOPE  C31520739   4.865   4.766   7.820  0.1274 -0.0669 -0.1504
  181SOPE  H15X20740   4.831   4.850   7.756 -0.1062 -0.7349 -0.9150
  181SOPE  H15Y20741   4.953   4.714   7.777 -0.9818  0.1854 -2.9586
  181SOPE  C31620742   4.916   4.817   7.960  0.0380 -0.1800 -0.7458
  181SOPE  H16X20743   4.978   4.908   7.946  2.1635 -1.5485 -0.6196
  181SOPE  H16Y20744   4.973   4.730   8.000 -0.1991 -0.0224 -0.0470
  181SOPE  C31720745   4.814   4.846   8.074  0.8947  0.1727 -0.3418
  181SOPE  H17X20746   4.751   4.757   8.093 -0.6353  1.2871 -0.0116
  181SOPE  H17Y20747   4.751   4.924   8.025  0.7215  0.8496  0.9098
  181SOPE  C31820748   4.877   4.904   8.202  0.4340 -0.5892  0.8075
  181SOPE  H18X20749   4.931   4.995   8.170 -1.2815 -0.3344 -1.5814
  181SOPE  H18Y20750   4.941   4.831   8.257 -0.9660 -0.7347  2.3241
  181SOPE  H18Z20751   4.796   4.943   8.268 -1.9905 -1.4163 -1.5132
  182SOPE     N20752   3.328   5.041   6.056  0.8981 -0.3892 -0.4425
  182SOPE   HN120753   3.235   5.069   6.019 -0.6023 -2.6110  1.3645
  182SOPE   HN220754   3.401   5.052   5.983 -0.2462 -0.3550 -1.6251
  182SOPE   HN320755   3.336   4.943   6.089  1.3545 -0.2903 -0.2480
  182SOPE   C1220756   3.368   5.128   6.167  0.7371 -0.6326 -0.1181
  182SOPE  H12A20757   3.324   5.091   6.262  1.5751 -2.4357 -0.3893
  182SOPE  H12B20758   3.332   5.232   6.150  2.1905 -0.2473 -1.0690
  182SOPE   C1120759   3.522   5.112   6.183  0.1545 -0.4927  0.2779
  182SOPE  H11A20760   3.559   5.009   6.200  1.8050  0.3798  2.4196
  182SOPE  H11B20761   3.550   5.168   6.275  2.6299 -1.1743  0.0084
  182SOPE     P20762   3.651   5.299   6.058  0.1356 -0.3801 -0.4782
  182SOPE   O1320763   3.548   5.399   6.074 -0.1520  0.2131 -0.7841
  182SOPE   O1420764   3.728   5.308   5.931  0.5151  0.0247 -0.3569
  182SOPE   O1220765   3.585   5.164   6.069  0.3476  0.4929 -0.1106
  182SOPE   O1120766   3.749   5.308   6.181  0.4481  0.2040  0.1343
  182SOPE    C120767   3.828   5.420   6.214  0.6883 -0.5554 -0.6968
  182SOPE    HA20768   3.775   5.511   6.177 -2.0768 -2.3187 -1.3782
  182SOPE    HB20769   3.926   5.415   6.163  1.8227  1.4366  1.1352
  182SOPE    C220770   3.849   5.441   6.366  0.1855  0.2551 -0.3681
  182SOPE    HS20771   3.919   5.357   6.389 -0.8133 -0.6829 -0.6677
  182SOPE   O2120772   3.724   5.429   6.433 -0.3404  0.1571  0.4638
  182SOPE   C2120773   3.734   5.374   6.557 -0.3897 -0.4638 -0.2288
  182SOPE   O2220774   3.833   5.332   6.604  0.5782 -0.0732 -0.6846
  182SOPE   C2220775   3.591   5.369   6.615 -1.0032 -0.2356 -0.3105
  182SOPE   H2R20776   3.529   5.309   6.545  0.4271 -0.2435 -1.6351
  182SOPE   H2S20777   3.559   5.475   6.614 -2.1331 -0.5628  0.0591
  182SOPE    C320778   3.930   5.575   6.402  0.8526  0.2533  0.1046
  182SOPE    HX20779   3.879   5.669   6.371 -0.2526 -0.4657 -0.2918
  182SOPE    HY20780   4.022   5.571   6.340 -0.3188 -1.8244 -1.6317
  182SOPE   O3120781   3.960   5.597   6.541  0.2008 -0.2899 -0.6801
  182SOPE   C3120782   3.871   5.661   6.610  0.4465 -0.2686  0.0482
  182SOPE   O3220783   3.779   5.733   6.564 -0.2415  0.5470  0.0482
  182SOPE   C3220784   3.897   5.646   6.766  0.3459 -0.5405  0.3322
  182SOPE   H2X20785   4.006   5.658   6.781  0.6541 -1.7987 -0.6535
  182SOPE   H2Y20786   3.873   5.539   6.783 -0.0976 -0.8685 -1.9576
  182SOPE   C2320787   3.582   5.321   6.766 -0.0433  0.5242  0.2130
  182SOPE   H3R20788   3.667   5.366   6.821  0.4031  0.7661 -0.6582
  182SOPE   H3S20789   3.597   5.212   6.778 -0.5302  0.5336  0.9686
  182SOPE   C2420790   3.452   5.362   6.832  0.4942  1.2195  0.5462
  182SOPE   H4R20791   3.417   5.463   6.803  2.7635  1.3512 -2.2234
  182SOPE   H4S20792   3.382   5.279   6.809  0.6204  0.6966  1.9601
  182SOPE   C2520793   3.473   5.357   6.984  0.0660  0.3392  0.6696
  182SOPE   H5R20794   3.381   5.326   7.037  0.0653 -1.1063 -0.1258
  182SOPE   H5S20795   3.544   5.274   6.999  1.0715  1.2423  1.0095
  182SOPE   C2620796   3.519   5.490   7.045  0.2102 -0.5308  0.6249
  182SOPE   H6R20797   3.619   5.512   7.003  0.8526  0.8141  2.6868
  182SOPE   H6S20798   3.461   5.577   7.008  0.9654 -0.0667  0.5136
  182SOPE   C2720799   3.520   5.477   7.198  0.1109 -0.0473  0.3207
  182SOPE   H7R20800   3.417   5.461   7.236 -0.1626  0.3722 -0.2235
  182SOPE   H7S20801   3.585   5.393   7.232  0.1411  0.5648  1.8424
  182SOPE   C2820802   3.579   5.604   7.270 -0.6516 -0.4699 -0.2464
  182SOPE   H8R20803   3.602   5.571   7.373 -0.6128 -1.0037 -0.4235
  182SOPE   H8S20804   3.672   5.625   7.212 -1.4719 -1.5261 -2.0494
  182SOPE   C2920805   3.501   5.735   7.280  0.2905  0.5836 -0.1766
  182SOPE   H9120806   3.517   5.813   7.204  1.2089  0.5916  0.0084
  182SOPE  C21020807   3.414   5.772   7.377 -0.5005  1.0280  0.7291
  182SOPE  H10120808   3.369   5.872   7.372 -3.0740 -0.0918 -1.1307
  182SOPE  C21120809   3.372   5.694   7.497 -0.6699 -0.3442  0.0970
  182SOPE  H11R20810   3.434   5.604   7.515  0.1963  0.4501  1.2929
  182SOPE  H11S20811   3.266   5.669   7.476 -0.3965 -1.2816 -0.1799
  182SOPE  C21220812   3.368   5.768   7.630 -0.1458  0.2343  0.4418
  182SOPE  H12R20813   3.305   5.860   7.620 -0.8551  0.0926  2.8922
  182SOPE  H12S20814   3.471   5.806   7.643  0.0298 -0.1592  0.2136
  182SOPE  C21320815   3.314   5.688   7.752  0.2591  0.1572 -0.1968
  182SOPE  H13R20816   3.388   5.609   7.776 -0.3560 -0.3619  0.0116
  182SOPE  H13S20817   3.221   5.640   7.714 -0.4150  0.3307  1.1607
  182SOPE  C21420818   3.288   5.763   7.879  0.5122 -1.2604 -1.0507
  182SOPE  H14R20819   3.233   5.703   7.956  2.2671 -0.7982  0.6413
  182SOPE  H14S20820   3.222   5.849   7.854 -2.0830 -2.3682  1.3195
  182SOPE  C21520821   3.419   5.825   7.955  0.8825 -0.1967  0.3331
  182SOPE  H15R20822   3.461   5.905   7.890 -0.2251  0.6973  0.6621
  182SOPE  H15S20823   3.491   5.742   7.968  1.5380  0.3577  0.2703
  182SOPE  C21620824   3.388   5.867   8.096 -0.1712 -1.0175 -0.2164
  182SOPE  H16R20825   3.354   5.774   8.147 -0.0120 -0.0571  1.7414
  182SOPE  H16S20826   3.311   5.947   8.093 -0.1167 -0.9893 -1.8601
  182SOPE  C21720827   3.515   5.922   8.159  0.4718  0.1730  0.3677
  182SOPE  H17R20828   3.528   6.028   8.126  0.6287 -0.2343 -0.9325
  182SOPE  H17S20829   3.598   5.862   8.115  2.3565  2.3623  0.7414
  182SOPE  C21820830   3.498   5.905   8.306 -0.6164  0.7833 -0.1250
  182SOPE  H18R20831   3.426   5.980   8.344 -2.9790 -0.6187 -1.6133
  182SOPE  H18S20832   3.588   5.934   8.365 -1.4746  4.5765 -0.4536
  182SOPE  H18T20833   3.450   5.813   8.346  0.4942 -0.0590 -0.6846
  182SOPE   C3320834   3.816   5.757   6.840 -0.1377 -0.0828 -0.4560
  182SOPE   H3X20835   3.710   5.736   6.813 -0.5638  1.3374  0.0119
  182SOPE   H3Y20836   3.843   5.857   6.800  1.9315 -0.2217  0.4608
  182SOPE   C3420837   3.832   5.753   6.991 -0.5667  0.0567 -0.3003
  182SOPE   H4X20838   3.794   5.656   7.030 -2.7775  0.3154 -1.6481
  182SOPE   H4Y20839   3.760   5.821   7.041 -1.1972 -0.7049 -0.1411
  182SOPE   C3520840   3.967   5.780   7.049  0.2287  0.9863  0.3712
  182SOPE   H5X20841   4.004   5.878   7.011 -2.2394  1.2184 -1.6914
  182SOPE   H5Y20842   4.040   5.707   7.009 -1.1085 -0.7488  0.9460
  182SOPE   C3620843   3.977   5.793   7.203 -0.1621  0.0425 -0.1808
  182SOPE   H6X20844   4.084   5.782   7.231  0.1161 -2.5879 -1.9282
  182SOPE   H6Y20845   3.922   5.706   7.246  2.0165 -0.8481  1.0224
  182SOPE   C3720846   3.927   5.933   7.259 -0.1285  0.3852  0.3364
  182SOPE   H7X20847   3.821   5.937   7.228 -0.8109  0.0229  2.4877
  182SOPE   H7Y20848   3.998   6.007   7.215  1.3011 -0.3165  1.3667
  182SOPE   C3820849   3.943   5.937   7.414 -0.8158 -0.4060  0.4986
  182SOPE   H8X20850   3.903   6.034   7.451 -0.0314 -0.1153  0.5934
  182SOPE   H8Y20851   4.049   5.934   7.446 -1.2112 -1.5768  1.7646
  182SOPE   C3920852   3.853   5.837   7.488  0.5423  0.0811 -0.0999
  182SOPE   H9X20853   3.907   5.743   7.509 -3.3301 -2.5092 -0.5456
  182SOPE   H9Y20854   3.763   5.819   7.424 -0.0183  1.2159  0.3207
  182SOPE  C31020855   3.804   5.894   7.622 -0.3464  0.5213 -0.1585
  182SOPE  H10X20856   3.737   5.821   7.673 -0.5202  1.3127  0.7740
  182SOPE  H10Y20857   3.738   5.979   7.595 -0.7674 -0.0862 -1.1038
  182SOPE  C31120858   3.907   5.922   7.726 -0.2307  0.7113 -1.1220
  182SOPE  H11X20859   3.983   5.998   7.697  1.3878  0.3769  1.8447
  182SOPE  H11Y20860   3.973   5.840   7.759 -1.2387 -0.2099 -1.3305
  182SOPE  C31220861   3.836   5.970   7.858 -0.0541 -0.3778 -0.3269
  182SOPE  H12X20862   3.761   5.896   7.895 -0.9565  2.5966  4.6650
  182SOPE  H12Y20863   3.776   6.062   7.841  0.7344  0.8591  3.0015
  182SOPE  C31320864   3.938   6.026   7.961  0.1049  0.0982 -0.0591
  182SOPE  H13X20865   3.976   6.123   7.925 -1.7152 -0.0242 -2.5486
  182SOPE  H13Y20866   4.015   5.948   7.980 -1.0296 -0.4585  2.7354
  182SOPE  C31420867   3.866   6.055   8.099  0.4145  0.3355  0.3648
  182SOPE  H14X20868   3.818   5.961   8.133 -0.8046  0.0509 -1.9158
  182SOPE  H14Y20869   3.790   6.134   8.083  1.0941  1.3795  2.0312
  182SOPE  C31520870   3.981   6.100   8.203  0.8749 -1.0564 -0.2671
  182SOPE  H15X20871   4.017   6.197   8.161 -0.3405  1.1856  3.4063
  182SOPE  H15Y20872   4.050   6.014   8.220 -2.5795 -3.4535  3.4740
  182SOPE  C31620873   3.931   6.153   8.342 -0.0335 -0.1208  0.5402
  182SOPE  H16X20874   3.903   6.062   8.398 -2.1108 -1.5565 -2.5342
  182SOPE  H16Y20875   3.834   6.204   8.331 -1.1074 -1.7943  1.7448
  182SOPE  C31720876   4.031   6.237   8.421 -0.6077  0.0766  0.3447
  182SOPE  H17X20877   4.041   6.338   8.375  2.9797 -0.6420 -0.7885
  182SOPE  H17Y20878   4.129   6.186   8.416 -1.5138 -1.8703  1.2875
  182SOPE  C31820879   3.995   6.266   8.568  0.1071  0.0911  0.1543
  182SOPE  H18X20880   3.901   6.323   8.584 -0.5155 -0.2092 -2.1373
  182SOPE  H18Y20881   4.088   6.309   8.611  2.0772 -2.7269 -0.9283
  182SOPE  H18Z20882   3.975   6.172   8.624  0.3476 -0.4293 -0.6124
  183SOPE     N20883   0.485   5.355   6.367  0.4186  0.8916  0.0860
  183SOPE   HN120884   0.439   5.417   6.436  1.1666  0.0896  1.3373
  183SOPE   HN220885   0.519   5.423   6.295  0.1045  2.0206  0.9830
  183SOPE   HN320886   0.412   5.295   6.325  0.6845 -0.1545  1.0898
  183SOPE   C1220887   0.586   5.278   6.446  0.0784 -0.2449 -0.1330
  183SOPE  H12A20888   0.606   5.337   6.538  1.4038 -0.8530 -0.0023
  183SOPE  H12B20889   0.682   5.272   6.390  0.6239 -0.0102  0.7553
  183SOPE   C1120890   0.524   5.143   6.483  0.2712  0.7910 -0.2290
  183SOPE  H11A20891   0.454   5.157   6.569  1.5386 -0.2634  1.0307
  183SOPE  H11B20892   0.604   5.075   6.519 -1.4866 -1.1499  0.2156
  183SOPE     P20893   0.389   4.944   6.399  0.2505 -0.2237 -0.2047
  183SOPE   O1320894   0.471   4.831   6.355 -0.3856 -0.0410 -0.1471
  183SOPE   O1420895   0.250   4.961   6.340 -0.6399  0.5918  0.3502
  183SOPE   O1220896   0.469   5.075   6.369 -0.3011  0.1535  0.2017
  183SOPE   O1120897   0.364   4.943   6.558 -0.6230  0.0289 -0.6476
  183SOPE    C120898   0.372   4.817   6.626  0.1918 -0.2103  0.3418
  183SOPE    HA20899   0.480   4.793   6.610  0.0644 -0.4688 -0.1710
  183SOPE    HB20900   0.306   4.742   6.577 -0.6551 -0.8018  2.2972
  183SOPE    C220901   0.337   4.829   6.777  0.4507 -0.1992  0.4456
  183SOPE    HS20902   0.341   4.727   6.822 -2.4503 -0.5025  0.1987
  183SOPE   O2120903   0.211   4.894   6.804  0.8389 -0.4115  0.4126
  183SOPE   C2120904   0.107   4.808   6.796 -0.4738 -0.0079  0.1131
  183SOPE   O2220905   0.119   4.691   6.766 -0.2907  0.1318 -0.7554
  183SOPE   C2220906  -0.023   4.886   6.816 -0.2123  0.1125  0.2599
  183SOPE   H2R20907  -0.042   4.924   6.713 -2.6929  2.6721  1.5147
  183SOPE   H2S20908  -0.002   4.968   6.888  2.1575 -0.2968  0.1200
  183SOPE    C320909   0.445   4.919   6.840 -0.0074  0.1314  0.3601
  183SOPE    HX20910   0.422   5.023   6.810  0.6741  0.4022  0.7441
  183SOPE    HY20911   0.548   4.900   6.802  0.6620 -0.3417  2.2656
  183SOPE   O3120912   0.437   4.911   6.983 -0.1902  0.6038  0.1245
  183SOPE   C3120913   0.532   4.821   7.043  0.7078 -0.7464 -0.3885
  183SOPE   O3220914   0.599   4.745   6.982 -0.6133 -0.5476 -0.4916
  183SOPE   C3220915   0.525   4.822   7.196  0.0700 -0.1949 -0.2609
  183SOPE   H2X20916   0.419   4.814   7.228  0.5016  0.5824  1.4491
  183SOPE   H2Y20917   0.559   4.923   7.228  0.9840 -0.1449 -1.3189
  183SOPE   C2320918  -0.147   4.805   6.864 -0.7197 -0.5526  0.1449
  183SOPE   H3R20919  -0.125   4.700   6.835  2.1590  0.6887 -2.7252
  183SOPE   H3S20920  -0.236   4.837   6.806  0.9307 -2.1760 -3.6796
  183SOPE   C2420921  -0.165   4.816   7.019 -0.2619  0.3640 -0.3028
  183SOPE   H4R20922  -0.171   4.923   7.048 -0.2877  0.0450  0.9124
  183SOPE   H4S20923  -0.266   4.781   7.050  0.9520 -3.5016 -0.0732
  183SOPE   C2520924  -0.068   4.730   7.108 -0.5244 -0.2405  0.4722
  183SOPE   H5R20925  -0.095   4.623   7.096 -0.6808 -0.0377 -1.2988
  183SOPE   H5S20926   0.031   4.751   7.062 -0.4361  1.5024  1.3539
  183SOPE   C2620927  -0.089   4.762   7.260  0.3433  0.5700  0.1919
  183SOPE   H6R20928  -0.192   4.730   7.290  0.8103 -2.2477 -0.9022
  183SOPE   H6S20929  -0.015   4.705   7.320  0.4467  0.1648 -0.3155
  183SOPE   C2720930  -0.056   4.907   7.289 -0.1820 -0.1930 -0.8901
  183SOPE   H7R20931   0.039   4.933   7.237  0.2620  0.0888  0.0380
  183SOPE   H7S20932  -0.124   4.984   7.248 -0.0679 -0.5053 -1.6844
  183SOPE   C2820933  -0.031   4.936   7.439 -0.4252  0.4064  0.1969
  183SOPE   H8R20934   0.059   4.879   7.468  0.4992  2.1147  0.8410
  183SOPE   H8S20935  -0.005   5.041   7.466  0.1822 -0.0570  1.4441
  183SOPE   C2920936  -0.147   4.909   7.519  0.0173  0.2510 -0.1093
  183SOPE   H9120937  -0.221   4.990   7.513  1.0932  1.2041 -0.8788
  183SOPE  C21020938  -0.171   4.825   7.616 -0.0761  0.0503 -0.3157
  183SOPE  H10120939  -0.262   4.824   7.678  0.2105 -0.8263  0.1203
  183SOPE  C21120940  -0.071   4.720   7.659  0.7419 -0.1369 -0.5292
  183SOPE  H11R20941   0.020   4.722   7.596  0.3560  0.6440 -1.0792
  183SOPE  H11S20942  -0.118   4.619   7.653 -0.0837  0.2009  0.0389
  183SOPE  C21220943  -0.036   4.735   7.810  0.5034 -0.6595  0.0298
  183SOPE  H12R20944   0.021   4.648   7.848  1.9712  0.4841  0.5681
  183SOPE  H12S20945  -0.135   4.725   7.861 -0.4238  0.6318 -1.4140
  183SOPE  C21320946   0.019   4.865   7.857  0.2324 -0.4322 -0.7070
  183SOPE  H13R20947  -0.037   4.955   7.823 -0.0663 -0.7083 -0.9545
  183SOPE  H13S20948   0.118   4.870   7.806  0.2320  1.5438 -0.5781
  183SOPE  C21420949   0.032   4.880   8.013  0.6125  0.1526  0.0574
  183SOPE  H14R20950  -0.069   4.893   8.056  0.3607  2.0722 -1.0281
  183SOPE  H14S20951   0.078   4.980   8.024 -1.1848  0.8281  2.2038
  183SOPE  C21520952   0.106   4.764   8.081  0.0905  0.1787  0.3541
  183SOPE  H15R20953   0.185   4.735   8.008 -0.0381  2.1672 -0.6322
  183SOPE  H15S20954   0.032   4.681   8.092  1.2486 -0.8966  0.2778
  183SOPE  C21620955   0.176   4.802   8.213 -0.3080  0.7539 -0.3435
  183SOPE  H16R20956   0.243   4.886   8.185 -2.2993  1.6560 -2.7052
  183SOPE  H16S20957   0.244   4.717   8.237 -0.2550  1.2934  1.5802
  183SOPE  C21720958   0.090   4.832   8.336  0.5296  0.3490  0.3000
  183SOPE  H17R20959   0.022   4.747   8.358  0.9777 -0.4852 -1.4246
  183SOPE  H17S20960   0.016   4.907   8.299  0.4974  0.2798  0.2236
  183SOPE  C21820961   0.157   4.889   8.462 -0.1342  0.2960 -0.9279
  183SOPE  H18R20962   0.232   4.964   8.428 -0.7926  0.4882 -2.0206
  183SOPE  H18S20963   0.217   4.804   8.502  0.8844  0.2026 -2.5341
  183SOPE  H18T20964   0.086   4.919   8.541 -0.2641 -0.5555 -0.7158
  183SOPE   C3320965   0.613   4.717   7.265 -0.2657  0.1357  0.1006
  183SOPE   H3X20966   0.711   4.711   7.214  0.3498 -2.1125  1.4106
  183SOPE   H3Y20967   0.571   4.614   7.257 -0.0654 -0.0314  1.0054
  183SOPE   C3420968   0.664   4.756   7.407  0.5927  0.2411  0.6329
  183SOPE   H4X20969   0.727   4.847   7.394 -0.4230  0.6922 -1.5251
  183SOPE   H4Y20970   0.737   4.683   7.449  0.2753 -0.7956 -0.5818
  183SOPE   C3520971   0.548   4.773   7.505  0.4381  0.4858 -0.2862
  183SOPE   H5X20972   0.495   4.676   7.517  1.3025 -0.0154 -0.4509
  183SOPE   H5Y20973   0.475   4.852   7.476 -0.5426 -0.7168 -1.1832
  183SOPE   C3620974   0.596   4.813   7.646 -0.4469  0.1692  0.1550
  183SOPE   H6X20975   0.625   4.920   7.639 -3.2648  0.9274 -1.7955
  183SOPE   H6Y20976   0.678   4.744   7.674  2.7381  3.5237 -0.1213
  183SOPE   C3720977   0.477   4.816   7.746 -0.7007  0.0771 -0.7517
  183SOPE   H7X20978   0.416   4.723   7.742 -0.3908 -0.2384  0.8363
  183SOPE   H7Y20979   0.420   4.904   7.710 -1.5477  1.2373  3.0075
  183SOPE   C3820980   0.507   4.860   7.893 -0.3969  0.2698  0.7033
  183SOPE   H8X20981   0.410   4.893   7.935  0.5120  3.9928  0.2078
  183SOPE   H8Y20982   0.562   4.956   7.886  3.1126 -1.6763 -1.6580
  183SOPE   C3920983   0.582   4.760   7.981 -0.2562  0.4786 -0.3507
  183SOPE   H9X20984   0.691   4.782   7.980 -0.5542  2.1851 -2.5707
  183SOPE   H9Y20985   0.577   4.659   7.935  2.5564  1.1614 -2.4404
  183SOPE  C31020986   0.539   4.769   8.126  0.5828 -0.0970  0.1003
  183SOPE  H10X20987   0.591   4.685   8.178  0.0805  0.4811  1.6179
  183SOPE  H10Y20988   0.432   4.751   8.149  0.6468  1.1711  1.5452
  183SOPE  C31120989   0.597   4.892   8.191  0.1776 -0.2056  0.4008
  183SOPE  H11X20990   0.579   4.980   8.125 -0.1245  0.7850  1.7523
  183SOPE  H11Y20991   0.708   4.892   8.184  0.1714 -1.4018  0.1679
  183SOPE  C31220992   0.547   4.918   8.335 -0.1666  0.3228 -0.1023
  183SOPE  H12X20993   0.558   4.821   8.389  0.4859 -0.0007 -0.7886
  183SOPE  H12Y20994   0.440   4.949   8.328 -0.3669 -0.3375 -0.0774
  183SOPE  C31320995   0.638   5.018   8.406  0.9522 -0.4109 -0.3970
  183SOPE  H13X20996   0.658   5.106   8.341 -1.6901  0.6100  0.0492
  183SOPE  H13Y20997   0.731   4.959   8.421  0.1866 -1.3403  0.8973
  183SOPE  C31420998   0.588   5.071   8.539  1.0980  0.3389  0.1054
  183SOPE  H14X20999   0.532   4.987   8.584  1.1964 -0.4251 -1.1634
  183SOPE  H14Y21000   0.514   5.153   8.521 -0.9454 -1.0506  1.7160
  183SOPE  C31521001   0.700   5.115   8.635 -0.0171  0.5821  0.3164
  183SOPE  H15X21002   0.721   5.225   8.635  3.4290  0.0797 -1.9563
  183SOPE  H15Y21003   0.796   5.082   8.589 -0.9893  1.0207 -2.1916
  183SOPE  C31621004   0.681   5.051   8.774 -0.3288 -0.2382 -0.6110
  183SOPE  H16X21005   0.695   4.941   8.771  3.1212  0.1000 -0.7243
  183SOPE  H16Y21006   0.576   5.058   8.808  0.1315 -1.7410  1.2899
  183SOPE  C31721007   0.769   5.122   8.876  0.0991 -0.1047  0.3737
  183SOPE  H17X21008   0.755   5.232   8.869 -0.5936 -0.2286 -0.3630
  183SOPE  H17Y21009   0.875   5.091   8.864  0.1688 -0.4995  1.7495
  183SOPE  C31821010   0.737   5.095   9.026 -0.7950 -0.4809  0.2290
  183SOPE  H18X21011   0.627   5.110   9.028 -0.9736 -1.6565  0.1155
  183SOPE  H18Y21012   0.784   5.173   9.088 -3.0711  0.7539  0.5065
  183SOPE  H18Z21013   0.755   4.995   9.072 -1.5314 -0.1534  1.2657
  184SOPE     N21014   0.518   3.958   5.976  0.2148  0.0458  0.0766
  184SOPE   HN121015   0.520   4.054   6.015  0.7595  0.4802 -0.9906
  184SOPE   HN221016   0.441   3.939   5.908 -0.2603 -0.0418  0.6284
  184SOPE   HN321017   0.498   3.889   6.051 -2.8633  0.8124  0.1044
  184SOPE   C1221018   0.650   3.919   5.911 -0.4548  0.9488  0.5210
  184SOPE  H12A21019   0.670   3.987   5.825 -2.8001  3.0714  1.5135
  184SOPE  H12B21020   0.643   3.814   5.877 -0.4399  1.1441 -0.0978
  184SOPE   C1121021   0.770   3.922   6.009  0.8649  0.1069 -0.1169
  184SOPE  H11A21022   0.848   3.850   5.977  2.0168  1.2687 -0.0051
  184SOPE  H11B21023   0.745   3.884   6.111  3.6633 -0.2916  0.5177
  184SOPE     P21024   0.915   4.092   6.138 -0.5405 -0.1825  0.1726
  184SOPE   O1321025   0.928   4.236   6.144 -0.3383  0.4373  0.1950
  184SOPE   O1421026   1.034   4.007   6.119 -0.1237  0.2114  0.7050
  184SOPE   O1221027   0.807   4.060   6.024 -0.0253 -0.1406  0.4590
  184SOPE   O1121028   0.843   4.037   6.272 -0.2368  0.1240 -0.3250
  184SOPE    C121029   0.712   4.091   6.291 -0.0200  0.6327  0.4262
  184SOPE    HA21030   0.630   4.038   6.237  1.0121 -1.4483  0.8316
  184SOPE    HB21031   0.707   4.200   6.267 -0.0781  0.1964 -1.7726
  184SOPE    C221032   0.672   4.068   6.436 -0.3128  0.3105 -0.5964
  184SOPE    HS21033   0.570   4.110   6.447 -0.8672 -0.6008 -1.9886
  184SOPE   O2121034   0.764   4.136   6.526  0.0325  0.0952  0.0611
  184SOPE   C2121035   0.729   4.258   6.570  0.1526  0.3389  0.4287
  184SOPE   O2221036   0.630   4.316   6.534 -0.1749  0.1440 -0.2793
  184SOPE   C2221037   0.819   4.306   6.681  0.2878  0.4484 -0.0788
  184SOPE   H2R21038   0.813   4.417   6.685 -0.8647  0.4670 -1.5637
  184SOPE   H2S21039   0.921   4.271   6.655 -0.0400 -0.4606 -0.1809
  184SOPE    C321040   0.649   3.915   6.476 -0.2137 -0.3011 -0.0202
  184SOPE    HX21041   0.733   3.867   6.421  1.1334  1.0446  0.7778
  184SOPE    HY21042   0.553   3.876   6.436 -0.9294  0.7433  0.6261
  184SOPE   O3121043   0.663   3.891   6.615 -0.4095  0.2327 -0.6203
  184SOPE   C3121044   0.558   3.913   6.685  0.4572 -0.1998  0.3500
  184SOPE   O3221045   0.450   3.964   6.642  0.7673  0.0703  0.5908
  184SOPE   C3221046   0.589   3.884   6.835 -0.4094  0.0218  0.4167
  184SOPE   H2X21047   0.686   3.933   6.856  0.8396 -1.3045 -1.8479
  184SOPE   H2Y21048   0.599   3.774   6.827  2.5475  0.3217 -1.2718
  184SOPE   C2321049   0.780   4.237   6.813 -0.0913 -0.0561 -1.1315
  184SOPE   H3R21050   0.867   4.225   6.881 -0.2533 -3.3409 -1.3583
  184SOPE   H3S21051   0.764   4.128   6.796  0.4829 -0.0540 -1.7226
  184SOPE   C2421052   0.661   4.303   6.896 -0.2586  0.4397  0.2256
  184SOPE   H4R21053   0.601   4.359   6.821 -0.9178  1.3668  1.4259
  184SOPE   H4S21054   0.593   4.221   6.926 -1.1884  0.2910 -2.0753
  184SOPE   C2521055   0.720   4.389   7.015 -0.2318  0.0723 -0.1556
  184SOPE   H5R21056   0.804   4.446   6.969 -1.0626  0.0625 -1.7432
  184SOPE   H5S21057   0.643   4.454   7.062 -0.4731  0.0625 -0.5304
  184SOPE   C2621058   0.764   4.289   7.129  0.1294 -1.0694 -0.1773
  184SOPE   H6R21059   0.681   4.217   7.142 -0.9133  0.1790  0.3184
  184SOPE   H6S21060   0.849   4.229   7.091  0.5844  0.8504 -2.5062
  184SOPE   C2721061   0.802   4.364   7.259  0.1625  0.4819  0.2089
  184SOPE   H7R21062   0.861   4.452   7.224 -0.1551  0.1357 -1.2543
  184SOPE   H7S21063   0.711   4.408   7.306  0.2270  1.9165 -0.9284
  184SOPE   C2821064   0.885   4.282   7.355  0.0167 -0.1184  0.1888
  184SOPE   H8R21065   0.840   4.183   7.379 -0.7592  0.3717  0.7852
  184SOPE   H8S21066   0.965   4.254   7.283 -0.9376 -0.1310 -0.8881
  184SOPE   C2921067   0.932   4.366   7.473 -0.4502  0.4259  0.0794
  184SOPE   H9121068   1.037   4.396   7.481 -0.3547  0.6050 -1.5185
  184SOPE  C21021069   0.854   4.403   7.581  0.5437  0.1830  0.2838
  184SOPE  H10121070   0.905   4.471   7.650  0.0832  1.4899 -0.6289
  184SOPE  C21121071   0.705   4.375   7.601 -0.1626  0.0070 -0.1180
  184SOPE  H11R21072   0.663   4.295   7.536 -0.0800  0.6111 -0.9443
  184SOPE  H11S21073   0.654   4.468   7.568 -0.8214 -0.7212 -1.2320
  184SOPE  C21221074   0.679   4.348   7.753 -0.1425  0.1989 -0.3875
  184SOPE  H12R21075   0.569   4.331   7.755  0.1980 -2.5997 -1.0797
  184SOPE  H12S21076   0.696   4.437   7.817 -4.2731  0.9010 -0.0022
  184SOPE  C21321077   0.754   4.225   7.820  0.3805 -0.6150 -0.3651
  184SOPE  H13R21078   0.864   4.237   7.811  0.3521 -1.0466 -1.5207
  184SOPE  H13S21079   0.704   4.133   7.783 -2.0232  0.6990 -0.6037
  184SOPE  C21421080   0.721   4.229   7.975 -0.3295 -0.2623  0.0675
  184SOPE  H14R21081   0.610   4.223   7.982 -0.4860  0.3129 -1.6368
  184SOPE  H14S21082   0.761   4.324   8.017  1.1285  0.5680 -2.9382
  184SOPE  C21521083   0.783   4.120   8.059  0.6174  0.6650  0.5471
  184SOPE  H15R21084   0.894   4.113   8.050  0.4102 -1.2763 -1.1266
  184SOPE  H15S21085   0.740   4.022   8.030  0.2633  1.2719 -1.0684
  184SOPE  C21621086   0.734   4.130   8.206  0.0742 -0.1100 -0.4359
  184SOPE  H16R21087   0.719   4.237   8.228  0.9091 -0.2781  1.1520
  184SOPE  H16S21088   0.806   4.083   8.277  0.5379 -1.7344 -1.8979
  184SOPE  C21721089   0.593   4.087   8.240 -0.2384  0.0520  1.1028
  184SOPE  H17R21090   0.590   3.979   8.216 -1.0041  0.1529  0.7274
  184SOPE  H17S21091   0.529   4.140   8.166 -0.8207 -1.1350  0.7282
  184SOPE  C21821092   0.564   4.123   8.384  1.0207  0.1157  0.0158
  184SOPE  H18R21093   0.454   4.115   8.402  1.1471 -1.4506  0.2605
  184SOPE  H18S21094   0.575   4.230   8.410 -1.1965  1.0962 -2.5677
  184SOPE  H18T21095   0.616   4.058   8.458 -0.7324 -1.5335 -0.1253
  184SOPE   C3321096   0.471   3.927   6.919  0.1490 -0.6120 -0.1441
  184SOPE   H3X21097   0.389   3.853   6.923  0.0437 -0.4298  1.8614
  184SOPE   H3Y21098   0.429   4.021   6.879  0.3265 -0.2469  0.5165
  184SOPE   C3421099   0.514   3.956   7.058 -0.6995  0.1108  0.0105
  184SOPE   H4X21100   0.573   4.051   7.061  2.1773 -1.5972  1.9503
  184SOPE   H4Y21101   0.585   3.876   7.087  0.2695  0.7748 -0.4598
  184SOPE   C3521102   0.402   3.997   7.166  0.3677  0.0480  0.2102
  184SOPE   H5X21103   0.333   3.918   7.202  0.3993 -0.1219 -0.1004
  184SOPE   H5Y21104   0.332   4.064   7.111 -1.0034 -2.1912 -0.9038
  184SOPE   C3621105   0.460   4.059   7.295 -0.2888  0.4532  0.2397
  184SOPE   H6X21106   0.378   4.084   7.366  1.8177  2.5330  2.1199
  184SOPE   H6Y21107   0.511   4.157   7.281 -0.4803  0.8114  1.8528
  184SOPE   C3721108   0.554   3.958   7.362 -0.4031 -0.3624 -0.8341
  184SOPE   H7X21109   0.656   3.958   7.320  0.0409 -2.2733  0.1301
  184SOPE   H7Y21110   0.515   3.855   7.353 -1.4387  0.0541 -1.3266
  184SOPE   C3821111   0.568   3.990   7.513  0.4846  0.1194 -0.7228
  184SOPE   H8X21112   0.548   4.096   7.537 -1.7237 -0.7786  2.0877
  184SOPE   H8Y21113   0.664   3.954   7.556  1.0772  0.5091 -1.6908
  184SOPE   C3921114   0.453   3.927   7.595  0.0677 -0.5033 -0.1169
  184SOPE   H9X21115   0.464   3.817   7.578  0.3975 -0.4817 -0.0476
  184SOPE   H9Y21116   0.354   3.957   7.555 -0.0663  1.1335  1.3467
  184SOPE  C31021117   0.458   3.947   7.752 -0.8307 -0.3387 -0.2847
  184SOPE  H10X21118   0.429   4.052   7.776 -2.2132 -0.6859 -0.3833
  184SOPE  H10Y21119   0.564   3.931   7.780  0.4477  1.2852 -3.5832
  184SOPE  C31121120   0.366   3.853   7.831 -0.5358 -0.9341 -0.1185
  184SOPE  H11X21121   0.404   3.749   7.827 -0.0512 -0.7258 -1.0985
  184SOPE  H11Y21122   0.266   3.860   7.783  1.0519  0.2446 -3.5003
  184SOPE  C31221123   0.368   3.894   7.976  0.4307  0.3929  0.3767
  184SOPE  H12X21124   0.319   3.990   8.000  1.5391  0.8002  1.0780
  184SOPE  H12Y21125   0.474   3.901   8.008  1.4301 -1.0985 -2.2367
  184SOPE  C31321126   0.292   3.793   8.066 -0.2834 -0.6047  0.0513
  184SOPE  H13X21127   0.342   3.694   8.059 -1.3636 -1.1870  0.3606
  184SOPE  H13Y21128   0.187   3.782   8.031  0.1584 -0.8420 -1.2770
  184SOPE  C31421129   0.299   3.834   8.214 -0.1246  0.3625  1.1216
  184SOPE  H14X21130   0.224   3.908   8.247 -1.0040 -0.0120  0.0455
  184SOPE  H14Y21131   0.394   3.859   8.265  0.2070 -0.8733  1.1574
  184SOPE  C31521132   0.281   3.712   8.301  0.3914 -0.4644  0.1271
  184SOPE  H15X21133   0.370   3.652   8.272  1.6257  1.2414  0.2279
  184SOPE  H15Y21134   0.182   3.671   8.272 -0.2426  1.3215 -0.3844
  184SOPE  C31621135   0.275   3.752   8.447  0.0201 -0.3886 -0.0931
  184SOPE  H16X21136   0.188   3.805   8.490 -0.1888  0.1181 -1.0964
  184SOPE  H16Y21137   0.360   3.818   8.474 -1.8577  1.5181  1.4536
  184SOPE  C31721138   0.298   3.624   8.530  0.0471  0.8680  0.4799
  184SOPE  H17X21139   0.375   3.555   8.490  1.0305  1.8971  0.5733
  184SOPE  H17Y21140   0.196   3.580   8.534 -0.2066  1.4370  0.4637
  184SOPE  C31821141   0.339   3.647   8.675  0.4934 -0.5962 -0.2179
  184SOPE  H18X21142   0.405   3.737   8.672 -1.0860  0.5916 -0.9518
  184SOPE  H18Y21143   0.396   3.569   8.730  0.6073  0.4196  1.1940
  184SOPE  H18Z21144   0.243   3.670   8.727  0.5816  0.3984 -0.4682
  185SAPI   C1221145   3.187   2.792  11.215  0.0936 -0.5511 -0.5803
  185SAPI    H221146   3.280   2.822  11.162 -1.8794  0.3160 -3.8305
  185SAPI    O221147   3.210   2.781  11.356 -0.1252  0.5748  0.1975
  185SAPI   HO221148   3.305   2.768  11.350 -0.4114 -3.0468 -6.5775
  185SAPI   C1321149   3.080   2.901  11.193 -0.1678  0.6585 -0.0820
  185SAPI    H321150   3.074   2.927  11.085  2.0702 -0.3651 -0.4968
  185SAPI    O321151   3.129   3.024  11.253  0.2393 -0.3402 -0.1775
  185SAPI   HO321152   3.170   2.996  11.335  0.1559 -3.2014 -0.9872
  185SAPI   C1421153   2.951   2.857  11.244 -0.6124 -0.6466  0.2686
  185SAPI    H421154   2.964   2.827  11.350 -0.1385 -1.6026 -0.0454
  185SAPI    O421155   2.853   2.964  11.242 -0.1459  0.2630 -0.3303
  185SAPI   HO421156   2.823   2.984  11.152 -1.6495  1.7603  0.4431
  185SAPI   C1521157   2.904   2.749  11.157 -0.3081  0.3036 -0.0419
  185SAPI    H521158   2.914   2.772  11.049 -1.5906 -1.4208 -0.5658
  185SAPI    O521159   2.764   2.713  11.190 -0.2772  0.0734  0.1941
  185SAPI   HO521160   2.709   2.751  11.121 -0.5267  0.5692  0.6641
  185SAPI   C1621161   2.996   2.627  11.180 -0.6634  0.5813  0.0083
  185SAPI    H621162   2.985   2.606  11.289  2.2684  0.6158  0.3932
  185SAPI    O621163   2.952   2.514  11.105  0.0010  0.3477  0.4084
  185SAPI   HO621164   2.995   2.432  11.132 -1.0889 -0.6865 -0.8746
  185SAPI   C1121165   3.143   2.664  11.148 -0.1852 -0.0013 -0.0873
  185SAPI    H121166   3.145   2.692  11.040 -0.5534  1.1592  0.1943
  185SAPI     P21167   3.356   2.534  11.063  0.1835 -0.5270  0.2984
  185SAPI   O1321168   3.436   2.421  11.107 -0.2496  0.2824 -0.1637
  185SAPI   O1421169   3.428   2.655  11.042  0.0128 -0.2792 -0.2562
  185SAPI   O1221170   3.230   2.553  11.170  0.6120 -0.0629  0.1757
  185SAPI   O1121171   3.271   2.504  10.927 -0.1839 -0.4911 -0.5637
  185SAPI    C121172   3.227   2.364  10.899  0.4941 -0.0727  0.0863
  185SAPI    HA21173   3.317   2.299  10.896  1.1328  0.8196 -1.0372
  185SAPI    HB21174   3.159   2.331  10.980  0.9133 -0.4634  0.2828
  185SAPI    C221175   3.141   2.358  10.768  0.3470 -0.0866 -0.0419
  185SAPI    HS21176   3.101   2.254  10.769 -0.9513  0.3732  2.4462
  185SAPI   O2121177   3.226   2.387  10.656  0.6105  0.1501  0.3985
  185SAPI   C2121178   3.313   2.294  10.616  0.2280 -0.3236  0.2764
  185SAPI   O2221179   3.307   2.178  10.651 -0.0315  0.4207 -0.0894
  185SAPI   C2221180   3.412   2.352  10.526  0.2064 -0.4612 -0.1382
  185SAPI   H2R21181   3.427   2.460  10.548 -0.7008 -0.1142 -1.1000
  185SAPI   H2S21182   3.505   2.303  10.563  1.8623  1.9078 -0.9582
  185SAPI    C321183   3.021   2.446  10.756  0.1640 -0.4950  0.3409
  185SAPI    HX21184   3.060   2.548  10.776 -0.7005  0.0646 -0.7323
  185SAPI    HY21185   2.947   2.438  10.839 -1.3175  0.3336 -0.8479
  185SAPI   O3121186   2.944   2.436  10.634 -0.2347 -0.1036  0.5700
  185SAPI   C3121187   2.968   2.524  10.537 -0.1571  0.2684  0.1850
  185SAPI   O3221188   3.066   2.597  10.530  0.0028  0.1800 -0.7633
  185SAPI   C3221189   2.871   2.509  10.428 -0.2222 -0.1919  0.7534
  185SAPI   H2X21190   2.775   2.559  10.453  0.0922  1.6504 -1.4626
  185SAPI   H2Y21191   2.844   2.402  10.416  0.3534 -0.3724  1.0318
  185SAPI   C2321192   3.393   2.313  10.378 -0.0526 -0.2579 -0.2864
  185SAPI   H3R21193   3.377   2.203  10.367 -2.0677 -0.1505  0.9119
  185SAPI   H3S21194   3.487   2.340  10.326 -0.5853 -1.6243 -2.0738
  185SAPI   C2421195   3.276   2.388  10.300 -0.4538 -0.1409 -0.1779
  185SAPI   H4R21196   3.176   2.378  10.346 -0.7918 -1.1814 -1.1137
  185SAPI   H4S21197   3.267   2.347  10.198  0.7073  1.1863 -0.8515
  185SAPI   C2521198   3.314   2.532  10.281 -0.3352  0.4529 -0.0835
  185SAPI   H5R21199   3.334   2.581  10.377  0.9824  0.5890 -0.4106
  185SAPI   C2621200   3.351   2.591  10.173 -0.0460 -0.2125  0.8915
  185SAPI   H6R21201   3.389   2.694  10.173 -1.8735  0.5516 -1.1489
  185SAPI   C2721202   3.357   2.532  10.039 -0.1835 -0.0476 -0.0411
  185SAPI   H7R21203   3.391   2.427  10.048  1.1455  0.3238 -0.5110
  185SAPI   H7S21204   3.444   2.579   9.989 -0.2381  1.0800  0.8711
  185SAPI   C2821205   3.223   2.536   9.968 -0.2424  0.7564 -0.7216
  185SAPI   H8R21206   3.148   2.474  10.019  1.0208 -0.2134  0.0504
  185SAPI   C2921207   3.195   2.588   9.853 -0.4708  0.1789  0.4179
  185SAPI   H9R21208   3.096   2.562   9.812 -1.4082 -0.3030  2.8344
  185SAPI  C21021209   3.296   2.667   9.770  0.2083 -0.0863 -0.9059
  185SAPI  H10R21210   3.388   2.609   9.748  1.6819  1.2160  1.3032
  185SAPI  H10S21211   3.329   2.751   9.835 -0.7952 -1.0121  0.8932
  185SAPI  C21121212   3.231   2.717   9.642 -0.3160 -0.4308 -0.3948
  185SAPI  H11R21213   3.208   2.823   9.660 -3.0980 -1.1020  0.5506
  185SAPI  C21221214   3.189   2.658   9.528 -0.2661  0.4164  0.4670
  185SAPI  H12R21215   3.147   2.712   9.442 -0.1266 -2.0494 -1.2535
  185SAPI  C21321216   3.201   2.508   9.497 -0.5808  0.1034  0.1337
  185SAPI  H13R21217   3.251   2.451   9.579  2.3712  0.9938 -0.8943
  185SAPI  H13S21218   3.269   2.487   9.412  0.2609 -0.2946  0.8756
  185SAPI  C21421219   3.070   2.430   9.473  0.6680 -0.5467  0.3838
  185SAPI  H14R21220   3.023   2.371   9.552 -1.4848  0.6367  0.0575
  185SAPI  C21521221   2.998   2.435   9.358 -0.7374  0.0618  0.3081
  185SAPI  H15R21222   2.901   2.384   9.350 -2.0082  2.4471 -0.5864
  185SAPI  C21621223   3.037   2.514   9.232 -0.6303  0.2300 -0.6154
  185SAPI  H16R21224   3.140   2.554   9.240  1.4657 -4.4735 -0.7999
  185SAPI  H16S21225   2.967   2.598   9.214 -0.1189  1.0224  0.9163
  185SAPI  C21721226   3.044   2.408   9.120 -0.1528 -0.2189  0.2441
  185SAPI  H17R21227   2.942   2.375   9.092 -0.8240  0.4520  1.7580
  185SAPI  H17S21228   3.101   2.318   9.152  0.7111  0.2733  0.1193
  185SAPI  C21821229   3.103   2.468   8.990  0.3934 -0.3285  0.1302
  185SAPI  H18R21230   3.092   2.388   8.913  0.0864  0.1745 -0.3535
  185SAPI  H18S21231   3.210   2.492   9.005 -0.1072  0.9765  1.8819
  185SAPI  C21921232   3.022   2.589   8.941  0.3083  0.2440 -0.5066
  185SAPI  H19R21233   3.017   2.671   9.016  1.2967 -0.4671  0.3583
  185SAPI  H19S21234   2.919   2.557   8.913  1.2110 -0.9435 -2.7166
  185SAPI  C22021235   3.098   2.649   8.814 -0.2115  0.3503 -0.8641
  185SAPI  H20R21236   3.102   2.590   8.720 -0.6096  0.9145 -1.2386
  185SAPI  H20S21237   3.204   2.665   8.844 -1.0733  0.9507  2.2353
  185SAPI  H20T21238   3.058   2.746   8.778 -0.7281  0.7795  0.7763
  185SAPI   C3321239   2.920   2.564  10.283  0.0427  0.1143 -0.3740
  185SAPI   H3X21240   3.006   2.505  10.244 -0.1435  0.5374 -1.4779
  185SAPI   H3Y21241   2.948   2.670  10.301  0.1013  0.4497 -2.2243
  185SAPI   C3421242   2.805   2.559  10.189 -0.1293  0.3233 -0.2288
  185SAPI   H4X21243   2.715   2.616  10.221  0.5298  0.2386  1.9806
  185SAPI   H4Y21244   2.768   2.455  10.176 -0.3566  0.3426  0.2311
  185SAPI   C3521245   2.848   2.623  10.051  0.0803  0.6294 -0.4287
  185SAPI   H5X21246   2.929   2.554  10.017  0.6979  0.6849  0.8751
  185SAPI   H5Y21247   2.899   2.720  10.066 -0.9781  0.9567  1.2651
  185SAPI   C3621248   2.743   2.642   9.939  0.4053  0.3378  0.2752
  185SAPI   H6X21249   2.677   2.724   9.977 -0.2952 -0.7204  1.4246
  185SAPI   H6Y21250   2.680   2.551   9.936 -1.8945  1.8506 -1.3220
  185SAPI   C3721251   2.803   2.674   9.805  0.2710 -0.5409 -0.1900
  185SAPI   H7X21252   2.871   2.589   9.784  0.3974 -0.5325  0.1738
  185SAPI   H7Y21253   2.865   2.766   9.806 -2.2793  1.3277 -2.0623
  185SAPI   C3821254   2.703   2.707   9.688  0.2045  0.1923 -0.3536
  185SAPI   H8X21255   2.610   2.757   9.721  0.7703  1.6972 -0.9364
  185SAPI   H8Y21256   2.685   2.606   9.645 -0.5474 -0.1290  0.6703
  185SAPI   C3921257   2.759   2.783   9.567 -0.1446 -0.5877 -0.1177
  185SAPI   H9X21258   2.839   2.722   9.521  0.1587 -1.0096  0.9309
  185SAPI   H9Y21259   2.778   2.886   9.605  0.3685 -0.8749  0.4190
  185SAPI  C31021260   2.666   2.787   9.450  0.5976 -0.6060  0.9872
  185SAPI  H10X21261   2.711   2.842   9.365 -0.6297  0.9878  1.3270
  185SAPI  H10Y21262   2.579   2.848   9.479 -0.2654 -0.8062 -1.0013
  185SAPI  C31121263   2.597   2.667   9.399 -0.0059  0.6059 -0.5376
  185SAPI  H11X21264   2.516   2.633   9.466  2.2959 -2.5275  0.9137
  185SAPI  H11Y21265   2.669   2.583   9.389 -0.6253  0.1273 -1.0282
  185SAPI  C31221266   2.553   2.691   9.250  0.0904  0.1382 -0.2071
  185SAPI  H12X21267   2.641   2.727   9.193 -0.0359  1.6458  0.5011
  185SAPI  H12Y21268   2.482   2.775   9.259  0.9841  0.8010  1.0918
  185SAPI  C31321269   2.471   2.585   9.180  0.2592 -0.1158 -0.1370
  185SAPI  H13X21270   2.397   2.552   9.256  1.0184  1.4878  1.3654
  185SAPI  H13Y21271   2.540   2.498   9.182 -0.1561 -0.4349  1.7690
  185SAPI  C31421272   2.404   2.612   9.046 -0.5454  0.2135  0.2649
  185SAPI  H14X21273   2.339   2.701   9.063  1.0454  1.3928  0.4251
  185SAPI  H14Y21274   2.332   2.533   9.018 -0.5112  0.7965 -1.6556
  185SAPI  C31521275   2.511   2.647   8.934  0.0255  0.1212  0.1657
  185SAPI  H15X21276   2.479   2.602   8.838 -1.1054  2.3082 -0.5559
  185SAPI  H15Y21277   2.605   2.595   8.964 -0.0013  0.0716  0.1640
  185SAPI  C31621278   2.539   2.799   8.926  0.3088  0.0250  0.5616
  185SAPI  H16X21279   2.550   2.858   9.019 -2.8093  1.4952  0.1269
  185SAPI  H16Y21280   2.459   2.851   8.869  1.6856 -1.5479 -3.0545
  185SAPI  C31721281   2.661   2.820   8.833 -0.0078  0.0865  0.3452
  185SAPI  H17X21282   2.653   2.767   8.735  0.6587 -1.0367  0.8871
  185SAPI  H17Y21283   2.748   2.768   8.879 -1.3638 -2.4602  0.2310
  185SAPI  C31821284   2.691   2.964   8.790 -0.2289 -0.4432  0.3031
  185SAPI  H18X21285   2.771   2.968   8.714  0.0572 -1.3506  0.5456
  185SAPI  H18Y21286   2.722   3.029   8.875 -0.3160 -1.2614  0.9873
  185SAPI  H18Z21287   2.607   3.015   8.738  0.6662  0.7339 -0.0255
  186SAPI   C1221288   2.378   1.679  10.846  0.0459 -0.2045  0.8128
  186SAPI    H221289   2.297   1.659  10.774  2.0747  1.1809 -2.0373
  186SAPI    O221290   2.468   1.768  10.769 -0.5902  0.2885 -0.0027
  186SAPI   HO221291   2.481   1.733  10.680  1.3138  1.6321 -0.3061
  186SAPI   C1321292   2.325   1.744  10.968 -0.6207 -0.7502 -0.9134
  186SAPI    H321293   2.264   1.666  11.019  0.4571 -0.3706  1.0788
  186SAPI    O321294   2.233   1.842  10.924 -0.0922  0.1649 -0.3199
  186SAPI   HO321295   2.277   1.914  10.878 -1.5796  1.0845 -0.3797
  186SAPI   C1421296   2.434   1.791  11.059 -0.8947 -0.1536  0.6737
  186SAPI    H421297   2.492   1.873  11.012 -1.7898  0.9152  1.3595
  186SAPI    O421298   2.376   1.843  11.179  0.2957 -0.2298 -0.3505
  186SAPI   HO421299   2.390   1.938  11.175  3.2346 -0.5819 -1.5625
  186SAPI   C1521300   2.527   1.674  11.091  0.2205  0.5118 -0.2787
  186SAPI    H521301   2.470   1.598  11.147  1.8365 -1.4034 -1.1042
  186SAPI    O521302   2.634   1.700  11.182 -0.0157 -0.2001 -0.4647
  186SAPI   HO521303   2.697   1.765  11.149  0.3717  0.5012  1.5682
  186SAPI   C1621304   2.570   1.592  10.970  0.2125 -0.2878  0.2196
  186SAPI    H621305   2.637   1.663  10.916 -0.2769  0.4346  0.5407
  186SAPI    O621306   2.642   1.477  11.007 -0.6446  0.2114 -0.0708
  186SAPI   HO621307   2.729   1.501  11.042 -0.1952 -0.2328 -0.8764
  186SAPI   C1121308   2.455   1.550  10.881  1.2176 -0.6740 -0.4618
  186SAPI    H121309   2.388   1.492  10.948  1.8468 -1.9649 -0.9191
  186SAPI     P21310   2.361   1.392  10.674  0.4562 -0.2751 -0.0620
  186SAPI   O1321311   2.368   1.439  10.529 -0.2882 -0.1224 -0.5562
  186SAPI   O1421312   2.233   1.402  10.745 -0.7561  0.1887  0.2198
  186SAPI   O1221313   2.472   1.480  10.754  0.0915  0.5039 -0.3530
  186SAPI   O1121314   2.430   1.251  10.693  0.2954 -0.5234  0.3077
  186SAPI    C121315   2.568   1.221  10.691 -0.1952 -0.1738 -1.1730
  186SAPI    HA21316   2.631   1.313  10.695 -3.1431  2.0033  2.5550
  186SAPI    HB21317   2.600   1.154  10.774  1.0190 -0.8733 -2.1683
  186SAPI    C221318   2.603   1.130  10.571  0.7648  0.2671  0.3452
  186SAPI    HS21319   2.712   1.128  10.551  0.6570 -2.3437 -0.2979
  186SAPI   O2121320   2.535   1.172  10.452 -0.3394 -0.5949  0.0729
  186SAPI   C2121321   2.615   1.254  10.373 -0.1707  0.3651  0.1598
  186SAPI   O2221322   2.728   1.295  10.394 -0.3139  0.0833 -0.5230
  186SAPI   C2221323   2.533   1.277  10.245 -0.6426 -0.4348 -0.0338
  186SAPI   H2R21324   2.463   1.191  10.237 -0.7257 -0.4001  0.3017
  186SAPI   H2S21325   2.473   1.368  10.269 -0.6286 -0.7180  1.1679
  186SAPI    C321326   2.561   0.976  10.594  0.0560 -0.0265  0.8817
  186SAPI    HX21327   2.451   0.958  10.582  0.4012 -1.3920 -0.7738
  186SAPI    HY21328   2.591   0.962  10.700  0.2080  0.5685  0.9200
  186SAPI   O3121329   2.631   0.888  10.514 -0.2936 -0.0300 -0.1927
  186SAPI   C3121330   2.711   0.803  10.566 -0.1824 -0.1230 -0.3263
  186SAPI   O3221331   2.756   0.803  10.682  0.4513 -0.7598 -0.2371
  186SAPI   C3221332   2.727   0.689  10.464 -0.0133  0.0266  0.5266
  186SAPI   H2X21333   2.745   0.728  10.361  1.1160 -0.1289  0.6501
  186SAPI   H2Y21334   2.630   0.635  10.471  0.4469 -0.9600 -0.3631
  186SAPI   C2321335   2.606   1.312  10.115  0.3001 -0.9125 -0.0906
  186SAPI   H3R21336   2.706   1.354  10.137  0.8191  0.0021 -3.5152
  186SAPI   H3S21337   2.544   1.392  10.068  0.7647 -0.1747  0.5255
  186SAPI   C2421338   2.589   1.195  10.016 -0.1282 -1.0273  0.5496
  186SAPI   H4R21339   2.485   1.159   9.997  1.3280 -4.8933 -1.1873
  186SAPI   H4S21340   2.637   1.113  10.073 -1.0499 -1.5982  0.5183
  186SAPI   C2521341   2.672   1.209   9.890 -0.1284  0.0157 -0.3686
  186SAPI   H5R21342   2.761   1.146   9.890  1.3225  1.9495  0.0318
  186SAPI   C2621343   2.645   1.286   9.785  0.8195  0.3333  0.0115
  186SAPI   H6R21344   2.725   1.279   9.710  0.6399 -1.2097 -0.0639
  186SAPI   C2721345   2.522   1.372   9.758 -0.8664 -0.6685 -0.2961
  186SAPI   H7R21346   2.549   1.470   9.715 -0.8287 -0.9317 -0.8878
  186SAPI   H7S21347   2.464   1.398   9.849 -0.2554  0.0912 -0.1200
  186SAPI   C2821348   2.429   1.294   9.662 -0.2933 -0.0885  0.0018
  186SAPI   H8R21349   2.350   1.234   9.709 -0.6014 -1.4899 -2.1369
  186SAPI   C2921350   2.430   1.297   9.524 -0.6558  0.4311 -0.1042
  186SAPI   H9R21351   2.358   1.233   9.472 -0.8749 -0.5988  1.4046
  186SAPI  C21021352   2.538   1.350   9.440 -0.1044 -0.1520 -0.0639
  186SAPI  H10R21353   2.609   1.407   9.504  0.2619 -2.8141  2.0678
  186SAPI  H10S21354   2.483   1.412   9.366 -2.0866 -2.0084 -0.2166
  186SAPI  C21121355   2.613   1.248   9.356  0.0287  0.6777  0.3807
  186SAPI  H11R21356   2.688   1.193   9.415 -1.9761  0.4902  2.8990
  186SAPI  C21221357   2.599   1.237   9.221  0.1852 -0.3828  0.5019
  186SAPI  H12R21358   2.650   1.148   9.180  1.3414  0.3694  0.2570
  186SAPI  C21321359   2.513   1.315   9.121 -0.0438  0.8751 -0.4335
  186SAPI  H13R21360   2.578   1.314   9.031 -1.4642  0.3356 -1.4822
  186SAPI  H13S21361   2.493   1.422   9.141 -0.8497  0.4336  1.2945
  186SAPI  C21421362   2.380   1.257   9.099  0.3494 -0.0903 -0.6108
  186SAPI  H14R21363   2.334   1.208   9.185  1.9165 -2.0149 -0.7922
  186SAPI  C21521364   2.325   1.259   8.977 -0.8351 -0.3361 -0.5545
  186SAPI  H15R21365   2.237   1.195   8.958  1.0784 -2.7016 -2.1865
  186SAPI  C21621366   2.374   1.324   8.847 -0.2493 -0.0766  0.0367
  186SAPI  H16R21367   2.408   1.428   8.866 -0.2107  0.1533 -1.2042
  186SAPI  H16S21368   2.297   1.322   8.767  0.2143  2.0468 -0.5201
  186SAPI  C21721369   2.495   1.255   8.772 -0.5046  0.0346  0.2809
  186SAPI  H17R21370   2.457   1.170   8.711  0.3978 -0.4987  0.4485
  186SAPI  H17S21371   2.561   1.205   8.846  1.0310  1.0196 -0.3783
  186SAPI  C21821372   2.553   1.361   8.691  0.1248  0.0091 -0.0188
  186SAPI  H18R21373   2.566   1.458   8.743  0.7571 -0.4418  0.6861
  186SAPI  H18S21374   2.477   1.382   8.612 -1.0048 -0.1747  0.9924
  186SAPI  C21921375   2.687   1.324   8.633 -0.5841 -0.1306 -0.5280
  186SAPI  H19R21376   2.674   1.238   8.565  0.0560  0.2935 -1.2035
  186SAPI  H19S21377   2.760   1.299   8.713 -1.5451 -0.8366  0.1558
  186SAPI  C22021378   2.749   1.447   8.559  0.1848 -0.0337 -0.0037
  186SAPI  H20R21379   2.852   1.419   8.529 -0.3385 -0.1105 -1.8283
  186SAPI  H20S21380   2.754   1.539   8.621  1.5422  0.3793 -0.7002
  186SAPI  H20T21381   2.701   1.470   8.462  0.3867 -2.5156 -0.7674
  186SAPI   C3321382   2.830   0.579  10.510  0.6084  0.4807 -0.5518
  186SAPI   H3X21383   2.801   0.546  10.613 -0.1685  0.0474 -0.8968
  186SAPI   H3Y21384   2.929   0.628  10.511  1.3441 -0.9110 -1.6313
  186SAPI   C3421385   2.831   0.459  10.414  0.1142  0.0241  0.7507
  186SAPI   H4X21386   2.737   0.449  10.356  1.1056 -0.1885 -0.8836
  186SAPI   H4Y21387   2.878   0.365  10.451  1.3994  0.6031  0.6247
  186SAPI   C3521388   2.931   0.490  10.304 -0.3851 -0.1049  0.7013
  186SAPI   H5X21389   3.030   0.514  10.349  1.2101 -2.4101 -1.2849
  186SAPI   H5Y21390   2.895   0.578  10.247  0.9675  0.8260  1.2361
  186SAPI   C3621391   2.956   0.381  10.192 -0.3188 -0.2523  0.3291
  186SAPI   H6X21392   3.000   0.444  10.112  0.6751 -1.1546  0.1427
  186SAPI   H6Y21393   2.863   0.325  10.168 -1.6156  2.2590 -0.8887
  186SAPI   C3721394   3.062   0.278  10.229 -0.2733  0.4428  0.2394
  186SAPI   H7X21395   3.026   0.194  10.292  2.4987 -0.4656  0.7553
  186SAPI   H7Y21396   3.134   0.337  10.291  0.1906 -3.1700  3.5497
  186SAPI   C3821397   3.132   0.223  10.102 -0.4138  0.5605  0.6922
  186SAPI   H8X21398   3.128   0.300  10.022 -1.2519 -0.9924 -0.8012
  186SAPI   H8Y21399   3.088   0.129  10.064  1.8708 -0.3884  0.2492
  186SAPI   C3921400   3.278   0.184  10.124  0.1119  0.0346  0.9184
  186SAPI   H9X21401   3.293   0.118  10.213  0.2363 -1.0102  0.1408
  186SAPI   H9Y21402   3.323   0.282  10.151  0.2599  0.4186 -0.6560
  186SAPI  C31021403   3.342   0.122  10.000  0.2802  0.6911 -0.5391
  186SAPI  H10X21404   3.304   0.020   9.977 -3.1061  1.7108 -0.0508
  186SAPI  H10Y21405   3.450   0.112  10.023 -0.1612 -2.3953  0.7653
  186SAPI  C31121406   3.333   0.199   9.876  0.1919  0.2978  0.1378
  186SAPI  H11X21407   3.363   0.306   9.882 -2.0198  0.8948  1.6384
  186SAPI  H11Y21408   3.222   0.202   9.872 -0.0923  0.2540  4.3376
  186SAPI  C31221409   3.388   0.136   9.751 -0.3833 -1.0928  0.4119
  186SAPI  H12X21410   3.323   0.047   9.737 -2.5584  0.7444 -2.3492
  186SAPI  H12Y21411   3.496   0.118   9.772 -0.6201 -1.0230  1.8086
  186SAPI  C31321412   3.356   0.222   9.621  0.1943 -0.4741  0.3679
  186SAPI  H13X21413   3.437   0.298   9.616 -0.2899 -0.0281 -1.2230
  186SAPI  H13Y21414   3.263   0.282   9.624  0.3323  0.4280 -4.7244
  186SAPI  C31421415   3.379   0.136   9.495  0.0420  0.3347  0.0650
  186SAPI  H14X21416   3.290   0.071   9.480  0.5787  0.1979 -3.1968
  186SAPI  H14Y21417   3.468   0.071   9.503  0.0201  0.2221 -0.5768
  186SAPI  C31521418   3.377   0.218   9.367 -0.2914  0.1771 -0.1024
  186SAPI  H15X21419   3.446   0.304   9.383  0.0493  0.4659 -2.6216
  186SAPI  H15Y21420   3.271   0.251   9.362 -0.3943  0.1144  1.4020
  186SAPI  C31621421   3.408   0.130   9.246 -0.1463  0.1629 -0.1137
  186SAPI  H16X21422   3.361   0.029   9.252  0.9413 -0.3415  0.3203
  186SAPI  H16Y21423   3.518   0.124   9.236 -0.2695  0.1637 -1.5906
  186SAPI  C31721424   3.355   0.174   9.112  0.6355  0.5007  0.3929
  186SAPI  H17X21425   3.403   0.269   9.080  0.4819 -0.2644 -2.4038
  186SAPI  H17Y21426   3.245   0.186   9.128  0.5149 -0.2757  0.1690
  186SAPI  C31821427   3.382   0.075   8.995  0.3198  0.2114  0.0961
  186SAPI  H18X21428   3.322   0.119   8.913  0.5573  0.5279  0.0933
  186SAPI  H18Y21429   3.349  -0.029   9.017 -1.3906  0.8627  0.8278
  186SAPI  H18Z21430   3.491   0.078   8.975  0.2113 -2.1815 -1.2470
  187SAPI   C1221431   1.034   0.521   6.483  0.0537 -0.2678 -0.4105
  187SAPI    H221432   0.994   0.484   6.580  1.4150 -1.4205 -0.2519
  187SAPI    O221433   0.966   0.635   6.445 -0.0756 -1.0601 -0.2164
  187SAPI   HO221434   0.891   0.602   6.395  0.9372 -0.8603 -1.9439
  187SAPI   C1321435   1.181   0.529   6.490  0.5064  0.1585 -0.5848
  187SAPI    H321436   1.229   0.431   6.511  0.0778  0.5357  2.7082
  187SAPI    O321437   1.234   0.610   6.597  0.7259 -0.3223 -0.1901
  187SAPI   HO321438   1.175   0.684   6.617  0.5309 -1.3674  4.4221
  187SAPI   C1421439   1.230   0.574   6.347 -0.0789  0.3140 -0.2393
  187SAPI    H421440   1.187   0.670   6.312 -1.3675  0.1864  0.8996
  187SAPI    O421441   1.374   0.583   6.354  0.2972  0.1591 -0.0483
  187SAPI   HO421442   1.390   0.677   6.364  2.0582 -0.1632  0.3606
  187SAPI   C1521443   1.185   0.467   6.242  0.0153 -0.7112  0.1610
  187SAPI    H521444   1.235   0.371   6.268  0.5760 -0.5317 -0.2360
  187SAPI    O521445   1.223   0.500   6.105 -0.0136  0.2564  0.0274
  187SAPI   HO521446   1.154   0.559   6.074 -0.2742 -0.4566 -0.7775
  187SAPI   C1621447   1.035   0.438   6.242 -0.4068  0.1683  0.7425
  187SAPI    H621448   0.984   0.524   6.193  2.4025  0.4921 -1.9292
  187SAPI    O621449   1.004   0.324   6.167 -0.2869 -0.1752  0.0885
  187SAPI   HO621450   0.954   0.263   6.222 -0.0918  0.6981  1.2734
  187SAPI   C1121451   0.991   0.411   6.382  1.0472  1.0879  0.1093
  187SAPI    H121452   1.041   0.320   6.421  0.3485  0.6356 -0.0258
  187SAPI     P21453   0.780   0.241   6.413 -0.5279  0.1546  0.1547
  187SAPI   O1321454   0.864   0.158   6.329 -0.0256 -0.3844  0.3798
  187SAPI   O1421455   0.637   0.239   6.379  0.2308 -0.2046 -0.3575
  187SAPI   O1221456   0.847   0.394   6.405 -0.3837  0.0431 -0.0697
  187SAPI   O1121457   0.808   0.210   6.563 -0.2873  0.2349 -0.4363
  187SAPI    C121458   0.838   0.073   6.600 -0.0280 -0.7145  0.7285
  187SAPI    HA21459   0.757   0.003   6.571 -0.5601  0.9141 -2.1443
  187SAPI    HB21460   0.923   0.035   6.538  0.2800  0.6869  0.2487
  187SAPI    C221461   0.894   0.061   6.748 -0.0378  0.0597 -0.2367
  187SAPI    HS21462   0.806   0.034   6.810 -0.4639 -0.3990 -1.0301
  187SAPI   O2121463   0.977   0.174   6.771 -0.2396 -0.3448  0.0988
  187SAPI   C2121464   0.955   0.222   6.893 -0.4632  0.2522 -1.2382
  187SAPI   O2221465   0.863   0.192   6.966  0.1841  1.4064 -0.3193
  187SAPI   C2221466   1.070   0.316   6.939  0.0811  0.4126  0.3857
  187SAPI   H2R21467   1.122   0.340   6.844 -1.1622 -0.1456 -0.4718
  187SAPI   H2S21468   1.031   0.405   6.994 -0.5216  0.2766  0.1895
  187SAPI    C321469   0.982  -0.068   6.753 -0.5327 -0.6923  0.5001
  187SAPI    HX21470   1.069  -0.057   6.684 -0.5568  0.6767  0.6600
  187SAPI    HY21471   0.924  -0.154   6.713  0.5306 -0.5902 -1.3703
  187SAPI   O3121472   1.021  -0.091   6.890  0.0732  0.6033 -0.4076
  187SAPI   C3121473   0.935  -0.161   6.961  0.4054 -0.0228  0.1399
  187SAPI   O3221474   0.827  -0.203   6.922  0.1013  0.8602  0.5091
  187SAPI   C3221475   0.984  -0.167   7.103 -0.2859  0.6051 -0.3470
  187SAPI   H2X21476   1.010  -0.065   7.137 -1.3853  0.0243  2.5401
  187SAPI   H2Y21477   1.075  -0.231   7.099  0.1290  0.9992  1.6288
  187SAPI   C2321478   1.163   0.243   7.044 -0.3202  0.2138  0.4025
  187SAPI   H3R21479   1.245   0.312   7.074 -0.8516  1.9498 -1.9072
  187SAPI   H3S21480   1.207   0.152   6.997  2.1881  1.0037  1.0337
  187SAPI   C2421481   1.095   0.207   7.176  0.0120 -1.0389 -1.0013
  187SAPI   H4R21482   1.009   0.140   7.155 -0.5618 -0.8226  0.5337
  187SAPI   H4S21483   1.052   0.299   7.221  1.5573 -1.1397  0.7699
  187SAPI   C2521484   1.186   0.126   7.271 -0.0768 -0.0526 -0.4076
  187SAPI   H5R21485   1.279   0.084   7.230 -0.9120 -2.7715  0.2558
  187SAPI   C2621486   1.153   0.097   7.401 -0.2854  1.5754  0.2868
  187SAPI   H6R21487   1.213   0.020   7.452 -0.5415  0.6119 -0.8189
  187SAPI   C2721488   1.035   0.134   7.478 -0.2198  0.4176  0.4783
  187SAPI   H7R21489   0.959   0.053   7.484  0.5641 -0.3838 -0.1614
  187SAPI   H7S21490   0.983   0.209   7.414 -0.1298 -1.6785 -2.2268
  187SAPI   C2821491   1.064   0.184   7.618 -0.1450  0.3969  0.4524
  187SAPI   H8R21492   1.074   0.293   7.633  2.9985  0.3155 -0.3024
  187SAPI   C2921493   1.075   0.105   7.727  0.2932  0.6334  0.0439
  187SAPI   H9R21494   1.089   0.152   7.826  2.4941  0.3348 -0.0685
  187SAPI  C21021495   1.056  -0.047   7.718  0.1496  0.5046  0.0006
  187SAPI  H10R21496   1.157  -0.088   7.738  0.4662  0.9165 -0.6939
  187SAPI  H10S21497   1.034  -0.089   7.617 -1.1284  1.2869 -0.0737
  187SAPI  C21121498   0.944  -0.104   7.809  0.6780  0.0601 -0.3999
  187SAPI  H11R21499   0.848  -0.139   7.769 -0.2814 -1.0787  2.6211
  187SAPI  C21221500   0.962  -0.131   7.944 -0.2045 -0.3631  0.1442
  187SAPI  H12R21501   0.880  -0.166   8.008 -1.4854  1.0586 -0.6267
  187SAPI  C21321502   1.087  -0.096   8.020  0.0515 -0.3124 -0.1247
  187SAPI  H13R21503   1.148  -0.033   7.954 -1.5651 -2.2414 -3.7691
  187SAPI  H13S21504   1.139  -0.193   8.038 -1.4051 -0.8180  1.8380
  187SAPI  C21421505   1.067  -0.026   8.155 -0.2144 -0.0646 -0.3000
  187SAPI  H14R21506   1.011  -0.090   8.225  0.0853  0.5159  0.4781
  187SAPI  C21521507   1.126   0.086   8.192 -0.0319 -0.5847  0.0344
  187SAPI  H15R21508   1.125   0.118   8.297  0.4013  0.9533 -0.3995
  187SAPI  C21621509   1.222   0.170   8.109  0.1083 -0.1884  0.5478
  187SAPI  H16R21510   1.227   0.275   8.146 -1.5954  0.5307 -1.1095
  187SAPI  H16S21511   1.171   0.184   8.011  0.8406 -0.4504  0.1227
  187SAPI  C21721512   1.359   0.113   8.088  0.4165  0.3510 -0.0763
  187SAPI  H17R21513   1.428   0.187   8.042 -0.1015  0.3866 -0.8109
  187SAPI  H17S21514   1.347   0.037   8.008 -0.4697  0.1869  0.2094
  187SAPI  C21821515   1.431   0.061   8.217 -0.3897  0.1541 -0.7714
  187SAPI  H18R21516   1.387  -0.023   8.275 -0.0492  0.8249  0.5086
  187SAPI  H18S21517   1.455   0.145   8.285 -1.8645  1.9407 -2.3431
  187SAPI  C21921518   1.571   0.004   8.177  0.4978 -1.1800 -0.3392
  187SAPI  H19R21519   1.625   0.097   8.151  1.5739 -1.9588 -0.9779
  187SAPI  H19S21520   1.561  -0.055   8.083  1.9877 -0.2540 -1.1174
  187SAPI  C22021521   1.665  -0.065   8.274  0.0449 -0.1295  0.0531
  187SAPI  H20R21522   1.756  -0.101   8.221 -0.5836 -0.8275 -0.5863
  187SAPI  H20S21523   1.616  -0.152   8.324  0.9256 -0.1469  0.9098
  187SAPI  H20T21524   1.695   0.004   8.355 -0.1981  1.3243 -1.0509
  187SAPI   C3321525   0.889  -0.221   7.208  0.2472  0.3665  0.3072
  187SAPI   H3X21526   0.825  -0.296   7.157 -1.6105  0.4864  2.3189
  187SAPI   H3Y21527   0.819  -0.137   7.229 -2.0822 -0.3446 -3.5677
  187SAPI   C3421528   0.947  -0.273   7.338 -0.0502  0.1321  0.0164
  187SAPI   H4X21529   1.005  -0.192   7.388  0.7161 -0.4088  0.0208
  187SAPI   H4Y21530   1.023  -0.350   7.314 -2.0384 -1.3514 -1.9479
  187SAPI   C3521531   0.854  -0.327   7.443 -0.6824  0.2412  0.3184
  187SAPI   H5X21532   0.779  -0.257   7.486  0.1134  0.2728  1.6995
  187SAPI   H5Y21533   0.921  -0.351   7.528 -0.1153 -0.1098 -0.2213
  187SAPI   C3621534   0.789  -0.454   7.399  0.1697 -0.0040  0.2527
  187SAPI   H6X21535   0.860  -0.523   7.349  2.0022  1.3869  0.8273
  187SAPI   H6Y21536   0.721  -0.441   7.311 -0.0699  1.7608  0.6705
  187SAPI   C3721537   0.707  -0.526   7.510 -0.9063 -0.0423  0.1901
  187SAPI   H7X21538   0.683  -0.625   7.465 -2.4535  0.1094  0.6461
  187SAPI   H7Y21539   0.607  -0.479   7.521 -1.0795  0.2638 -2.1436
  187SAPI   C3821540   0.777  -0.544   7.652 -0.0510 -0.1465 -0.4693
  187SAPI   H8X21541   0.758  -0.446   7.701  0.3352  0.6869 -1.9152
  187SAPI   H8Y21542   0.886  -0.567   7.648 -0.1286 -0.4741 -0.7880
  187SAPI   C3921543   0.693  -0.641   7.731 -0.0293 -0.0113  0.0297
  187SAPI   H9X21544   0.706  -0.741   7.685  1.4025  0.9968 -1.9258
  187SAPI   H9Y21545   0.586  -0.614   7.720  0.0611  0.6317  0.6332
  187SAPI  C31021546   0.718  -0.636   7.878 -1.0516 -0.1107 -0.4720
  187SAPI  H10X21547   0.822  -0.598   7.886 -0.8830 -0.8752  1.5397
  187SAPI  H10Y21548   0.707  -0.740   7.917  0.2050 -0.8872 -2.0395
  187SAPI  C31121549   0.646  -0.529   7.964  0.4167  0.8326  0.2131
  187SAPI  H11X21550   0.541  -0.565   7.959  1.2595 -1.5699 -2.0523
  187SAPI  H11Y21551   0.656  -0.430   7.915  4.6577  0.7373  0.5449
  187SAPI  C31221552   0.705  -0.503   8.104  0.4536 -0.1467 -0.4188
  187SAPI  H12X21553   0.815  -0.496   8.096  0.3020  1.1062 -1.8154
  187SAPI  H12Y21554   0.685  -0.597   8.160  0.9871 -0.4187 -0.6821
  187SAPI  C31321555   0.648  -0.376   8.169  0.7304  0.6393 -0.8769
  187SAPI  H13X21556   0.537  -0.374   8.167  0.7025  1.9444  0.4604
  187SAPI  H13Y21557   0.689  -0.285   8.120 -0.1453  1.1019 -0.7680
  187SAPI  C31421558   0.670  -0.378   8.320 -0.1767  0.1198  0.6957
  187SAPI  H14X21559   0.774  -0.347   8.343 -0.7399  1.7050  1.2372
  187SAPI  H14Y21560   0.643  -0.483   8.347  2.8783 -0.9965 -0.2056
  187SAPI  C31521561   0.585  -0.276   8.402 -0.1456  0.1070 -0.0758
  187SAPI  H15X21562   0.481  -0.270   8.361 -0.3931  1.6555  0.7383
  187SAPI  H15Y21563   0.619  -0.176   8.370 -0.7652  0.1344 -0.6754
  187SAPI  C31621564   0.568  -0.301   8.555  0.4780  0.0915 -0.3421
  187SAPI  H16X21565   0.504  -0.392   8.566 -0.7699  0.9380 -0.3345
  187SAPI  H16Y21566   0.509  -0.216   8.597 -3.4258 -1.9203 -1.2054
  187SAPI  C31721567   0.708  -0.303   8.625 -0.0906 -0.1983 -0.4268
  187SAPI  H17X21568   0.773  -0.232   8.569  0.1221  0.0088  0.0761
  187SAPI  H17Y21569   0.749  -0.406   8.629 -0.1915 -0.2012  2.9139
  187SAPI  C31821570   0.691  -0.253   8.766 -0.6207 -0.1739  0.0995
  187SAPI  H18X21571   0.655  -0.148   8.759 -0.4149 -0.2127 -2.1776
  187SAPI  H18Y21572   0.782  -0.263   8.828 -1.1363 -4.5649  0.5284
  187SAPI  H18Z21573   0.617  -0.319   8.817 -1.9693  1.9694  1.0306
  188SAPI   C1221574   1.319   3.739   6.436  0.0192  0.5063  0.7093
  188SAPI    H221575   1.290   3.715   6.540 -0.6612  0.1418  0.4477
  188SAPI    O221576   1.241   3.839   6.378 -0.2657 -0.9844  0.0126
  188SAPI   HO221577   1.156   3.813   6.342 -1.4913 -0.0415  2.0495
  188SAPI   C1321578   1.463   3.790   6.444  0.0836 -0.2561 -0.5254
  188SAPI    H321579   1.536   3.722   6.493  0.3981  0.4347 -0.0170
  188SAPI    O321580   1.468   3.907   6.530 -0.2792  1.1835  0.6262
  188SAPI   HO321581   1.559   3.929   6.551  0.2304  0.2132 -0.4457
  188SAPI   C1421582   1.520   3.820   6.298 -0.8366 -0.1051  0.2358
  188SAPI    H421583   1.450   3.889   6.247 -2.1505 -1.9784 -0.5983
  188SAPI    O421584   1.652   3.879   6.303  0.0217  0.2512  0.0156
  188SAPI   HO421585   1.663   3.948   6.238 -0.0735 -0.4392 -0.7397
  188SAPI   C1521586   1.509   3.694   6.203 -0.1112 -0.0268  0.4873
  188SAPI    H521587   1.574   3.612   6.241 -0.2848 -0.0251  0.7860
  188SAPI    O521588   1.558   3.713   6.071  0.4448 -0.1721 -0.3655
  188SAPI   HO521589   1.494   3.692   6.003  1.3250 -2.0782 -0.6694
  188SAPI   C1621590   1.370   3.642   6.200 -0.1857 -0.1245  0.1908
  188SAPI    H621591   1.304   3.716   6.150  1.4300  0.8133 -0.6579
  188SAPI    O621592   1.367   3.517   6.131  0.3545  0.3359 -0.2581
  188SAPI   HO621593   1.286   3.468   6.148 -1.1367  3.1958  1.8222
  188SAPI   C1121594   1.315   3.616   6.348  0.0658  0.1273 -0.5305
  188SAPI    H121595   1.386   3.541   6.390 -0.9946 -0.1935  0.7911
  188SAPI     P21596   1.111   3.429   6.361  0.0447 -0.2111  0.2340
  188SAPI   O1321597   1.171   3.353   6.243  0.6481 -0.1107 -0.4222
  188SAPI   O1421598   0.966   3.438   6.369 -0.1008  0.2684  0.0548
  188SAPI   O1221599   1.179   3.578   6.353 -0.0239 -0.9614 -0.1051
  188SAPI   O1121600   1.173   3.363   6.491 -0.0794  0.2283  0.2172
  188SAPI    C121601   1.093   3.271   6.563 -0.5067  0.2862 -0.2842
  188SAPI    HA21602   0.994   3.319   6.582 -1.3236 -1.3077 -0.3376
  188SAPI    HB21603   1.076   3.182   6.498  2.3485  0.2271 -1.0590
  188SAPI    C221604   1.169   3.235   6.701  0.1883 -0.2417  0.4144
  188SAPI    HS21605   1.084   3.197   6.762 -0.1767 -0.6533 -0.3264
  188SAPI   O2121606   1.240   3.346   6.762 -0.2704  0.2007  0.0716
  188SAPI   C2121607   1.158   3.432   6.806  0.6816  0.4854 -1.1834
  188SAPI   O2221608   1.040   3.413   6.835 -0.5570  0.2762  0.3686
  188SAPI   C2221609   1.222   3.576   6.808  0.1585 -0.0083  0.6083
  188SAPI   H2R21610   1.292   3.570   6.722 -1.1722 -1.0076 -0.4336
  188SAPI   H2S21611   1.138   3.641   6.777  0.5480  0.2942  0.1715
  188SAPI    C321612   1.265   3.119   6.675 -0.1423 -0.3355  0.7293
  188SAPI    HX21613   1.334   3.156   6.596 -2.3007  0.2719 -0.9656
  188SAPI    HY21614   1.206   3.033   6.639  1.5658 -2.0245  1.7633
  188SAPI   O3121615   1.316   3.087   6.805  0.0929 -0.3561  0.0824
  188SAPI   C3121616   1.275   2.969   6.855 -0.7356  0.4645 -0.0173
  188SAPI   O3221617   1.195   2.890   6.812  0.8114  0.3378 -0.0118
  188SAPI   C3221618   1.367   2.932   6.970  0.4360 -0.8531 -0.6629
  188SAPI   H2X21619   1.470   2.960   6.940  0.0453  3.5096  1.3579
  188SAPI   H2Y21620   1.378   2.822   6.976  0.3761 -0.7680  1.6395
  188SAPI   C2321621   1.283   3.626   6.939 -0.3403 -0.0904  0.4501
  188SAPI   H3R21622   1.211   3.607   7.021 -0.3844  1.8578  0.9152
  188SAPI   H3S21623   1.307   3.734   6.926  2.1800 -0.5751  0.5206
  188SAPI   C2421624   1.400   3.536   6.955 -0.9302  0.2304 -0.5908
  188SAPI   H4R21625   1.455   3.540   6.858  1.6712  0.3142  0.8091
  188SAPI   H4S21626   1.355   3.440   6.989 -0.3218  0.8873  2.2841
  188SAPI   C2521627   1.491   3.597   7.067  0.1585 -0.4405  0.3715
  188SAPI   H5R21628   1.574   3.663   7.037 -0.4106  1.4669  2.6773
  188SAPI   C2621629   1.475   3.572   7.198  0.4264 -0.0031  0.1659
  188SAPI   H6R21630   1.546   3.627   7.262  1.4146  1.0314 -1.7179
  188SAPI   C2721631   1.371   3.482   7.259 -0.1922  0.2742  0.2917
  188SAPI   H7R21632   1.337   3.405   7.187  1.7391 -0.2175 -0.1512
  188SAPI   H7S21633   1.278   3.537   7.288  0.4344  1.6983 -0.3033
  188SAPI   C2821634   1.430   3.416   7.378 -0.3969  0.4221  0.7905
  188SAPI   H8R21635   1.486   3.325   7.350 -0.8884  0.3719 -0.0998
  188SAPI   C2921636   1.426   3.448   7.509 -0.0838 -0.3108 -0.3034
  188SAPI   H9R21637   1.466   3.391   7.594 -1.5683 -1.2053 -0.1524
  188SAPI  C21021638   1.359   3.573   7.565 -0.6894  0.7926 -0.0269
  188SAPI  H10R21639   1.305   3.551   7.659 -1.9121  0.6430 -0.7485
  188SAPI  H10S21640   1.274   3.596   7.497 -2.1969 -1.5807  0.9220
  188SAPI  C21121641   1.455   3.686   7.584  0.8582  0.5410 -0.0498
  188SAPI  H11R21642   1.467   3.752   7.497 -3.7886  0.1529 -1.2670
  188SAPI  C21221643   1.505   3.724   7.702 -0.2970  0.5298  0.1531
  188SAPI  H12R21644   1.578   3.807   7.709 -0.0111  0.2677  0.3158
  188SAPI  C21321645   1.484   3.659   7.840  0.8251  0.0785  0.1209
  188SAPI  H13R21646   1.411   3.576   7.842 -0.7151  1.2920 -1.8215
  188SAPI  H13S21647   1.434   3.742   7.894  0.0422 -1.0501  1.1982
  188SAPI  C21421648   1.600   3.625   7.922 -0.4386 -0.2117  0.1838
  188SAPI  H14R21649   1.684   3.591   7.860  0.1041 -0.3686  1.0075
  188SAPI  C21521650   1.616   3.620   8.057 -0.2071 -0.0365  0.1314
  188SAPI  H15R21651   1.707   3.584   8.107 -0.3701  1.1699  1.3857
  188SAPI  C21621652   1.510   3.651   8.157  0.1926 -0.1465 -0.6962
  188SAPI  H16R21653   1.483   3.554   8.204 -1.0127 -0.7547 -2.5580
  188SAPI  H16S21654   1.423   3.700   8.109 -0.4339 -1.4327 -0.9003
  188SAPI  C21721655   1.555   3.735   8.282 -0.1986 -0.6507  0.0854
  188SAPI  H17R21656   1.474   3.767   8.351 -0.5856 -3.6012  1.1577
  188SAPI  H17S21657   1.608   3.828   8.252 -0.9508 -0.3206 -0.2395
  188SAPI  C21821658   1.644   3.655   8.373 -0.0738 -0.0267  0.4023
  188SAPI  H18R21659   1.719   3.615   8.302 -0.9257 -1.0257  0.0421
  188SAPI  H18S21660   1.573   3.572   8.397  1.1995 -0.9649  1.0390
  188SAPI  C21921661   1.709   3.739   8.488 -0.0644 -0.3516 -0.5090
  188SAPI  H19R21662   1.623   3.775   8.548  1.1955  2.2883 -0.1678
  188SAPI  H19S21663   1.761   3.832   8.456 -0.8263  0.8511  1.5780
  188SAPI  C22021664   1.805   3.655   8.566  0.6684 -0.1808  0.0920
  188SAPI  H20R21665   1.836   3.699   8.663 -1.2241  0.1095  0.6015
  188SAPI  H20S21666   1.892   3.626   8.503  0.4814  3.8348 -2.4012
  188SAPI  H20T21667   1.752   3.563   8.600  0.4584  0.2877  1.0873
  188SAPI   C3321668   1.315   2.997   7.089 -0.1114 -0.4389 -0.2971
  188SAPI   H3X21669   1.214   2.957   7.114  0.3463 -0.5742  1.4534
  188SAPI   H3Y21670   1.300   3.106   7.083 -0.8600 -0.4186  1.2764
  188SAPI   C3421671   1.402   2.970   7.213  1.0443  0.5920  0.1290
  188SAPI   H4X21672   1.506   3.008   7.205  1.2232  0.7414  2.4883
  188SAPI   H4Y21673   1.397   2.860   7.224 -3.1571  0.7006  1.1643
  188SAPI   C3521674   1.330   3.036   7.331 -0.4748 -0.0852 -0.1891
  188SAPI   H5X21675   1.231   2.988   7.343 -1.1945  1.4181  0.0767
  188SAPI   H5Y21676   1.308   3.143   7.308  0.5100  0.2129  0.1803
  188SAPI   C3621677   1.398   3.018   7.465 -0.7404  0.1065 -0.7155
  188SAPI   H6X21678   1.484   3.088   7.455  0.2964 -0.7301  1.6202
  188SAPI   H6Y21679   1.435   2.920   7.503 -0.4789  1.3591  2.5538
  188SAPI   C3721680   1.324   3.086   7.582 -0.1509 -0.2789 -0.2584
  188SAPI   H7X21681   1.219   3.057   7.556  0.1565 -0.3304 -1.5424
  188SAPI   H7Y21682   1.343   3.195   7.583 -1.4644  0.0069 -1.6280
  188SAPI   C3821683   1.364   3.025   7.717  0.1607  0.2655  0.4829
  188SAPI   H8X21684   1.326   2.921   7.730  0.1476  0.3725  1.3937
  188SAPI   H8Y21685   1.313   3.083   7.797  1.9513  1.5764  0.7280
  188SAPI   C3921686   1.509   3.028   7.750  0.3099 -0.1327  0.8048
  188SAPI   H9X21687   1.546   3.130   7.724 -1.1649 -0.3609 -2.7287
  188SAPI   H9Y21688   1.560   2.954   7.685 -1.2547  1.2732 -2.2881
  188SAPI  C31021689   1.538   2.999   7.894  0.0572 -0.0015 -0.4250
  188SAPI  H10X21690   1.647   2.984   7.905  0.0527  1.5362  3.1288
  188SAPI  H10Y21691   1.492   2.903   7.925  1.4714  0.4655  3.6621
  188SAPI  C31121692   1.501   3.116   7.985  0.3233 -0.1219  0.0677
  188SAPI  H11X21693   1.391   3.123   7.990  0.3934  1.1446  0.0981
  188SAPI  H11Y21694   1.557   3.208   7.956  2.8834 -1.4565  0.4600
  188SAPI  C31221695   1.540   3.083   8.130  0.0744 -0.2922 -0.3094
  188SAPI  H12X21696   1.649   3.067   8.123  0.5308  2.8970 -3.7656
  188SAPI  H12Y21697   1.479   2.995   8.160 -2.8457  0.8431 -2.4027
  188SAPI  C31321698   1.525   3.211   8.219  0.7972  0.3895 -0.2981
  188SAPI  H13X21699   1.421   3.250   8.213  0.1088 -1.1356  1.1237
  188SAPI  H13Y21700   1.611   3.273   8.184  1.7279 -0.6747  0.0426
  188SAPI  C31421701   1.544   3.182   8.366  0.2714 -0.1510  0.3932
  188SAPI  H14X21702   1.628   3.110   8.362  0.0023 -0.4247 -2.1703
  188SAPI  H14Y21703   1.453   3.139   8.412 -1.6274  0.8577 -2.1951
  188SAPI  C31521704   1.588   3.308   8.439 -0.6291  0.0508 -0.1807
  188SAPI  H15X21705   1.500   3.376   8.445 -2.1271 -1.6602 -1.8005
  188SAPI  H15Y21706   1.668   3.360   8.382 -0.2857  1.8356  1.7672
  188SAPI  C31621707   1.626   3.263   8.576  0.4364 -0.6812  0.3771
  188SAPI  H16X21708   1.547   3.193   8.610 -0.2779 -1.0528 -1.9321
  188SAPI  H16Y21709   1.624   3.348   8.648  0.9828  0.1439 -0.5596
  188SAPI  C31721710   1.760   3.197   8.588 -0.5269 -0.2316  0.2884
  188SAPI  H17X21711   1.831   3.280   8.570  0.2360 -1.1466 -1.0949
  188SAPI  H17Y21712   1.774   3.110   8.520 -0.5014 -1.2271  1.5256
  188SAPI  C31821713   1.777   3.146   8.730 -0.6247  0.3644  0.0337
  188SAPI  H18X21714   1.756   3.037   8.722  0.9963  0.1863 -3.5238
  188SAPI  H18Y21715   1.703   3.176   8.808 -1.5829 -2.2082  0.2017
  188SAPI  H18Z21716   1.880   3.153   8.773 -0.6489 -2.4571  0.7511
  189POPC     N21717   0.930   6.365  11.223 -0.6655  0.6098  0.4687
  189POPC   C1221718   0.806   6.343  11.297  0.8008 -0.6954  0.6395
  189POPC  H12A21719   0.741   6.424  11.266 -0.3607 -1.4606  1.0158
  189POPC  H12B21720   0.815   6.351  11.405  0.7260 -2.4533  0.8053
  189POPC   C1321721   0.905   6.417  11.084  0.3257 -1.3231  0.4253
  189POPC  H13A21722   1.001   6.433  11.037  0.8821 -3.2380  0.8170
  189POPC  H13B21723   0.859   6.342  11.022 -0.3295 -2.3466  2.0739
  189POPC  H13C21724   0.847   6.508  11.078 -0.2181 -1.6260  0.8911
  189POPC   C1421725   1.007   6.473  11.296  0.8504 -0.1801 -0.0076
  189POPC  H14A21726   1.094   6.510  11.244  0.7065  0.1047 -0.0502
  189POPC  H14B21727   0.932   6.547  11.320 -2.5886 -2.5350 -2.5305
  189POPC  H14C21728   1.043   6.431  11.389 -0.2585 -3.1031 -0.8005
  189POPC   C1521729   1.015   6.243  11.205  0.1501 -0.6748  0.0938
  189POPC  H15A21730   1.012   6.184  11.295  0.4526 -1.8975 -0.6759
  189POPC  H15B21731   1.118   6.267  11.185  0.8416 -2.5081  1.3038
  189POPC  H15C21732   0.974   6.171  11.136 -0.3722 -1.5637  1.3084
  189POPC   C1121733   0.734   6.208  11.263  0.1591 -0.2617 -0.5697
  189POPC  H11A21734   0.650   6.200  11.335  0.8065  0.2648  0.2606
  189POPC  H11B21735   0.795   6.115  11.267  1.4697  0.2571 -4.3632
  189POPC     P21736   0.543   6.255  11.078  0.5186  0.0179  0.1203
  189POPC   O1321737   0.502   6.386  11.144  0.6900  0.1896 -0.2504
  189POPC   O1421738   0.448   6.142  11.073 -0.0861  0.0403  1.0764
  189POPC   O1221739   0.685   6.204  11.127 -0.6192 -0.6250  0.7478
  189POPC   O1121740   0.573   6.291  10.926 -0.1898  0.0422 -0.5424
  189POPC    C121741   0.645   6.174  10.868  0.1991 -0.0528 -0.0636
  189POPC    HA21742   0.596   6.075  10.879 -0.5512  0.3304  0.0919
  189POPC    HB21743   0.747   6.174  10.911 -0.1716 -0.1533  0.8359
  189POPC    C221744   0.673   6.182  10.713  1.0358 -0.6990  0.6223
  189POPC    HS21745   0.722   6.281  10.699 -1.7136  0.8453  1.1890
  189POPC   O2121746   0.543   6.186  10.645 -0.7687  0.2797 -0.0469
  189POPC   C2121747   0.531   6.281  10.552 -0.2836 -0.0880 -0.2135
  189POPC   O2221748   0.610   6.366  10.530 -0.4149 -0.1542  0.0703
  189POPC   C2221749   0.410   6.263  10.469  0.1979  0.2599 -0.3112
  189POPC   H2R21750   0.353   6.355  10.494 -1.2146 -0.9350  1.0375
  189POPC   H2S21751   0.348   6.172  10.485  0.4048  0.0376 -0.7432
  189POPC    C321752   0.751   6.066  10.652 -0.7058  0.7127  0.5903
  189POPC    HX21753   0.693   5.971  10.647  1.7747 -0.8084 -1.5679
  189POPC    HY21754   0.841   6.039  10.710 -1.3563  0.0283  1.3111
  189POPC   O3121755   0.793   6.099  10.516  1.1836  0.3092 -0.5670
  189POPC   C3121756   0.780   6.005  10.423 -0.7958 -0.5872  0.0597
  189POPC   O3221757   0.767   5.886  10.435  0.0949 -0.3277 -0.2739
  189POPC   C3221758   0.807   6.069  10.288  0.5228 -0.0538  0.5981
  189POPC   H2X21759   0.906   6.116  10.302  1.7028 -2.3185  0.3244
  189POPC   H2Y21760   0.730   6.148  10.274  2.9000  2.3371  0.0865
  189POPC   C2321761   0.452   6.254  10.324  0.2866 -0.2030  0.0459
  189POPC   H3R21762   0.525   6.178  10.290  0.3103  0.9540 -2.7503
  189POPC   H3S21763   0.498   6.351  10.295  1.0073 -1.4320 -3.4407
  189POPC   C2421764   0.346   6.236  10.217  0.2388  0.5613  0.3375
  189POPC   H4R21765   0.270   6.311  10.248 -0.1987  0.8394 -1.3148
  189POPC   H4S21766   0.286   6.143  10.215 -1.0762  1.3979 -0.2257
  189POPC   C2521767   0.403   6.271  10.078 -0.0057  0.1094 -0.4868
  189POPC   H5R21768   0.480   6.195  10.050 -0.8440 -0.0260 -2.6799
  189POPC   H5S21769   0.459   6.367  10.083  0.4648 -0.2200  1.3830
  189POPC   C2621770   0.302   6.267   9.964 -0.0163 -0.3902  0.2262
  189POPC   H6R21771   0.213   6.331   9.986 -0.0172 -0.6006  0.8646
  189POPC   H6S21772   0.254   6.167   9.957  2.4945 -1.5403 -2.0603
  189POPC   C2721773   0.365   6.323   9.832  0.5864  0.5599 -0.0969
  189POPC   H7R21774   0.419   6.417   9.856  2.3423 -0.5486  0.5401
  189POPC   H7S21775   0.283   6.344   9.761  1.2013 -0.1955 -1.0615
  189POPC   C2821776   0.464   6.226   9.761  0.0023 -0.5319  0.4048
  189POPC   H8R21777   0.408   6.132   9.740 -2.1718  0.0458  2.9926
  189POPC   H8S21778   0.545   6.194   9.831 -0.8507 -0.3630  1.5106
  189POPC   C2921779   0.518   6.305   9.645 -0.4324 -0.0846  0.1921
  189POPC   H9121780   0.596   6.379   9.668  1.2133 -1.7703  0.3202
  189POPC  C21021781   0.468   6.285   9.519 -0.5066 -0.3832 -0.1129
  189POPC  H10121782   0.511   6.344   9.437 -0.1290 -2.1458 -1.2539
  189POPC  C21121783   0.355   6.207   9.477  0.1538 -0.2855  0.2544
  189POPC  H11R21784   0.291   6.269   9.411 -0.8050 -0.0125  1.3933
  189POPC  H11S21785   0.295   6.163   9.560 -0.2166  0.7532  0.5624
  189POPC  C21221786   0.398   6.090   9.383 -0.0516 -0.2059 -0.4533
  189POPC  H12R21787   0.295   6.056   9.359  0.1589 -0.0141 -1.7171
  189POPC  H12S21788   0.459   6.022   9.446 -0.0427 -0.6153 -0.8953
  189POPC  C21321789   0.466   6.136   9.252  0.5860  0.3388  0.1605
  189POPC  H13R21790   0.574   6.161   9.256  1.0245 -1.2664 -0.6069
  189POPC  H13S21791   0.423   6.237   9.235  2.8031  1.2827 -0.2271
  189POPC  C21421792   0.448   6.047   9.129  1.1361  0.5296  0.0804
  189POPC  H14R21793   0.341   6.036   9.099  0.5363  1.2119  1.8479
  189POPC  H14S21794   0.495   5.952   9.160 -0.0972  0.4876  1.9886
  189POPC  C21521795   0.528   6.099   9.013 -0.6200 -0.1574 -0.2758
  189POPC  H15R21796   0.636   6.096   9.039 -0.8577  0.1607  0.8232
  189POPC  H15S21797   0.501   6.205   8.989  3.1003  1.1651  0.7780
  189POPC  C21621798   0.513   6.005   8.890 -1.1663 -0.4013  0.9412
  189POPC  H16R21799   0.406   5.989   8.866 -0.5130 -1.0161 -2.0144
  189POPC  H16S21800   0.566   5.910   8.913 -2.5469 -1.2622  0.6618
  189POPC  C21721801   0.559   6.073   8.756 -0.8360  0.1890  0.2563
  189POPC  H17R21802   0.485   6.142   8.711  0.8434  0.8352 -1.6872
  189POPC  H17S21803   0.559   5.990   8.682  1.0618  0.2101  0.1869
  189POPC  C21821804   0.700   6.132   8.758 -0.3906  0.6990  0.2658
  189POPC  H18R21805   0.712   6.212   8.834  1.1809  1.8000 -1.0816
  189POPC  H18S21806   0.740   6.166   8.660  1.5475 -1.5039  0.1975
  189POPC  H18T21807   0.766   6.049   8.793  0.4459  0.6624 -1.3347
  189POPC   C3321808   0.812   5.963  10.174 -0.5149 -0.3122  0.6762
  189POPC   H3X21809   0.739   5.880  10.188  0.0032 -1.1766 -1.3620
  189POPC   H3Y21810   0.904   5.902  10.187 -2.9587 -4.0464  2.1075
  189POPC   C3421811   0.790   6.012  10.036  0.7625 -0.2344  0.0525
  189POPC   H4X21812   0.845   6.106  10.015  1.2883 -0.8074 -1.1926
  189POPC   H4Y21813   0.682   6.038  10.041  1.2177  1.6550  1.1688
  189POPC   C3521814   0.800   5.914   9.923 -0.5462 -0.4703 -0.2643
  189POPC   H5X21815   0.725   5.834   9.941  0.2272 -1.8248 -2.6154
  189POPC   H5Y21816   0.909   5.892   9.919 -0.2040  0.1327  3.1944
  189POPC   C3621817   0.774   5.986   9.783 -0.1892  0.1850  0.2875
  189POPC   H6X21818   0.689   6.057   9.789  1.1577  1.9460 -0.6541
  189POPC   H6Y21819   0.739   5.900   9.722  1.1056 -0.4482  0.4041
  189POPC   C3721820   0.896   6.057   9.711  0.4507 -1.0358  0.9911
  189POPC   H7X21821   0.897   6.017   9.607  0.1569  0.8916  0.2053
  189POPC   H7Y21822   0.995   6.019   9.745  0.1097 -0.9393  2.1242
  189POPC   C3821823   0.889   6.210   9.712  0.1301 -0.1256  0.9071
  189POPC   H8X21824   0.785   6.243   9.727 -0.5554 -1.0381 -1.3695
  189POPC   H8Y21825   0.933   6.250   9.618 -3.1502  1.4992 -0.0651
  189POPC   C3921826   0.979   6.266   9.816 -0.0756 -0.2014 -0.0071
  189POPC   H9X21827   1.085   6.247   9.786 -0.4801 -1.5991 -0.6432
  189POPC   H9Y21828   0.958   6.213   9.911 -3.9491  0.3705 -0.3869
  189POPC  C31021829   0.956   6.413   9.854  0.1480  0.5614  0.4028
  189POPC  H10X21830   0.856   6.412   9.902  0.4541  2.2092  1.1818
  189POPC  H10Y21831   0.965   6.481   9.767 -0.1243 -0.3552 -0.3564
  189POPC  C31121832   1.049   6.481   9.958  0.2389 -0.0852 -0.5140
  189POPC  H11X21833   1.021   6.588   9.974  2.4975  0.4575  0.1081
  189POPC  H11Y21834   1.142   6.498   9.900 -0.9038 -0.1091 -2.4437
  189POPC  C31221835   1.062   6.412  10.089 -0.8010  0.4623 -0.1804
  189POPC  H12X21836   1.077   6.303  10.079  1.8532  0.9223 -2.1195
  189POPC  H12Y21837   0.965   6.425  10.143 -0.2891 -1.0126  1.1626
  189POPC  C31321838   1.171   6.465  10.183 -0.2751 -0.3942  0.4067
  189POPC  H13X21839   1.160   6.575  10.188 -1.5793 -0.5633  4.0563
  189POPC  H13Y21840   1.271   6.448  10.137 -1.1161  1.2850 -2.2538
  189POPC  C31421841   1.162   6.407  10.328 -0.1584  0.3059 -0.4761
  189POPC  H14X21842   1.250   6.446  10.383 -2.1590  0.4641  2.9305
  189POPC  H14Y21843   1.154   6.296  10.321 -0.2347  0.3994 -2.7093
  189POPC  C31521844   1.037   6.445  10.409 -0.0767 -0.3614  0.0595
  189POPC  H15X21845   0.950   6.413  10.348  0.1578 -1.7127  0.4042
  189POPC  H15Y21846   1.045   6.556  10.407  2.1266 -0.4755 -1.8861
  189POPC  C31621847   1.021   6.391  10.554  0.4472 -0.0072 -0.3884
  189POPC  H16X21848   0.943   6.453  10.605  0.1726  1.3620 -2.3801
  189POPC  H16Y21849   1.123   6.413  10.593  0.9917  0.4052 -1.9904
  189POPC  H16Z21850   0.991   6.284  10.553 -0.7098  0.2386  1.6685
  190POPC     N21851   4.132   2.355  11.199 -0.2207  0.3749  1.0138
  190POPC   C1221852   4.223   2.410  11.088 -0.2002 -0.0647 -0.1921
  190POPC  H12A21853   4.281   2.486  11.138 -1.9706  1.1863  0.0510
  190POPC  H12B21854   4.176   2.464  11.008 -0.3307  1.4263  0.8621
  190POPC   C1321855   4.058   2.472  11.270  0.0689  0.4848 -0.2077
  190POPC  H13A21856   4.122   2.545  11.317 -2.3756  0.6996  3.1369
  190POPC  H13B21857   3.995   2.520  11.196 -3.1315 -3.5572 -0.4607
  190POPC  H13C21858   4.004   2.431  11.354  2.6317 -3.8917 -0.3937
  190POPC   C1421859   4.029   2.264  11.146  0.2777  0.3686 -0.0448
  190POPC  H14A21860   3.951   2.323  11.100 -0.4629 -0.3886  0.2298
  190POPC  H14B21861   4.073   2.206  11.066 -2.1463 -1.9420  0.1560
  190POPC  H14C21862   3.986   2.195  11.217  0.2877  1.7950  1.3985
  190POPC   C1521863   4.204   2.295  11.308 -0.2385  0.1075  0.4246
  190POPC  H15A21864   4.137   2.251  11.380  0.4606  0.9650  1.6175
  190POPC  H15B21865   4.269   2.361  11.363 -0.3026 -0.8678  1.6966
  190POPC  H15C21866   4.268   2.214  11.273 -1.1490 -0.7433  0.6897
  190POPC   C1121867   4.331   2.309  11.038  0.2586 -0.3694  1.3730
  190POPC  H11A21868   4.392   2.279  11.126  0.2375 -2.5597  0.6996
  190POPC  H11B21869   4.398   2.361  10.966 -0.2054 -1.7619 -0.1267
  190POPC     P21870   4.273   2.054  10.994  0.0119 -0.2106 -0.1047
  190POPC   O1321871   4.137   1.998  10.968  0.1110  0.2149 -0.1305
  190POPC   O1421872   4.324   2.038  11.130 -0.7731  0.8001 -1.2000
  190POPC   O1221873   4.258   2.205  10.964  0.0839 -0.4179  0.0255
  190POPC   O1121874   4.373   1.997  10.897 -0.3675  0.0985  0.0670
  190POPC    C121875   4.399   2.053  10.768 -0.2176  0.3074 -0.0657
  190POPC    HA21876   4.502   2.021  10.741 -0.8328 -1.9031 -0.0313
  190POPC    HB21877   4.395   2.163  10.758 -0.3589  0.1618 -2.0550
  190POPC    C221878   4.309   1.998  10.659  0.2649 -0.1288 -0.5353
  190POPC    HS21879   4.204   2.030  10.676  0.1593  0.4912 -2.1351
  190POPC   O2121880   4.309   1.849  10.654 -0.1939 -0.6026 -0.1961
  190POPC   C2121881   4.197   1.796  10.622 -0.2483 -0.4101 -0.1779
  190POPC   O2221882   4.091   1.851  10.598  0.2037 -0.8510 -0.3183
  190POPC   C2221883   4.211   1.643  10.615 -0.4614 -0.2112 -0.1344
  190POPC   H2R21884   4.118   1.615  10.670  1.0182  0.1119  2.6979
  190POPC   H2S21885   4.296   1.607  10.677 -1.2328  0.3403  1.2906
  190POPC    C321886   4.358   2.040  10.519 -0.2047 -0.9035 -0.3442
  190POPC    HX21887   4.465   2.012  10.508  0.4062  1.5004 -1.0860
  190POPC    HY21888   4.369   2.150  10.522 -0.2558 -0.8977 -0.3548
  190POPC   O3121889   4.269   1.997  10.411  0.1348  0.2298 -0.7520
  190POPC   C3121890   4.323   2.022  10.289  0.6054 -0.2481 -0.4805
  190POPC   O3221891   4.429   2.075  10.267 -0.2642  0.1471 -0.0778
  190POPC   C3221892   4.229   1.964  10.183  0.5325 -0.6239  0.1400
  190POPC   H2X21893   4.142   2.033  10.174  0.6404 -0.6261 -1.1690
  190POPC   H2Y21894   4.198   1.860  10.207 -1.4422  0.4421  2.6937
  190POPC   C2321895   4.214   1.596  10.466  0.5200  0.0694  0.6652
  190POPC   H3R21896   4.132   1.648  10.411 -1.3138 -3.1846  0.0603
  190POPC   H3S21897   4.193   1.487  10.468  1.3936 -0.1171 -0.1338
  190POPC   C2421898   4.356   1.599  10.397  0.4548  0.2880 -0.9124
  190POPC   H4R21899   4.436   1.564  10.466 -1.0676  0.5010  1.0570
  190POPC   H4S21900   4.384   1.705  10.377 -0.6678  1.5148  2.9592
  190POPC   C2521901   4.364   1.517  10.261  0.5584 -0.5083  0.0365
  190POPC   H5R21902   4.324   1.416  10.282  1.7387 -0.9981  0.0007
  190POPC   H5S21903   4.472   1.517  10.237  0.3487  0.1586 -1.0058
  190POPC   C2621904   4.292   1.577  10.143  0.2436  0.4558 -0.6442
  190POPC   H6R21905   4.325   1.678  10.110  2.0993 -0.3291 -1.3440
  190POPC   H6S21906   4.182   1.579  10.160  0.3235  1.8245 -0.1381
  190POPC   C2721907   4.323   1.487  10.023 -0.1137  0.7957 -0.0034
  190POPC   H7R21908   4.304   1.378  10.035  0.7842  0.5620 -0.5962
  190POPC   H7S21909   4.434   1.482  10.011 -0.0009  1.6232  0.6343
  190POPC   C2821910   4.258   1.535   9.890  0.6586  0.2710 -0.2203
  190POPC   H8R21911   4.148   1.543   9.899  0.3913 -0.8158 -2.0093
  190POPC   H8S21912   4.282   1.459   9.812 -2.2228  0.8717 -1.8215
  190POPC   C2921913   4.292   1.665   9.827 -0.6219 -0.1457  0.1031
  190POPC   H9121914   4.327   1.738   9.903  1.1800  0.7273 -1.4686
  190POPC  C21021915   4.295   1.702   9.696  0.7965  0.4771 -0.3077
  190POPC  H10121916   4.330   1.802   9.665 -0.1284  0.4905 -1.4044
  190POPC  C21121917   4.244   1.621   9.581  0.4396  0.3515 -0.1248
  190POPC  H11R21918   4.164   1.552   9.615  0.5653  1.1187  1.8371
  190POPC  H11S21919   4.324   1.563   9.530  0.1203  0.3320 -0.6026
  190POPC  C21221920   4.183   1.701   9.471  1.0534 -0.3294 -0.3519
  190POPC  H12R21921   4.097   1.768   9.493  0.3046 -1.3309 -0.1311
  190POPC  H12S21922   4.133   1.627   9.405 -2.4698  1.7684 -0.2654
  190POPC  C21321923   4.276   1.778   9.375 -0.0638  0.1532 -0.7232
  190POPC  H13R21924   4.374   1.726   9.372  0.3432  0.9232 -1.0067
  190POPC  H13S21925   4.287   1.879   9.418 -1.7098 -0.4365  1.2457
  190POPC  C21421926   4.223   1.781   9.229 -0.4397  0.2840 -0.3072
  190POPC  H14R21927   4.123   1.829   9.233 -0.7239 -0.3471  0.3774
  190POPC  H14S21928   4.200   1.676   9.202 -1.4779  1.1990 -3.3843
  190POPC  C21521929   4.315   1.843   9.123  0.2209  0.4976  0.1876
  190POPC  H15R21930   4.262   1.848   9.026  0.9398  0.6166 -0.2063
  190POPC  H15S21931   4.403   1.777   9.108  0.8087  1.5766 -1.3094
  190POPC  C21621932   4.381   1.984   9.147  0.7025  0.3446  0.2264
  190POPC  H16R21933   4.446   1.971   9.236  1.4993  2.2584 -0.0302
  190POPC  H16S21934   4.295   2.052   9.168  0.3128 -0.7695  2.5157
  190POPC  C21721935   4.467   2.038   9.036 -0.9045  0.1295  0.9600
  190POPC  H17R21936   4.398   2.072   8.956  0.3757  2.7651  0.8704
  190POPC  H17S21937   4.540   1.962   8.999 -1.3609  0.0700  0.1585
  190POPC  C21821938   4.537   2.165   9.088  0.1944  0.3340 -0.0291
  190POPC  H18R21939   4.595   2.192   8.997  2.1867 -2.4679  0.2430
  190POPC  H18S21940   4.588   2.141   9.184 -1.6644  0.9377  1.1492
  190POPC  H18T21941   4.448   2.229   9.104  0.2162 -0.2388  2.9576
  190POPC   C3321942   4.289   1.957  10.039 -0.0267 -0.5043 -0.0614
  190POPC   H3X21943   4.215   1.907   9.973  0.0133 -1.4112  0.5593
  190POPC   H3Y21944   4.386   1.902  10.036  0.0710 -0.3355  0.0001
  190POPC   C3421945   4.314   2.096   9.987 -0.3440 -0.0202  0.9566
  190POPC   H4X21946   4.414   2.135  10.016 -0.9871  0.4610  2.6628
  190POPC   H4Y21947   4.251   2.178  10.027  1.3217  1.4063  0.7853
  190POPC   C3521948   4.317   2.089   9.835  0.9222 -0.6103  0.1339
  190POPC   H5X21949   4.377   2.006   9.793  0.5322 -1.2263  0.7909
  190POPC   H5Y21950   4.360   2.187   9.803 -0.0327  0.1500  1.0899
  190POPC   C3621951   4.175   2.095   9.772  0.1720  0.9295 -0.2889
  190POPC   H6X21952   4.127   2.185   9.815 -0.6640  1.1018 -1.5304
  190POPC   H6Y21953   4.117   2.007   9.810  0.8200  0.7288  0.2604
  190POPC   C3721954   4.177   2.109   9.623  0.1676 -0.6281  0.7960
  190POPC   H7X21955   4.209   2.011   9.583  0.9034 -1.3877  3.0591
  190POPC   H7Y21956   4.256   2.181   9.593 -1.1671  0.3422 -0.5490
  190POPC   C3821957   4.042   2.160   9.554 -0.6036  0.3616 -0.3062
  190POPC   H8X21958   4.024   2.258   9.603 -0.1015 -0.8127  2.3843
  190POPC   H8Y21959   3.950   2.106   9.582 -0.4180  0.7033  1.0702
  190POPC   C3921960   4.067   2.187   9.403 -0.5515 -0.1525 -0.3235
  190POPC   H9X21961   4.070   2.089   9.350  1.9232 -0.3890  0.1127
  190POPC   H9Y21962   4.167   2.231   9.381 -0.1704 -1.8736 -2.4087
  190POPC  C31021963   3.962   2.277   9.329 -0.1404  0.9091  0.6595
  190POPC  H10X21964   3.941   2.377   9.371  1.2296  1.3527  0.3405
  190POPC  H10Y21965   3.865   2.226   9.347 -0.5398  1.5682  0.3796
  190POPC  C31121966   3.992   2.277   9.184 -0.2693 -0.0539  0.2186
  190POPC  H11X21967   4.039   2.186   9.142 -2.4799  0.3515 -3.5363
  190POPC  H11Y21968   4.070   2.355   9.172 -1.9995  1.5832 -0.9420
  190POPC  C31221969   3.871   2.332   9.094  0.1639  0.1570  0.0255
  190POPC  H12X21970   3.839   2.428   9.140  0.0374  0.0586  0.1445
  190POPC  H12Y21971   3.783   2.265   9.103  0.2175  0.2460  1.5037
  190POPC  C31321972   3.919   2.354   8.952  0.2896  0.8059 -0.0267
  190POPC  H13X21973   4.022   2.396   8.948 -0.7777  3.9758  1.8843
  190POPC  H13Y21974   3.863   2.443   8.914  0.1116  0.7867  0.1879
  190POPC  C31421975   3.898   2.240   8.860 -0.1520 -0.0006 -0.0657
  190POPC  H14X21976   3.791   2.210   8.858 -0.3044  0.5278 -1.6830
  190POPC  H14Y21977   3.954   2.153   8.899  0.3096  0.6591  0.7797
  190POPC  C31521978   3.934   2.286   8.709 -0.2309 -0.7857 -0.5085
  190POPC  H15X21979   3.971   2.206   8.642 -0.2075  0.3632 -1.9210
  190POPC  H15Y21980   4.004   2.372   8.723 -0.1213 -0.3393 -3.2816
  190POPC  C31621981   3.816   2.352   8.632 -0.1742  0.3294  0.3446
  190POPC  H16X21982   3.847   2.398   8.536  0.0503  1.9074  1.1369
  190POPC  H16Y21983   3.771   2.426   8.702  0.9348  0.3000  1.1153
  190POPC  H16Z21984   3.745   2.270   8.610  0.0114  0.4491 -0.7529
  191POPC     N21985   3.684   2.011   6.290 -0.5274  0.2662 -0.3168
  191POPC   C1221986   3.800   2.046   6.194  0.4339 -0.0522  0.3188
  191POPC  H12A21987   3.775   2.004   6.098  0.4036  1.2490 -0.2595
  191POPC  H12B21988   3.890   1.994   6.225  0.4808 -0.0463  0.1949
  191POPC   C1321989   3.556   2.074   6.264 -0.3240 -1.4745  0.2129
  191POPC  H13A21990   3.505   2.022   6.185 -1.6035 -2.1893  1.4675
  191POPC  H13B21991   3.490   2.068   6.349 -2.1385 -1.3069 -1.1182
  191POPC  H13C21992   3.558   2.182   6.251  0.3623 -1.3460  1.1934
  191POPC   C1421993   3.664   1.859   6.296 -0.0840 -0.0962 -0.2419
  191POPC  H14A21994   3.756   1.803   6.295  0.6003  0.9730 -1.9402
  191POPC  H14B21995   3.606   1.850   6.386  0.6245 -0.6487  0.1697
  191POPC  H14C21996   3.598   1.832   6.215 -0.5376  0.1595  0.0362
  191POPC   C1521997   3.727   2.063   6.422  0.5367 -0.3826 -0.6505
  191POPC  H15A21998   3.645   2.050   6.492  0.5107 -0.5810 -0.7171
  191POPC  H15B21999   3.750   2.169   6.421 -1.9493  0.2113 -0.5117
  191POPC  H15C22000   3.802   1.998   6.465 -0.5010 -0.0778  1.7804
  191POPC   C1122001   3.831   2.199   6.169  0.6182 -0.1248  0.1733
  191POPC  H11A22002   3.742   2.250   6.128 -0.1057 -0.6368  1.0513
  191POPC  H11B22003   3.922   2.197   6.105 -1.0385 -1.4731 -2.3218
  191POPC     P22004   3.925   2.416   6.294  0.1737 -0.0679 -0.1632
  191POPC   O1322005   3.817   2.507   6.244 -0.4476  0.0077  0.0596
  191POPC   O1422006   4.054   2.419   6.225 -0.5008 -0.6156 -0.1453
  191POPC   O1222007   3.869   2.264   6.293 -0.5449  0.6762 -0.4637
  191POPC   O1122008   3.944   2.442   6.449 -0.1065 -0.0612  0.9943
  191POPC    C122009   3.872   2.371   6.548  0.6387 -0.1411 -0.4532
  191POPC    HA22010   3.909   2.268   6.564  1.9123  0.3998  0.2312
  191POPC    HB22011   3.765   2.361   6.519 -0.2091  1.0918  1.8957
  191POPC    C222012   3.867   2.460   6.670  0.5867 -0.0688  0.3072
  191POPC    HS22013   3.796   2.409   6.739 -2.0466  1.7155 -0.9325
  191POPC   O2122014   3.809   2.586   6.638  0.2429 -0.2011 -0.6340
  191POPC   C2122015   3.739   2.643   6.734  0.2205  0.0324  0.3963
  191POPC   O2222016   3.759   2.627   6.852 -0.0316  0.2411  0.0472
  191POPC   C2222017   3.636   2.741   6.676 -0.0014  0.1279  1.0110
  191POPC   H2R22018   3.539   2.687   6.686  0.5396 -0.5523  3.1109
  191POPC   H2S22019   3.655   2.760   6.568 -0.4142 -0.7204  0.7779
  191POPC    C322020   4.016   2.477   6.717 -0.8077  0.1351  0.3410
  191POPC    HX22021   4.013   2.556   6.795 -0.1009 -1.2976  1.8782
  191POPC    HY22022   4.077   2.516   6.633  0.2287 -0.7311  0.6711
  191POPC   O3122023   4.078   2.351   6.746  0.0843 -0.3428 -0.0441
  191POPC   C3122024   4.081   2.308   6.873  0.6213 -0.3501 -0.9331
  191POPC   O3222025   4.039   2.373   6.967  0.5043  0.1018 -0.0995
  191POPC   C3222026   4.153   2.180   6.875  0.1976 -0.2264  0.0498
  191POPC   H2X22027   4.150   2.129   6.777  1.5088 -1.0676  0.4280
  191POPC   H2Y22028   4.107   2.103   6.941  1.7103 -0.2305  1.1602
  191POPC   C2322029   3.631   2.869   6.764  0.1207  0.0908 -0.2790
  191POPC   H3R22030   3.719   2.931   6.735  2.2057 -2.5046  0.1527
  191POPC   H3S22031   3.628   2.842   6.871 -0.2281  0.8871 -0.0786
  191POPC   C2422032   3.502   2.954   6.739  0.2601 -0.4092 -0.2471
  191POPC   H4R22033   3.422   2.897   6.790  0.0671 -1.8096 -2.0216
  191POPC   H4S22034   3.493   2.962   6.629  2.1887 -0.1658 -0.4194
  191POPC   C2522035   3.495   3.091   6.811  0.7137 -0.3936  0.2532
  191POPC   H5R22036   3.390   3.128   6.820  1.0831  0.2868  2.2257
  191POPC   H5S22037   3.543   3.178   6.761  3.3186 -1.8776  0.0238
  191POPC   C2622038   3.537   3.089   6.954  0.0640 -0.5006 -0.2524
  191POPC   H6R22039   3.642   3.054   6.967  0.3968  0.6647  0.3479
  191POPC   H6S22040   3.482   3.016   7.017  0.6802 -1.4780 -0.8316
  191POPC   C2722041   3.531   3.231   7.006  0.3446  0.1873  0.0892
  191POPC   H7R22042   3.432   3.274   6.978  1.4455  2.0643 -1.1499
  191POPC   H7S22043   3.613   3.288   6.956 -1.0385  1.1713 -1.1493
  191POPC   C2822044   3.528   3.228   7.160 -0.0811  0.0879 -0.2554
  191POPC   H8R22045   3.467   3.150   7.212  0.9267  1.6362  3.6211
  191POPC   H8S22046   3.491   3.329   7.185  0.9350  0.4699 -0.2735
  191POPC   C2922047   3.661   3.221   7.228 -1.1337 -0.1859 -0.2800
  191POPC   H9122048   3.737   3.157   7.180  0.9879  0.1010  2.4486
  191POPC  C21022049   3.692   3.276   7.344  1.0495 -0.0291 -0.0281
  191POPC  H10122050   3.790   3.246   7.384  0.4214  0.1483  1.7068
  191POPC  C21122051   3.619   3.365   7.441  0.3193  0.5881  0.0002
  191POPC  H11R22052   3.519   3.321   7.463  0.5934  0.0687  0.2140
  191POPC  H11S22053   3.601   3.466   7.398 -1.0688  0.4143  0.1326
  191POPC  C21222054   3.700   3.371   7.576 -0.1081 -0.1054  0.0376
  191POPC  H12R22055   3.794   3.423   7.548 -0.8908  0.6979 -1.1743
  191POPC  H12S22056   3.734   3.276   7.623  1.4864  0.3148 -0.1971
  191POPC  C21322057   3.618   3.454   7.677 -0.0536 -0.3423  0.3411
  191POPC  H13R22058   3.521   3.400   7.684 -0.5592  0.7032  2.2603
  191POPC  H13S22059   3.606   3.547   7.618  1.8681 -0.5069 -0.3802
  191POPC  C21422060   3.677   3.473   7.819  0.2228 -0.2160  0.2655
  191POPC  H14R22061   3.689   3.377   7.874 -0.7681 -0.2518  0.4371
  191POPC  H14S22062   3.610   3.542   7.874  1.7439  1.1006  0.5382
  191POPC  C21522063   3.811   3.552   7.805 -0.4341 -0.6841  0.0838
  191POPC  H15R22064   3.788   3.650   7.757 -0.4659 -0.0062  1.4256
  191POPC  H15S22065   3.884   3.485   7.755  1.9720  0.6557  1.6493
  191POPC  C21622066   3.886   3.569   7.934 -0.4521  0.1851  0.1323
  191POPC  H16R22067   3.877   3.476   7.994 -0.1682  0.0003 -0.1057
  191POPC  H16S22068   3.839   3.650   7.993  0.1390  0.2933  0.4614
  191POPC  C21722069   4.038   3.582   7.907  1.1712  0.5279  0.3092
  191POPC  H17R22070   4.047   3.669   7.839 -1.3681  0.0910 -0.6973
  191POPC  H17S22071   4.058   3.493   7.843  0.8640  0.8127 -0.1899
  191POPC  C21822072   4.120   3.580   8.033  0.0877  0.6659 -0.1932
  191POPC  H18R22073   4.217   3.534   8.005  0.1071  0.8716 -0.4706
  191POPC  H18S22074   4.079   3.541   8.128  1.5771  2.4732  1.2819
  191POPC  H18T22075   4.140   3.684   8.066  0.5921  0.4044  0.3469
  191POPC   C3322076   4.297   2.183   6.918  0.1386 -0.0785 -0.0435
  191POPC   H3X22077   4.339   2.265   6.856  0.6425  1.5501  2.3010
  191POPC   H3Y22078   4.347   2.086   6.901 -1.2726 -1.5792  3.3750
  191POPC   C3422079   4.311   2.224   7.070 -0.2650 -0.2317 -0.3746
  191POPC   H4X22080   4.248   2.308   7.106 -1.0535 -1.4757  1.3517
  191POPC   H4Y22081   4.411   2.271   7.074 -1.9616  3.7591 -0.7939
  191POPC   C3522082   4.281   2.102   7.168 -0.0325  0.3874  0.0196
  191POPC   H5X22083   4.365   2.030   7.162  0.3859  0.5977  2.3360
  191POPC   H5Y22084   4.189   2.048   7.136  1.7363 -3.2076  0.5527
  191POPC   C3622085   4.260   2.141   7.320 -0.0203  0.5377 -0.4846
  191POPC   H6X22086   4.216   2.052   7.370  0.2566  0.6953  0.0487
  191POPC   H6Y22087   4.195   2.231   7.328  0.8977  1.0645  2.5871
  191POPC   C3722088   4.397   2.179   7.377  0.0613 -0.5563 -0.2272
  191POPC   H7X22089   4.424   2.282   7.345  2.0162 -0.4726  1.4592
  191POPC   H7Y22090   4.474   2.117   7.326 -0.0023  0.1054 -1.1568
  191POPC   C3822091   4.394   2.172   7.532 -0.7827  0.3923  0.0760
  191POPC   H8X22092   4.495   2.210   7.556 -0.6124  1.7563 -2.4358
  191POPC   H8Y22093   4.377   2.067   7.565  1.6312  0.0536  0.3719
  191POPC   C3922094   4.296   2.269   7.590  0.1774 -0.1152  0.7295
  191POPC   H9X22095   4.195   2.226   7.576 -0.3326  1.7459 -2.3141
  191POPC   H9Y22096   4.299   2.365   7.534  0.7609 -0.2180  0.5739
  191POPC  C31022097   4.325   2.287   7.735  0.4654  0.1488 -0.1712
  191POPC  H10X22098   4.340   2.194   7.794 -1.2296 -1.5277 -2.2152
  191POPC  H10Y22099   4.227   2.326   7.770 -0.3675 -0.2156 -1.9628
  191POPC  C31122100   4.432   2.382   7.780  0.3010  0.2212  0.1934
  191POPC  H11X22101   4.403   2.486   7.753 -0.6255 -0.0768 -0.0145
  191POPC  H11Y22102   4.530   2.364   7.732  0.6635 -0.5560  1.1854
  191POPC  C31222103   4.449   2.363   7.930 -0.7329  0.5596 -0.0693
  191POPC  H12X22104   4.477   2.258   7.950 -2.3312  0.6719  3.5336
  191POPC  H12Y22105   4.350   2.376   7.978  0.0974  2.1505  1.3308
  191POPC  C31322106   4.550   2.460   7.992 -0.3121  0.1710  0.6628
  191POPC  H13X22107   4.495   2.556   7.997 -0.2635  0.5445 -3.0816
  191POPC  H13Y22108   4.644   2.456   7.932 -1.6335 -0.9714 -1.4787
  191POPC  C31422109   4.592   2.416   8.135  0.3332 -0.2932 -0.2826
  191POPC  H14X22110   4.615   2.308   8.142 -0.1372 -0.2688  3.1513
  191POPC  H14Y22111   4.499   2.439   8.191 -0.1801 -0.4417 -1.0560
  191POPC  C31522112   4.714   2.498   8.175 -0.1792 -0.4465 -0.1987
  191POPC  H15X22113   4.678   2.602   8.189  0.7973 -0.1141 -0.1346
  191POPC  H15Y22114   4.788   2.498   8.092 -1.5879  0.9377 -1.5417
  191POPC  C31622115   4.786   2.443   8.299 -0.2133  0.2259  0.4093
  191POPC  H16X22116   4.843   2.528   8.342  1.6303 -1.1263  0.7276
  191POPC  H16Y22117   4.852   2.359   8.270 -0.5771  0.2732 -0.6176
  191POPC  H16Z22118   4.705   2.416   8.370 -0.2661  0.3510  0.3992
  192POPC     N22119   3.777   4.453   5.936 -0.5454 -0.0780 -0.3389
  192POPC   C1222120   3.655   4.393   5.999  0.1383 -0.1593  0.0747
  192POPC  H12A22121   3.683   4.300   6.046 -1.2953  0.1051  1.5836
  192POPC  H12B22122   3.582   4.383   5.921  0.3741  0.9689 -0.3094
  192POPC   C1322123   3.744   4.567   5.843  0.8774 -0.8380 -0.5724
  192POPC  H13A22124   3.832   4.612   5.800  2.5323 -0.4329  2.8305
  192POPC  H13B22125   3.670   4.542   5.768 -0.3077  1.4000 -0.2441
  192POPC  H13C22126   3.687   4.639   5.901 -1.4721 -2.3747 -0.8182
  192POPC   C1422127   3.870   4.499   6.039  0.5988  0.0583 -0.0549
  192POPC  H14A22128   3.821   4.581   6.090 -0.2144  0.3268 -1.2279
  192POPC  H14B22129   3.904   4.431   6.115  1.7057  2.0880  1.3623
  192POPC  H14C22130   3.957   4.539   5.989  1.1422  0.1237  0.9293
  192POPC   C1522131   3.848   4.348   5.852  0.7522  0.1899 -0.2239
  192POPC  H15A22132   3.944   4.383   5.815  1.5560 -2.3784 -0.7548
  192POPC  H15B22133   3.782   4.314   5.774 -0.1598 -1.4066  1.1874
  192POPC  H15C22134   3.863   4.259   5.912 -1.1278 -0.9729 -1.3814
  192POPC   C1122135   3.585   4.475   6.111  0.6173  0.2282  0.0942
  192POPC  H11A22136   3.652   4.494   6.197 -1.7547  0.5574  1.9570
  192POPC  H11B22137   3.502   4.415   6.155  1.8695 -1.4087  0.3186
  192POPC     P22138   3.535   4.733   6.098  0.0583 -0.0434 -0.0211
  192POPC   O1322139   3.404   4.796   6.093 -0.4259 -0.5489  0.1069
  192POPC   O1422140   3.643   4.799   6.024  0.5027  0.1450  0.6390
  192POPC   O1222141   3.522   4.588   6.044  0.2665 -0.2348  0.9583
  192POPC   O1122142   3.578   4.720   6.244 -0.2292 -0.1477 -0.0541
  192POPC    C122143   3.515   4.665   6.358  0.3925 -0.2794 -0.2564
  192POPC    HA22144   3.583   4.581   6.386 -0.8851 -1.7718 -1.4031
  192POPC    HB22145   3.412   4.627   6.340  0.2816  0.6100 -1.6259
  192POPC    C222146   3.499   4.769   6.471  0.9695  0.3136 -0.3599
  192POPC    HS22147   3.434   4.855   6.442 -0.3037  0.5868  2.9280
  192POPC   O2122148   3.629   4.809   6.511 -0.0209 -0.0781  0.0236
  192POPC   C2122149   3.643   4.931   6.565  0.7026 -0.8335 -0.1566
  192POPC   O2222150   3.552   5.009   6.582  0.0696  0.2995 -0.4126
  192POPC   C2222151   3.799   4.954   6.588  0.2428 -0.2281 -0.6000
  192POPC   H2R22152   3.842   5.013   6.504 -0.1268 -0.4472 -0.9497
  192POPC   H2S22153   3.839   4.851   6.586  1.3595  0.1878 -0.5620
  192POPC    C322154   3.429   4.702   6.596  0.1989  1.0041 -0.3458
  192POPC    HX22155   3.495   4.620   6.634 -0.8396 -0.8620 -2.3770
  192POPC    HY22156   3.337   4.651   6.561 -0.5779  1.3769  1.0986
  192POPC   O3122157   3.390   4.780   6.702 -0.2165 -0.2134  0.3302
  192POPC   C3122158   3.300   4.876   6.682  0.4575  0.3345  0.9841
  192POPC   O3222159   3.237   4.891   6.578  0.4644 -1.0606 -0.2792
  192POPC   C3222160   3.291   4.959   6.818 -0.4223 -0.0444  0.4660
  192POPC   H2X22161   3.359   5.045   6.799 -0.4578 -0.0385  0.3631
  192POPC   H2Y22162   3.323   4.882   6.892 -0.3213 -1.0956 -0.6459
  192POPC   C2322163   3.828   5.025   6.724 -0.1373  0.3723 -0.8334
  192POPC   H3R22164   3.793   4.962   6.808  2.0166  1.6159  1.1035
  192POPC   H3S22165   3.776   5.121   6.745  1.4586  1.4017 -1.3885
  192POPC   C2422166   3.976   5.047   6.737  0.6030  0.0108 -0.0560
  192POPC   H4R22167   4.013   5.122   6.664  0.8109  1.5706  1.5763
  192POPC   H4S22168   4.021   4.948   6.716 -0.3716 -0.4475 -0.0397
  192POPC   C2522169   4.021   5.085   6.889  0.0504 -0.0349 -0.9013
  192POPC   H5R22170   4.128   5.115   6.888  0.2399 -0.6833 -0.3199
  192POPC   H5S22171   3.994   5.003   6.958 -0.6618 -0.4403 -1.6436
  192POPC   C2622172   3.934   5.198   6.949  0.1951 -0.5820  0.7294
  192POPC   H6R22173   3.824   5.188   6.932 -0.1423  2.4921  0.5451
  192POPC   H6S22174   3.959   5.301   6.917 -0.7168 -0.4539  0.3930
  192POPC   C2722175   3.946   5.192   7.099  0.0810 -0.4906 -0.0544
  192POPC   H7R22176   4.053   5.192   7.129  0.0793 -2.2690  0.0833
  192POPC   H7S22177   3.914   5.092   7.134 -0.3361 -0.8175 -1.3045
  192POPC   C2822178   3.870   5.296   7.176  0.1149  0.0335  0.1817
  192POPC   H8R22179   3.769   5.265   7.211  1.6473 -1.7754  3.4400
  192POPC   H8S22180   3.849   5.380   7.105  0.1126  0.4064  0.6209
  192POPC   C2922181   3.953   5.356   7.289  0.1348  0.1850  0.8008
  192POPC   H9122182   4.055   5.383   7.258 -0.6018  0.4057 -1.6388
  192POPC  C21022183   3.915   5.372   7.422 -0.5436  0.7729 -0.1476
  192POPC  H10122184   3.985   5.400   7.502 -1.2135  1.7005  0.1283
  192POPC  C21122185   3.781   5.347   7.480  1.1622 -0.9971 -0.3097
  192POPC  H11R22186   3.772   5.249   7.531  1.7822 -2.0117 -2.0711
  192POPC  H11S22187   3.694   5.353   7.411 -0.1202 -1.8609  1.1454
  192POPC  C21222188   3.731   5.446   7.588 -0.2005  0.0336  0.1058
  192POPC  H12R22189   3.622   5.427   7.601 -0.2041 -0.4753 -0.6664
  192POPC  H12S22190   3.744   5.554   7.565 -0.4142 -0.1680 -1.0171
  192POPC  C21322191   3.795   5.421   7.727 -0.4017  0.8083  0.4650
  192POPC  H13R22192   3.904   5.400   7.737 -0.7708 -1.3927  0.1965
  192POPC  H13S22193   3.757   5.323   7.761  3.9485 -1.0185  0.7686
  192POPC  C21422194   3.741   5.511   7.835 -0.9937 -0.4582  0.3120
  192POPC  H14R22195   3.631   5.524   7.831 -0.8601  0.5571 -0.3750
  192POPC  H14S22196   3.798   5.606   7.821 -0.0590 -1.2635 -1.6841
  192POPC  C21522197   3.772   5.455   7.980  0.4262 -0.3457 -0.1490
  192POPC  H15R22198   3.879   5.432   8.001 -0.0093 -1.3815  1.0837
  192POPC  H15S22199   3.725   5.355   7.993 -1.2929  0.6804  2.2174
  192POPC  C21622200   3.710   5.545   8.084  0.2438  0.7180 -0.7571
  192POPC  H16R22201   3.600   5.541   8.071  0.0122 -0.0505  1.1120
  192POPC  H16S22202   3.743   5.651   8.082  0.8983  0.5133 -1.1446
  192POPC  C21722203   3.745   5.500   8.224  0.9227  0.6057  0.6512
  192POPC  H17R22204   3.856   5.497   8.226  0.9714 -0.3676 -1.3570
  192POPC  H17S22205   3.710   5.394   8.231  2.1182  0.0927 -0.7578
  192POPC  C21822206   3.702   5.584   8.345  0.0262 -0.2169 -0.2563
  192POPC  H18R22207   3.736   5.554   8.446  2.4495 -1.1736 -1.2745
  192POPC  H18S22208   3.593   5.597   8.354  0.0791 -0.5889  1.1176
  192POPC  H18T22209   3.740   5.688   8.331 -0.9421  0.1436 -0.2256
  192POPC   C3322210   3.146   5.003   6.857  0.3322  1.0818 -0.0511
  192POPC   H3X22211   3.086   4.909   6.859 -1.1214  1.8489 -2.5957
  192POPC   H3Y22212   3.114   5.066   6.771 -0.6828 -1.1447 -1.4164
  192POPC   C3422213   3.138   5.089   6.978  0.6796  0.4394  0.2054
  192POPC   H4X22214   3.031   5.120   6.979  1.2489  2.7530 -1.3228
  192POPC   H4Y22215   3.200   5.178   6.953 -0.2585  0.7729 -1.0424
  192POPC   C3522216   3.174   5.031   7.115 -0.1437 -0.2093 -0.3674
  192POPC   H5X22217   3.126   5.089   7.196 -1.0721 -0.2366 -0.8869
  192POPC   H5Y22218   3.285   5.032   7.128  0.0525  1.0229 -1.8176
  192POPC   C3622219   3.129   4.890   7.138  0.3785 -0.3670  0.0947
  192POPC   H6X22220   3.204   4.831   7.082  0.7429 -0.0261  0.2202
  192POPC   H6Y22221   3.035   4.865   7.085  0.2795 -0.4583  0.3095
  192POPC   C3722222   3.122   4.848   7.286 -0.5885  0.8089 -0.8094
  192POPC   H7X22223   3.223   4.841   7.332 -0.8771  0.1514 -0.2542
  192POPC   H7Y22224   3.087   4.743   7.276 -1.1460  1.0626 -1.6235
  192POPC   C3822225   3.027   4.918   7.378 -0.0574 -0.3067 -0.8567
  192POPC   H8X22226   2.926   4.920   7.332  0.3556  1.3535 -1.7895
  192POPC   H8Y22227   3.054   5.021   7.412 -0.3698 -1.1691  2.3098
  192POPC   C3922228   3.016   4.854   7.520  1.2070 -0.3299  0.5917
  192POPC   H9X22229   3.112   4.838   7.574  1.5286  0.8595  0.3962
  192POPC   H9Y22230   2.966   4.756   7.508 -1.1407  0.9416 -0.5588
  192POPC  C31022231   2.913   4.939   7.605  0.7505  0.1880 -0.5998
  192POPC  H10X22232   2.825   4.970   7.545 -0.6209 -1.8679  0.2553
  192POPC  H10Y22233   2.969   5.030   7.636  0.8345 -0.7267  2.2557
  192POPC  C31122234   2.860   4.865   7.736  0.5901 -0.8610  1.2178
  192POPC  H11X22235   2.777   4.803   7.694  0.4292 -0.3107  0.7085
  192POPC  H11Y22236   2.813   4.939   7.804 -0.5135  1.4446 -1.8196
  192POPC  C31222237   2.965   4.783   7.803 -0.7817  0.4011  0.3372
  192POPC  H12X22238   2.984   4.698   7.734  0.1104 -0.0452  1.1163
  192POPC  H12Y22239   2.908   4.736   7.886 -0.9379  0.4046  0.2335
  192POPC  C31322240   3.082   4.857   7.872  0.5060 -0.0906 -1.3258
  192POPC  H13X22241   3.046   4.950   7.920 -1.3611 -1.2570 -0.3431
  192POPC  H13Y22242   3.156   4.883   7.794 -1.0521  1.6361 -2.3002
  192POPC  C31422243   3.150   4.776   7.985  0.9204  1.0076 -0.3666
  192POPC  H14X22244   3.186   4.683   7.936 -0.7256  0.3588 -0.3946
  192POPC  H14Y22245   3.073   4.746   8.059  0.2633  0.5820 -1.2107
  192POPC  C31522246   3.269   4.834   8.065  0.3096 -0.9741 -0.0577
  192POPC  H15X22247   3.295   4.770   8.153  2.0504 -0.0975  0.1252
  192POPC  H15Y22248   3.244   4.938   8.096 -0.4956 -1.1064 -0.2394
  192POPC  C31622249   3.400   4.846   7.981 -0.1184  0.1929  0.0186
  192POPC  H16X22250   3.475   4.898   8.044  1.1135 -3.2219  1.6038
  192POPC  H16Y22251   3.384   4.901   7.886 -0.7780  1.3401  0.7684
  192POPC  H16Z22252   3.430   4.742   7.954 -0.3431  0.7133 -2.4611
  193SOD    SOD22253   5.372   6.594  14.927 -0.2592  0.5305  0.0282
  194SOD    SOD22254   0.996   4.147  14.352 -0.2887 -0.1921 -0.0497
  195SOD    SOD22255   4.836   2.135   0.224 -0.0566 -0.1914  0.3744
  196SOD    SOD22256   4.057   4.436   2.866  0.1039 -0.1542 -0.0337
  197SOD    SOD22257   1.274   5.397  11.297  0.2705 -0.0297  0.0780
  198SOD    SOD22258   4.359   5.161   1.252 -0.3840 -0.3065 -0.1081
  199SOD    SOD22259   2.516   3.777  11.921  0.0020 -0.0182 -0.4712
  200SOD    SOD22260   4.843   3.218  12.957 -0.1784  0.3711  0.2102
  201SOD    SOD22261   6.145   0.777  10.651  0.2251  0.0518 -0.1878
  202SOD    SOD22262   1.929   3.077  10.662  0.3575 -0.0846 -0.3366
  203SOD    SOD22263   5.890   2.329   6.176  0.7301  0.4203 -0.6070
  204SOD    SOD22264   5.819   6.297  14.856 -0.0677 -0.3087 -0.0294
  205SOD    SOD22265   3.621   3.273   3.349 -0.2036  0.2070  0.4101
  206SOD    SOD22266   1.024   4.822  15.051 -0.2332 -0.1307 -0.3320
  207SOD    SOD22267   4.304   6.739  15.302  0.0285  0.3228  0.0958
  208SOD    SOD22268   5.910   5.443  13.341  0.2977 -0.0278 -0.2835
  209SOD    SOD22269   5.818   4.706  10.826  0.3482 -0.6933 -0.2374
  210SOD    SOD22270   4.292   6.025   4.917 -0.3933 -0.4947 -0.1493
  211SOD    SOD22271   2.422   2.168   1.611  0.4566 -0.0214 -0.6137
  212SOD    SOD22272   1.630   5.075   4.239 -0.6022  0.3865 -1.0970
  213SOD    SOD22273   1.521   2.634   2.671 -0.0039 -0.1046  0.0219
  214SOD    SOD22274   5.679   0.047  16.832 -0.0872 -0.1808 -0.1846
  215SOD    SOD22275   5.807   5.467  16.498  0.0233  0.2176  0.0335
  216SOD    SOD22276   0.933   0.114  13.701  0.3528 -0.2068 -0.0470
  217SOD    SOD22277   3.098   6.566   0.488 -0.0733 -0.3313  0.1030
  218SOD    SOD22278   5.084   5.490  13.762 -0.4531 -0.4869  0.1181
  219SOD    SOD22279   1.588   4.639   6.215 -0.1232  0.1881 -0.1779
  220SOD    SOD22280   6.465   0.921   1.092  0.4889  0.1795 -0.4189
  221SOD    SOD22281   3.429   3.867   0.313  0.3603 -0.2754  0.1212
  222SOD    SOD22282   6.697   1.863   3.941 -0.1869 -0.4540 -0.6616
  223SOD    SOD22283   0.227   4.597  12.980 -0.1313 -0.3066  0.2426
  224SOD    SOD22284   0.724   5.096   5.982  0.0491 -0.2007  0.4538
  225SOD    SOD22285   6.249   4.434   6.447 -0.0310 -0.2770 -0.5042
  226SOD    SOD22286   4.750   2.103  13.527  0.0815  0.1653  0.1794
  227SOD    SOD22287   0.339   1.304  12.777  0.0988  0.4774 -0.3468
  228SOD    SOD22288   6.623   3.480  11.771  0.0450  0.6783 -0.0407
  229SOD    SOD22289   3.452   5.419   4.935  0.0586  0.6007  0.1981
  230SOD    SOD22290   0.883   0.519   3.447 -0.0859 -0.2388  0.0160
  231SOD    SOD22291   5.508   1.854   2.917 -0.3402 -0.1438  0.0260
  232SOD    SOD22292   5.792   2.289  14.583  0.5235  0.0309 -0.0573
  233SOD    SOD22293   5.211   6.679   5.535  0.0069 -0.0078  0.1520
  234SOD    SOD22294   3.609   0.259  13.218 -0.1290  0.1522  0.0684
  235SOD    SOD22295   4.567   5.296   2.839  0.6135 -0.2855  0.0606
  236SOD    SOD22296   3.981   0.837  11.404 -0.2336  0.6465 -0.0779
  237SOD    SOD22297   0.151   5.078   2.454 -0.0910 -0.4082  0.4375
  238SOD    SOD22298   2.070   3.636  17.180 -0.2817  0.1144 -0.0475
  239SOD    SOD22299   3.839   0.521   4.455 -0.3654 -0.0774 -0.0119
  240SOD    SOD22300   1.908   1.337  12.050  0.0151  0.7198  0.3461
  241SOD    SOD22301   6.367   5.924   4.054  0.2378 -0.5402  0.6124
  242SOD    SOD22302   1.284   2.558   4.288 -0.2634  0.3608 -0.2267
  243SOD    SOD22303   5.308   0.354   6.546  0.2344  0.3608 -0.0026
  244SOD    SOD22304   2.655   6.479  12.615  0.3767  0.3442 -0.1313
  245SOD    SOD22305   1.629   4.783  11.333  0.3435  0.3822  0.5509
  246SOD    SOD22306   0.831   6.408   1.347  0.9015 -0.4717  0.2808
  247SOD    SOD22307   4.459   3.408   6.113 -0.3067  0.0926  0.3032
  248SOD    SOD22308   0.189   1.873   1.602 -0.3334 -0.2185 -0.2990
  249SOD    SOD22309   3.192   1.640  13.754  0.1913  0.2782  0.6268
  250SOD    SOD22310   5.937   1.588  11.320  0.3096  0.2758 -0.1964
  251SOD    SOD22311   3.204   0.029  15.051 -0.0753 -0.0232  0.4801
  252SOD    SOD22312   0.432   4.655   6.213  0.1465  0.3041 -0.2771
  253SOD    SOD22313   4.050   1.892   3.162 -0.4151 -0.0380 -0.0249
  254SOD    SOD22314   2.448   3.377  16.816 -0.1929  0.1418 -0.1439
  255SOD    SOD22315   4.941   0.612   0.057  0.8569 -0.2468 -0.1008
  256SOD    SOD22316   2.044   1.093  11.624  0.2196 -0.0803 -0.3031
  257SOD    SOD22317   3.622   1.404   6.180  0.0144  0.3533  0.0275
  258SOD    SOD22318   1.005   2.994  17.101  0.1741 -0.5357  0.3245
  259SOD    SOD22319   1.624   4.685   2.510  0.2042  0.0656  0.3065
  260SOD    SOD22320   3.491   2.623  11.574  0.2821 -0.2924  0.0547
  261SOD    SOD22321   2.741   4.055  13.793 -0.7017 -0.0747  0.1777
  262SOD    SOD22322   0.174   6.445  15.416 -0.4675 -0.3344  0.1066
  263SOD    SOD22323   3.889   2.569   4.975 -0.4973 -0.2972  0.0496
  264SOD    SOD22324   1.082   1.466   5.991 -0.3458 -0.1277  0.2565
  265SOD    SOD22325   1.110   0.306  12.549  0.1628 -0.0662  0.4241
  266SOD    SOD22326   5.082   2.251   0.719  0.1243 -0.2311 -0.0189
  267SOD    SOD22327   3.355   5.380  11.787  0.2245 -0.4974  0.4676
  268SOD    SOD22328   2.741   2.532  11.646  0.2020 -0.0508 -0.0252
  269SOD    SOD22329   1.201   4.192   4.443 -0.5448  0.1972 -0.0246
  270CLA    CLA22330   0.589   4.202  15.907  0.0337  0.0004 -0.1609
  271CLA    CLA22331   5.383   5.646  14.844 -0.2237  0.0559  0.1989
  272CLA    CLA22332   2.173   5.230   2.568 -0.0875 -0.2204 -0.1318
  273CLA    CLA22333   5.893   1.329   1.053 -0.2815  0.4649 -0.1262
  274CLA    CLA22334   0.351   4.450   3.583 -0.0726 -0.0228  0.2873
  275CLA    CLA22335   1.852   1.367   4.672 -0.3827 -0.2101 -0.4009
  276CLA    CLA22336   3.580   0.187  12.218 -0.4254  0.1498  0.0811
  277CLA    CLA22337   2.077   0.402  13.361 -0.0739 -0.1658  0.4627
  278CLA    CLA22338   0.035   0.213   0.908 -0.0826 -0.2334 -0.2513
  279CLA    CLA22339   2.649   5.799   5.116  0.3791  0.1472 -0.0582
  280CLA    CLA22340   0.959   3.546   4.334 -0.2326 -0.5492  0.2985
  281CLA    CLA22341   3.324   2.783   0.341  0.2841  0.0426  0.0477
  282CLA    CLA22342   4.576   4.048   0.575  0.0950 -0.1861  0.2391
  283CLA    CLA22343   1.474   6.767  11.195  0.2286 -0.1125  0.0544
  284CLA    CLA22344   6.413   4.310   2.599 -0.0977 -0.1783 -0.1793
  285CLA    CLA22345   5.333   1.495   2.653  0.2475 -0.3802 -0.1653
  286CLA    CLA22346   2.093   1.875  15.285  0.1133 -0.0549 -0.0767
  287CLA    CLA22347   5.407   2.500  14.771  0.0320 -0.1230 -0.4989
  288CLA    CLA22348   0.236   3.596   2.844 -0.1683  0.0569 -0.1816
  289CLA    CLA22349   0.399   2.849  12.420  0.0342  0.3783 -0.4216
  290CLA    CLA22350   6.483   2.708   0.102  0.1889  0.8192  0.1578
  291CLA    CLA22351   0.996   3.798  12.872  0.7300 -0.0644 -0.3782
  292CLA    CLA22352   4.257   1.506   2.519 -0.0226 -0.0247 -0.4145
  293CLA    CLA22353   6.711   2.937  14.079  0.4556 -0.0310  0.0484
  294CLA    CLA22354   3.265   6.767  14.774 -0.1136 -0.0688 -0.1478
  295CLA    CLA22355   0.380   4.338  12.161 -0.3030 -0.2483 -0.0001
  296CLA    CLA22356   0.170   3.815  11.612  0.1751  0.1675 -0.5606
  297CLA    CLA22357   1.887   6.027  14.408  0.0388 -0.1839 -0.1570
  298CLA    CLA22358   6.280   1.695  12.501 -0.2529 -0.0561  0.2458
  299CLA    CLA22359   0.456   0.446  15.065  0.1808 -0.1277  0.0992
  300CLA    CLA22360   2.580   4.721   1.571 -0.1039  0.3879  0.4344
  301CLA    CLA22361   3.050   3.620  12.567  0.2652  0.2296 -0.0007
  302CLA    CLA22362   2.114   0.574  14.674 -0.4431 -0.0787  0.0510
  303CLA    CLA22363   5.242   6.497   2.784  0.0374  0.2462  0.2895
  304CLA    CLA22364   5.971   4.992  12.294  0.0757  0.1784  0.0848
  305CLA    CLA22365   6.579   4.083   5.072  0.3467  0.1732 -0.3878
  306CLA    CLA22366   4.678   1.815  13.512  0.0911 -0.0015  0.3018
  307CLA    CLA22367   1.359   1.288   3.589 -0.2953  0.0152  0.0091
  308CLA    CLA22368   4.427   5.932   2.885  0.1704  0.3649  0.0783
  309CLA    CLA22369   3.394   0.345   4.556  0.4254  0.4955  0.0313
  310CLA    CLA22370   6.658   4.328   1.651  0.3912 -0.0325 -0.1362
  311CLA    CLA22371   1.100   4.501  14.611 -0.3589  0.0040 -0.0788
  312CLA    CLA22372   0.607   0.718  14.314 -0.5232 -0.4033  0.2039
  313CLA    CLA22373   1.299   5.982   2.939 -0.2543 -0.2309  0.0911
  314CLA    CLA22374   3.954   3.975   4.616  0.5069 -0.1795 -0.1693
  315CLA    CLA22375   4.990   6.366   4.901  0.2421  0.3463 -0.1159
  316CLA    CLA22376   6.393   2.029   4.588  0.2090 -0.4252 -0.4834
  317CLA    CLA22377   5.417   6.263  16.199 -0.0380  0.6335  0.1224
  318CLA    CLA22378   4.586   0.305  13.705  0.0600 -0.0717 -0.0564
  319CLA    CLA22379   0.314   0.304  13.489 -0.0503 -0.3300  0.5949
  320CLA    CLA22380   3.227   2.863   4.669 -0.2181 -0.1980 -0.2024
  321CLA    CLA22381   3.335   1.317  14.911  0.1474 -0.3071 -0.6215
  322CLA    CLA22382   6.691   5.111  16.886 -0.1159  0.4257 -0.0343
  323TIP3   OH222383   3.774   3.523   2.395  0.2820  0.1144 -0.1573
  323TIP3    H122384   3.868   3.538   2.408  0.2374  0.6405 -0.4135
  323TIP3    H222385   3.732   3.599   2.434  0.0094  0.3205 -0.8417
  324TIP3   OH222386   1.758   1.904  13.953 -0.5851  0.3820 -0.5534
  324TIP3    H122387   1.694   1.871  14.017  0.8514 -0.0987  0.6981
  324TIP3    H222388   1.745   1.850  13.876 -1.0827 -0.3229  0.0113
  325TIP3   OH222389   2.089   0.639  13.905  0.5117  0.0533 -0.4108
  325TIP3    H122390   2.015   0.628  13.965  1.2218 -1.0625  0.3138
  325TIP3    H222391   2.153   0.574  13.935  1.0456 -0.2795 -2.1472
  326TIP3   OH222392   3.082   4.717  12.385 -0.2873 -1.0996  0.3671
  326TIP3    H122393   2.999   4.742  12.345 -0.0783  2.8914  1.9912
  326TIP3    H222394   3.057   4.664  12.461 -1.3741 -0.1521  0.6995
  327TIP3   OH222395   0.496   1.470  12.893  0.1570  0.4117 -0.0416
  327TIP3    H122396   0.578   1.447  12.849  0.0801  0.0513  0.0043
  327TIP3    H222397   0.524   1.504  12.978  0.3828  2.2170 -0.7906
  328TIP3   OH222398   0.692   3.459   0.422 -0.0817 -0.3455  0.0130
  328TIP3    H122399   0.713   3.546   0.454 -0.1979  0.3988 -1.7983
  328TIP3    H222400   0.605   3.468   0.382 -0.9636 -1.7741  1.4801
  329TIP3   OH222401   5.783   6.490  17.201 -0.0754  0.3978  0.0069
  329TIP3    H122402   5.814   6.535  17.123 -0.8814  1.3176  0.1949
  329TIP3    H222403   5.689   6.509  17.204 -0.1687 -0.1483  0.8520
  330TIP3   OH222404   5.636   6.467  16.623  0.1107  0.4958  0.1511
  330TIP3    H122405   5.640   6.554  16.664 -1.7191 -0.0330  1.6308
  330TIP3    H222406   5.612   6.408  16.695 -0.7389 -0.9126 -1.2248
  331TIP3   OH222407   5.412   2.212  12.000  0.3330  0.2008 -0.0545
  331TIP3    H122408   5.355   2.195  12.075  0.3308 -0.0341 -0.1094
  331TIP3    H222409   5.364   2.276  11.947 -0.0715 -0.3068 -0.3125
  332TIP3   OH222410   5.506   2.731   1.279  0.1488 -0.0924  0.5282
  332TIP3    H122411   5.550   2.704   1.198 -0.4918  1.3248 -0.3236
  332TIP3    H222412   5.536   2.668   1.344  1.3256 -0.7814 -0.6263
  333TIP3   OH222413   6.118   3.880   1.682 -0.0139  0.0014  0.1793
  333TIP3    H122414   6.092   3.947   1.745  1.2535 -0.9771  1.8470
  333TIP3    H222415   6.075   3.800   1.714  0.6431 -0.5103 -0.2027
  334TIP3   OH222416   2.305   2.428  11.587  0.1092  0.1417  0.2863
  334TIP3    H122417   2.245   2.355  11.599  1.1750 -0.6594  0.9293
  334TIP3    H222418   2.382   2.390  11.546  0.2540  1.1261 -0.3984
  335TIP3   OH222419   5.629   0.660  16.593 -0.0513 -0.0865  0.4358
  335TIP3    H122420   5.686   0.596  16.550  0.0227  0.0106  0.3874
  335TIP3    H222421   5.621   0.731  16.529  1.4918  0.8754  1.2527
  336TIP3   OH222422   3.705   5.622   1.744  0.4931  0.4852 -0.4191
  336TIP3    H122423   3.631   5.576   1.782  1.1334 -0.5696 -0.4058
  336TIP3    H222424   3.694   5.613   1.650  0.4455  0.5939 -0.4243
  337TIP3   OH222425   6.534   6.737   5.946 -0.5006  0.4235  0.9960
  337TIP3    H122426   6.585   6.801   5.996 -0.6552  0.7799  0.7052
  337TIP3    H222427   6.514   6.782   5.864  0.3179 -0.3888  0.3279
  338TIP3   OH222428   2.842   3.206   5.033  0.6051 -0.3521  0.3055
  338TIP3    H122429   2.870   3.246   5.115 -0.4770 -1.1201  1.0784
  338TIP3    H222430   2.901   3.131   5.022  0.2299 -0.7363  0.8336
  339TIP3   OH222431   1.453   0.704  15.118 -0.2372 -0.4736 -0.0061
  339TIP3    H122432   1.363   0.725  15.091 -0.3430 -1.1655 -0.2271
  339TIP3    H222433   1.503   0.705  15.036 -0.0422 -0.1020  0.1147
  340TIP3   OH222434   0.247   5.532   3.492  0.3520  0.0883 -0.1099
  340TIP3    H122435   0.184   5.464   3.470  0.8124 -0.3654 -0.0499
  340TIP3    H222436   0.331   5.498   3.460  0.6331  0.4965  0.1839
  341TIP3   OH222437   5.388   2.604  12.811 -0.2224 -0.2239 -0.1459
  341TIP3    H122438   5.360   2.534  12.752  1.0332 -1.5024  0.7230
  341TIP3    H222439   5.432   2.559  12.882  0.5131  1.4666  0.5122
  342TIP3   OH222440   0.623   5.776  12.195 -0.1446 -0.0824  1.0053
  342TIP3    H122441   0.589   5.716  12.262 -1.7394  0.6815  0.9108
  342TIP3    H222442   0.617   5.863  12.235  1.2681  0.1464  0.7854
  343TIP3   OH222443   0.962   3.005  12.554  0.0163  0.4633 -0.4174
  343TIP3    H122444   0.872   2.992  12.524 -0.5931 -0.8210  1.7102
  343TIP3    H222445   1.016   2.963  12.487 -1.1060 -0.4328 -0.8055
  344TIP3   OH222446   5.093   2.956  15.508 -0.3680  0.3392 -0.2079
  344TIP3    H122447   5.068   3.003  15.588  1.7734 -0.2873  0.9045
  344TIP3    H222448   5.168   3.005  15.474 -0.4505 -0.1477 -1.1317
  345TIP3   OH222449   4.844   3.365  13.712 -0.1745 -0.0273  0.4186
  345TIP3    H122450   4.902   3.326  13.778 -0.7686 -1.3062  0.2134
  345TIP3    H222451   4.762   3.316  13.720  0.0813 -0.9961 -1.9786
  346TIP3   OH222452   2.725   5.963   0.915  0.3925  0.1265 -0.9757
  346TIP3    H122453   2.721   5.883   0.862 -0.2054 -0.2823 -0.3356
  346TIP3    H222454   2.685   6.030   0.861 -1.8960 -0.6788 -0.3948
  347TIP3   OH222455   5.242   3.294   2.161 -0.4869  0.1912  0.4252
  347TIP3    H122456   5.161   3.244   2.172  0.0685 -0.8260 -0.0334
  347TIP3    H222457   5.213   3.379   2.127 -1.2267 -0.8579 -1.7180
  348TIP3   OH222458   5.533   6.365   3.595  1.0937  0.8336 -0.1736
  348TIP3    H122459   5.556   6.453   3.625 -0.9458  1.4527 -0.2820
  348TIP3    H222460   5.474   6.332   3.663  0.9282 -0.0004 -0.7178
  349TIP3   OH222461   3.503   4.051  16.087  0.2790  0.0861 -0.5547
  349TIP3    H122462   3.430   3.998  16.055  0.8919 -0.9912 -0.2166
  349TIP3    H222463   3.476   4.141  16.071 -0.6913 -0.3297 -1.3553
  350TIP3   OH222464   3.243   5.319   4.997  0.2182 -0.1713  0.1707
  350TIP3    H122465   3.175   5.385   4.985 -0.9490 -1.4303 -0.4188
  350TIP3    H222466   3.202   5.237   4.970  0.9853 -1.4910  2.6996
  351TIP3   OH222467   0.651   6.771   3.875  0.6517 -0.6816  0.1049
  351TIP3    H122468   0.682   6.684   3.900  0.9171 -0.7476 -0.4434
  351TIP3    H222469   0.558   6.760   3.859  0.5798 -0.7469  0.5597
  352TIP3   OH222470   5.937   2.670   2.480  0.1597 -0.4761 -0.0451
  352TIP3    H122471   5.935   2.617   2.400 -0.1840 -2.1878  1.0352
  352TIP3    H222472   5.874   2.740   2.464 -0.5950 -1.3205 -0.9395
  353TIP3   OH222473   6.774   0.328  13.426  0.3393  0.0854  0.1753
  353TIP3    H122474   6.783   0.319  13.332  1.6266 -0.2419  0.3081
  353TIP3    H222475   6.864   0.337  13.458 -0.1378  1.6996  1.2290
  354TIP3   OH222476   2.815   6.204   6.394 -0.3243 -0.0119 -0.6768
  354TIP3    H122477   2.729   6.190   6.435 -0.2718 -1.3239 -0.9694
  354TIP3    H222478   2.876   6.153   6.448  0.2916  0.9199 -0.4656
  355TIP3   OH222479   2.538   1.340  14.782  0.3516 -0.0160  0.2037
  355TIP3    H122480   2.446   1.358  14.799 -0.5962 -3.5696 -0.3877
  355TIP3    H222481   2.553   1.374  14.693 -0.8154 -0.6532 -0.2572
  356TIP3   OH222482   2.648   3.265  16.093  0.0550 -0.0021 -0.0043
  356TIP3    H122483   2.562   3.288  16.129  0.4626  0.6734  0.5822
  356TIP3    H222484   2.676   3.189  16.144  1.5213  2.1447  2.6890
  357TIP3   OH222485   1.223   1.569  15.494  1.1440 -0.0374  0.1729
  357TIP3    H122486   1.300   1.604  15.539  0.5470  0.3366  0.9258
  357TIP3    H222487   1.200   1.490  15.543  0.4402  0.4141  0.5812
  358TIP3   OH222488   2.178   6.503  16.551  0.5821  0.1673  0.3231
  358TIP3    H122489   2.142   6.453  16.477 -0.2356  1.2844 -0.0794
  358TIP3    H222490   2.151   6.455  16.629  0.8033 -0.6281 -0.0872
  359TIP3   OH222491   5.202   0.537  16.105 -0.4324  0.2345  0.9382
  359TIP3    H122492   5.138   0.499  16.165  0.4406 -0.9643  1.1399
  359TIP3    H222493   5.150   0.573  16.034 -1.4693  1.3425  2.2006
  360TIP3   OH222494   5.866   2.791  12.068 -0.0286 -0.3841 -0.9954
  360TIP3    H122495   5.877   2.697  12.052  1.6651 -0.4211  0.1852
  360TIP3    H222496   5.884   2.832  11.983 -0.9925 -1.1102 -1.5744
  361TIP3   OH222497   0.085   0.805  11.362 -0.0515  0.4721 -0.6116
  361TIP3    H122498   0.116   0.782  11.449 -0.4616 -0.0346 -0.5978
  361TIP3    H222499   0.091   0.724  11.312  0.0177  0.7163 -1.0121
  362TIP3   OH222500   2.520   2.028   0.776 -0.2865 -0.5468  0.0826
  362TIP3    H122501   2.560   2.114   0.764  0.5576 -0.8311  0.7528
  362TIP3    H222502   2.426   2.043   0.766 -0.1441  0.4458  0.1791
  363TIP3   OH222503   3.633   1.765  13.336 -0.0938 -0.0358  0.7102
  363TIP3    H122504   3.557   1.787  13.389 -1.9230 -2.8377 -0.5613
  363TIP3    H222505   3.707   1.773  13.397 -1.2428  2.9881  1.9248
  364TIP3   OH222506   3.320   4.281  16.027 -0.1849 -0.1017 -0.3383
  364TIP3    H122507   3.244   4.254  16.079 -0.1050  1.6868  0.7636
  364TIP3    H222508   3.300   4.251  15.938 -1.5198 -0.9116  0.2068
  365TIP3   OH222509   0.647   0.074  14.798  0.0380 -0.0351  0.0974
  365TIP3    H122510   0.718   0.099  14.738  1.9297  0.4588  2.3806
  365TIP3    H222511   0.669  -0.016  14.824  0.5097  0.4790  1.6239
  366TIP3   OH222512   5.838   1.767   4.885  0.0670  0.5623  0.0885
  366TIP3    H122513   5.758   1.802   4.847 -0.2540  0.4397  0.6472
  366TIP3    H222514   5.831   1.786   4.979  0.5353  0.2510  0.1906
  367TIP3   OH222515   3.875   6.115   1.908 -0.1672 -0.0075 -0.8600
  367TIP3    H122516   3.904   6.176   1.840 -0.6069  0.5098 -0.5940
  367TIP3    H222517   3.799   6.072   1.870  0.5252 -0.8740 -1.2979
  368TIP3   OH222518   6.634   5.544   1.384 -0.8192  0.2225 -0.2487
  368TIP3    H122519   6.545   5.515   1.400 -1.4167  1.3923 -1.2666
  368TIP3    H222520   6.669   5.481   1.321 -1.0733  0.0093 -0.1770
  369TIP3   OH222521   5.144   0.023   6.487 -0.0664  0.2002 -0.8067
  369TIP3    H122522   5.109   0.083   6.553  2.2427  0.7132  0.0672
  369TIP3    H222523   5.187   0.080   6.423 -0.7178 -0.3937 -1.7996
  370TIP3   OH222524   6.057   6.361   3.007 -0.0404 -0.4311 -0.1014
  370TIP3    H122525   5.962   6.366   2.994  0.1800  0.9047 -1.4965
  370TIP3    H222526   6.082   6.276   2.969 -0.7847 -1.3126  1.2966
  371TIP3   OH222527   5.398   6.094  15.572 -0.0568  0.4102  0.1704
  371TIP3    H122528   5.400   6.050  15.487  2.2643  0.3365  0.2089
  371TIP3    H222529   5.374   6.184  15.552 -0.4230  0.1864 -0.4372
  372TIP3   OH222530   2.552   1.088  11.530  0.7117 -0.2742 -0.2979
  372TIP3    H122531   2.643   1.082  11.498  0.8309 -0.4868  0.0775
  372TIP3    H222532   2.560   1.125  11.618  0.3961  0.1293 -0.4365
  373TIP3   OH222533   2.987   5.293   1.042 -0.5034  0.7930  0.0706
  373TIP3    H122534   3.073   5.285   1.084 -0.3541  1.1562 -0.1575
  373TIP3    H222535   2.978   5.387   1.024 -0.4086  0.6054 -1.0221
  374TIP3   OH222536   0.838   5.306   6.018  0.6007  0.1631  0.0149
  374TIP3    H122537   0.881   5.261   6.091  3.5247  0.5692 -1.2987
  374TIP3    H222538   0.828   5.396   6.048  0.5758  0.0441  0.3724
  375TIP3   OH222539   5.846   4.621   2.592  0.0770 -0.4622  0.0680
  375TIP3    H122540   5.766   4.669   2.615 -0.6455 -1.1871 -0.8529
  375TIP3    H222541   5.910   4.651   2.656 -0.9323  0.1208  0.8519
  376TIP3   OH222542   6.298   0.640  12.710  0.4560  0.3340 -0.7436
  376TIP3    H122543   6.347   0.595  12.779  0.5314  0.4106 -0.7484
  376TIP3    H222544   6.206   0.632  12.736  0.3370 -1.0736 -1.4512
  377TIP3   OH222545   0.099   3.084  14.403  0.0718  0.1492  0.3595
  377TIP3    H122546   0.134   3.004  14.364  0.0016 -0.1751  0.9428
  377TIP3    H222547   0.129   3.154  14.346  2.4553 -0.0173  1.2969
  378TIP3   OH222548   1.263   1.495  14.768 -0.1282 -0.1431 -0.7088
  378TIP3    H122549   1.260   1.586  14.800  0.2939 -0.1701 -0.5910
  378TIP3    H222550   1.271   1.442  14.848  3.6477 -0.0929 -0.8881
  379TIP3   OH222551   5.860   3.894  16.646 -0.4817 -0.1241 -0.1291
  379TIP3    H122552   5.790   3.837  16.678  1.1040 -2.1997 -0.2004
  379TIP3    H222553   5.896   3.934  16.725  0.1193 -1.3094  0.2127
  380TIP3   OH222554   0.524   1.153  12.816  0.4459  1.0256  0.0026
  380TIP3    H122555   0.555   1.112  12.735  1.1911 -0.9148  1.2053
  380TIP3    H222556   0.479   1.082  12.863 -0.4886  2.2639  1.0408
  381TIP3   OH222557   5.577   4.612  12.336 -0.3815 -0.0065 -0.0543
  381TIP3    H122558   5.596   4.529  12.293  1.0103  1.3672 -2.2561
  381TIP3    H222559   5.584   4.677  12.267 -0.8080  2.0370  1.7298
  382TIP3   OH222560   4.730   0.905  12.057 -0.4832  0.0811  0.5324
  382TIP3    H122561   4.704   0.826  12.010  0.2993 -0.3119  0.7349
  382TIP3    H222562   4.706   0.977  11.999  1.1722 -0.4100 -0.8680
  383TIP3   OH222563   1.965   0.799  15.618  0.8726  0.3306  0.2629
  383TIP3    H122564   1.906   0.871  15.640 -2.7612 -2.4094  0.3758
  383TIP3    H222565   1.962   0.792  15.523  1.2029  0.3071  0.2511
  384TIP3   OH222566   4.238   5.605   5.558  0.0365 -0.0071 -0.9206
  384TIP3    H122567   4.176   5.620   5.630 -0.7267  2.5530 -1.9870
  384TIP3    H222568   4.322   5.593   5.601 -1.0502 -3.4981  0.5829
  385TIP3   OH222569   3.536   0.257  16.013  0.0056 -0.0542 -0.4162
  385TIP3    H122570   3.444   0.258  15.987 -0.0880  1.0006 -0.0762
  385TIP3    H222571   3.537   0.298  16.099  0.9670  1.3390 -1.0520
  386TIP3   OH222572   3.228   3.373  11.347  0.0246  0.8964  0.5227
  386TIP3    H122573   3.299   3.406  11.403  1.4098 -2.7682  1.1789
  386TIP3    H222574   3.266   3.374  11.259 -0.1659  1.5292  0.4397
  387TIP3   OH222575   3.753   0.893  11.452 -0.0446  0.3738  0.0011
  387TIP3    H122576   3.734   0.982  11.419  1.3969  0.2829 -1.1984
  387TIP3    H222577   3.680   0.840  11.421  0.0368  0.7944 -0.9533
  388TIP3   OH222578   0.607   5.399  16.430  0.3543 -0.1995  0.5984
  388TIP3    H122579   0.624   5.378  16.521  1.0106 -1.2051  0.2583
  388TIP3    H222580   0.690   5.434  16.397 -0.0750  0.8320  0.5505
  389TIP3   OH222581   1.139   5.453  13.519  0.1654 -0.1665 -0.1642
  389TIP3    H122582   1.083   5.503  13.579  2.1209 -0.8448  2.4127
  389TIP3    H222583   1.191   5.518  13.474  0.4302  0.2832  0.7703
  390TIP3   OH222584   3.595   2.884   3.439  0.1022 -0.7416  0.2008
  390TIP3    H122585   3.625   2.845   3.357  2.1123  0.5639  0.2506
  390TIP3    H222586   3.666   2.867   3.501  0.9145  2.5306  0.3194
  391TIP3   OH222587   0.776   1.657   1.547  0.0017  0.4249  0.5282
  391TIP3    H122588   0.765   1.627   1.637  0.8050 -0.0429  0.4844
  391TIP3    H222589   0.862   1.700   1.547 -0.6783  1.8636  0.3511
  392TIP3   OH222590   6.496   2.631   0.763 -0.1410 -0.3775 -0.8538
  392TIP3    H122591   6.431   2.699   0.782 -0.7647 -0.9300 -0.9973
  392TIP3    H222592   6.470   2.556   0.816 -1.1113 -1.4701 -2.7795
  393TIP3   OH222593   2.368   4.141  15.528  0.7695 -0.2176  0.0976
  393TIP3    H122594   2.428   4.165  15.598  1.0764  0.3647 -0.3550
  393TIP3    H222595   2.424   4.127  15.452  0.3087  0.6955 -0.4225
  394TIP3   OH222596   1.068   5.004  13.620  0.4007 -0.3486 -1.2768
  394TIP3    H122597   1.022   4.968  13.696  0.5266  1.7869 -0.0906
  394TIP3    H222598   1.069   4.933  13.556 -0.2595 -2.0311  0.4798
  395TIP3   OH222599   6.387   4.638   3.437  0.6138  0.0048  0.5249
  395TIP3    H122600   6.464   4.581   3.438 -0.1755 -1.4279 -3.4712
  395TIP3    H222601   6.314   4.580   3.456  0.0647  0.1509 -0.9996
  396TIP3   OH222602   1.850   2.542  11.385  0.8348 -0.6425  0.0185
  396TIP3    H122603   1.802   2.618  11.418 -1.4836 -1.8197 -0.4379
  396TIP3    H222604   1.942   2.564  11.399  0.2175  1.9026  0.5936
  397TIP3   OH222605   3.243   0.986  10.756 -0.5917  0.1944 -0.1154
  397TIP3    H122606   3.318   0.989  10.697 -2.0141 -1.0775 -2.1274
  397TIP3    H222607   3.282   0.984  10.844  1.6681  0.4525 -1.0385
  398TIP3   OH222608   6.781   0.444  11.561  0.1018 -0.3704 -0.1783
  398TIP3    H122609   6.839   0.511  11.598  0.5697 -0.9649  0.1746
  398TIP3    H222610   6.743   0.486  11.484 -0.0715  0.5154  0.3648
  399TIP3   OH222611   0.731   4.811   1.245  0.5203  0.0120  0.1458
  399TIP3    H122612   0.735   4.735   1.187  1.0066  2.2763 -3.0570
  399TIP3    H222613   0.644   4.847   1.230  1.6314  2.2475 -1.6202
  400TIP3   OH222614   4.282   1.474  15.937  0.0608  0.2176 -0.1019
  400TIP3    H122615   4.334   1.554  15.932  0.7316 -0.2043 -0.0342
  400TIP3    H222616   4.255   1.470  16.029 -1.0344  1.0078 -0.3684
  401TIP3   OH222617   4.358   4.111   5.179 -0.5931  0.6168  0.5754
  401TIP3    H122618   4.332   4.187   5.126 -1.1289  1.1266  1.5379
  401TIP3    H222619   4.358   4.038   5.118 -1.6733  1.1011 -0.0415
  402TIP3   OH222620   6.392   5.192  12.635  0.5925  0.5889  0.3838
  402TIP3    H122621   6.322   5.127  12.636 -0.0454  1.2439 -0.1588
  402TIP3    H222622   6.386   5.236  12.719 -1.3245  2.3379 -0.5762
  403TIP3   OH222623   2.596   1.194  12.868 -0.4667  0.1146  0.0659
  403TIP3    H122624   2.627   1.198  12.958 -1.1013  1.6105  0.2476
  403TIP3    H222625   2.658   1.135  12.824  1.6852  1.6924  0.8004
  404TIP3   OH222626   4.855   2.273   4.822 -0.6356  0.1424 -0.1101
  404TIP3    H122627   4.790   2.337   4.792 -0.4052  1.1337  1.3804
  404TIP3    H222628   4.886   2.308   4.906  0.5811 -1.1878  0.0347
  405TIP3   OH222629   2.966   4.147   4.766 -0.2958  0.3962 -0.1265
  405TIP3    H122630   3.008   4.100   4.838  1.1649 -1.9470 -2.3496
  405TIP3    H222631   2.886   4.097   4.748 -0.5831  0.8865 -0.2385
  406TIP3   OH222632   2.975   4.573  10.680 -0.5309 -0.0551 -1.0592
  406TIP3    H122633   3.066   4.586  10.654  0.3687 -1.3411  1.2169
  406TIP3    H222634   2.933   4.534  10.603  0.6524  1.0444 -2.3233
  407TIP3   OH222635   1.138   3.324   5.997  0.3557  0.5337 -0.4955
  407TIP3    H122636   1.137   3.310   6.092  0.4114 -0.4294 -0.6224
  407TIP3    H222637   1.059   3.375   5.979  0.1973  0.4809  0.0327
  408TIP3   OH222638   2.946   2.152   4.785  0.3796  0.3479 -0.1814
  408TIP3    H122639   2.941   2.102   4.703  2.2487 -0.1307 -0.0636
  408TIP3    H222640   2.878   2.115   4.841 -0.6422  0.3932 -1.3565
  409TIP3   OH222641   6.112   2.637   5.494 -0.1760 -0.5517  0.6285
  409TIP3    H122642   6.145   2.575   5.428  0.0965  1.2321 -0.9887
  409TIP3    H222643   6.034   2.593   5.530  0.1580 -1.9500 -0.2498
  410TIP3   OH222644   1.689   4.879   4.101 -0.6018 -0.3891  0.1427
  410TIP3    H122645   1.687   4.842   4.013 -0.7502  1.1718 -0.5443
  410TIP3    H222646   1.742   4.818   4.151  1.2805 -0.2402 -1.5445
  411TIP3   OH222647   0.930   5.012   5.952 -0.2668  0.0140 -0.0979
  411TIP3    H122648   1.010   5.048   5.914 -0.7599  1.3879  0.1094
  411TIP3    H222649   0.956   4.927   5.987  1.0608  0.3548 -0.2069
  412TIP3   OH222650   0.583   2.408   2.236  0.3794  1.1675  0.2053
  412TIP3    H122651   0.593   2.352   2.313  0.6428  0.0570 -0.6074
  412TIP3    H222652   0.554   2.349   2.167 -1.7801  2.4877 -0.1094
  413TIP3   OH222653   4.297   4.787   0.669 -0.0218  0.1063  0.0683
  413TIP3    H122654   4.331   4.735   0.742 -2.1416 -1.2024  0.2148
  413TIP3    H222655   4.203   4.796   0.687 -0.8085 -0.9789 -2.8515
  414TIP3   OH222656   5.171   1.244   4.299 -0.2627 -0.2184 -0.8435
  414TIP3    H122657   5.224   1.166   4.284  1.0432  0.2131  1.1806
  414TIP3    H222658   5.225   1.300   4.355 -1.6139  1.6537 -1.3062
  415TIP3   OH222659   3.084   6.635  15.089 -0.4087 -0.0815  0.5845
  415TIP3    H122660   3.001   6.624  15.136  0.0282 -0.3831  1.3105
  415TIP3    H222661   3.111   6.546  15.068 -0.4686  0.0406 -0.0214
  416TIP3   OH222662   3.724   5.562   5.637  0.0122  0.7643 -0.0507
  416TIP3    H122663   3.694   5.637   5.586  1.0127  1.9586  1.0255
  416TIP3    H222664   3.645   5.523   5.673 -0.6000  0.6723 -1.4469
  417TIP3   OH222665   4.072   5.317   1.942 -0.4359  0.4857 -0.4779
  417TIP3    H122666   3.978   5.303   1.940 -0.3653 -0.0213 -2.1766
  417TIP3    H222667   4.086   5.382   2.012 -1.7938 -0.9386  1.2119
  418TIP3   OH222668   5.891   3.624  16.568  0.0659  0.3239  0.2878
  418TIP3    H122669   5.797   3.631  16.551  0.3561 -0.1522 -1.7829
  418TIP3    H222670   5.909   3.693  16.632 -1.6172  0.7120  0.3864
  419TIP3   OH222671   3.581   5.678   3.909  0.0360 -0.1341  0.6778
  419TIP3    H122672   3.623   5.656   3.826  0.7566 -0.6273  1.1599
  419TIP3    H222673   3.487   5.671   3.891  0.1795 -0.1601 -0.1086
  420TIP3   OH222674   6.117   3.900  13.450 -0.1555 -0.6743 -0.2944
  420TIP3    H122675   6.097   3.988  13.419 -2.3160 -0.7136  0.7797
  420TIP3    H222676   6.121   3.909  13.545 -1.4384 -1.8784 -0.0950
  421TIP3   OH222677   1.450   5.898  16.226 -0.1666 -0.0457 -0.3390
  421TIP3    H122678   1.360   5.917  16.199  0.5909  3.1650 -1.1054
  421TIP3    H222679   1.453   5.928  16.317  0.4175  1.2577 -0.7582
  422TIP3   OH222680   5.466   0.535  12.167  0.0228  0.0891 -0.2861
  422TIP3    H122681   5.393   0.520  12.227 -0.2925 -0.4557 -0.7913
  422TIP3    H222682   5.448   0.476  12.093  0.4771  0.6496 -0.8471
  423TIP3   OH222683   1.581   2.142  13.707  0.9669  0.5359 -0.1945
  423TIP3    H122684   1.560   2.217  13.762 -0.4466 -0.9875  1.4822
  423TIP3    H222685   1.557   2.066  13.760 -0.5851 -1.0629 -2.9539
  424TIP3   OH222686   3.019   4.166   0.140  0.2725 -0.3103 -0.2927
  424TIP3    H122687   3.056   4.155   0.052 -2.0810 -1.2190 -1.2521
  424TIP3    H222688   3.029   4.080   0.181  3.7048  0.7281  1.4448
  425TIP3   OH222689   5.328   1.624  11.583  0.1828  0.3199  0.3475
  425TIP3    H122690   5.341   1.717  11.601  0.9710  0.5780 -1.4248
  425TIP3    H222691   5.415   1.586  11.590 -0.0279 -0.1733  0.3520
  426TIP3   OH222692   0.532   3.484  14.482  0.1106 -0.3151  0.0133
  426TIP3    H122693   0.491   3.570  14.491  0.0505 -0.1638 -1.4972
  426TIP3    H222694   0.594   3.480  14.555 -1.7843 -0.1321  1.7171
  427TIP3   OH222695   0.867   6.767  11.304  0.7640  0.1133  0.3549
  427TIP3    H122696   0.931   6.778  11.234  2.1831  0.2978  1.6284
  427TIP3    H222697   0.827   6.853  11.313 -2.2020 -0.7298 -2.6723
  428TIP3   OH222698   4.817   3.795   0.308 -0.0761  0.1703  0.1586
  428TIP3    H122699   4.870   3.854   0.363  1.4061 -1.3829  0.4716
  428TIP3    H222700   4.869   3.784   0.229  0.2176 -1.5356  0.5552
  429TIP3   OH222701   1.397   6.592  11.814 -0.0209  0.1074 -0.0065
  429TIP3    H122702   1.368   6.527  11.750 -0.6977  0.9559 -0.5777
  429TIP3    H222703   1.339   6.667  11.801  0.4838  0.6810  0.9166
  430TIP3   OH222704   2.777   5.862   6.392 -0.1440  0.2908 -0.1114
  430TIP3    H122705   2.812   5.781   6.429  2.2660  1.2542 -0.0405
  430TIP3    H222706   2.776   5.923   6.466 -2.2822  0.2827 -0.0797
  431TIP3   OH222707   4.240   2.631  13.339 -0.5433 -0.1880 -0.1738
  431TIP3    H122708   4.245   2.727  13.341  0.8616 -0.1287 -2.5062
  431TIP3    H222709   4.149   2.611  13.359 -0.9978  1.6752 -0.2061
  432TIP3   OH222710   0.216   4.691  16.611  0.0880 -0.1668 -0.5481
  432TIP3    H122711   0.121   4.687  16.613  0.0654 -1.7688  2.6512
  432TIP3    H222712   0.237   4.783  16.624 -0.9642  0.2998 -1.9708
  433TIP3   OH222713   4.285   6.623  11.882 -0.1225  0.1687 -0.2784
  433TIP3    H122714   4.284   6.528  11.887 -0.9681  0.2270  4.4975
  433TIP3    H222715   4.377   6.647  11.896 -0.4003  0.0019  2.1681
  434TIP3   OH222716   1.940   2.647   3.617  0.2760  0.6556 -0.3130
  434TIP3    H122717   1.873   2.578   3.623  1.6789 -0.7119  0.2360
  434TIP3    H222718   2.000   2.615   3.549  0.3860  1.8771 -0.8085
  435TIP3   OH222719   3.394   6.713  16.672  0.0635 -0.3319 -0.1716
  435TIP3    H122720   3.483   6.694  16.643  0.4742 -0.2483  0.9574
  435TIP3    H222721   3.345   6.632  16.656  0.1008 -0.0745 -1.6560
  436TIP3   OH222722   5.782   1.593  14.635  0.4164 -0.0052 -0.2761
  436TIP3    H122723   5.696   1.574  14.670 -0.6143 -0.0950 -2.6332
  436TIP3    H222724   5.841   1.592  14.711 -1.5438 -0.4992  1.3019
  437TIP3   OH222725   4.230   2.009   0.258 -0.1924  0.5074  0.4588
  437TIP3    H122726   4.292   2.001   0.185 -0.5115  0.1050  0.2294
  437TIP3    H222727   4.273   1.963   0.331  0.1905  1.0341  0.5712
  438TIP3   OH222728   6.057   6.695   5.076  0.1322 -0.0636  0.1669
  438TIP3    H122729   6.143   6.652   5.074  1.0090  1.4887  1.5708
  438TIP3    H222730   6.033   6.705   4.984 -0.4712 -4.0578 -0.2857
  439TIP3   OH222731   5.666   0.819   3.071  0.4585 -0.2954 -0.2946
  439TIP3    H122732   5.728   0.853   3.135 -2.6445  0.6776  2.4903
  439TIP3    H222733   5.646   0.893   3.014 -0.4363  0.3199  0.7928
  440TIP3   OH222734   5.121   3.812   3.114 -0.1033 -0.0797  0.2357
  440TIP3    H122735   5.197   3.819   3.172  0.4632  1.8411 -0.6465
  440TIP3    H222736   5.078   3.731   3.141  0.8915  0.0221  2.4065
  441TIP3   OH222737   4.083   6.494   0.568 -0.5454  0.8070  0.7240
  441TIP3    H122738   4.174   6.516   0.588  0.2595 -0.6892 -0.9588
  441TIP3    H222739   4.034   6.519   0.646  1.2645  1.8782  1.5820
  442TIP3   OH222740   4.042   5.500  11.522 -0.2349  0.0232 -0.1286
  442TIP3    H122741   4.108   5.466  11.582 -0.0895  1.3335  0.4750
  442TIP3    H222742   4.092   5.536  11.449 -0.3244  0.2518 -0.0776
  443TIP3   OH222743   2.322   0.853  16.184 -0.9187 -0.4092 -0.4060
  443TIP3    H122744   2.346   0.762  16.168 -1.0801 -0.3351 -1.0886
  443TIP3    H222745   2.398   0.890  16.230 -0.5777 -0.7104 -0.7198
  444TIP3   OH222746   3.248   5.471  14.509  0.1542 -0.0704  0.1111
  444TIP3    H122747   3.284   5.540  14.453  0.3925 -1.5668 -1.6776
  444TIP3    H222748   3.153   5.476  14.494  0.3221 -1.5692 -1.9038
  445TIP3   OH222749   2.246   4.241  14.685 -0.0253 -0.1241  0.4128
  445TIP3    H122750   2.273   4.243  14.777  2.4172 -0.4709 -0.2130
  445TIP3    H222751   2.326   4.216  14.637 -1.9117 -3.1585 -1.5439
  446TIP3   OH222752   5.031   5.494  12.038 -0.2765 -0.1483  0.2216
  446TIP3    H122753   5.115   5.482  12.081  0.1959 -1.8437 -1.0397
  446TIP3    H222754   5.052   5.516  11.947 -1.2277  1.0945  0.2693
  447TIP3   OH222755   3.507   2.581   5.085 -0.1715 -0.2414  0.3006
  447TIP3    H122756   3.543   2.569   4.997  0.8918  2.3393  0.2962
  447TIP3    H222757   3.413   2.595   5.071 -0.4850 -2.3619 -0.1181
  448TIP3   OH222758   0.310   3.186   4.962 -0.0463 -0.4428  0.1264
  448TIP3    H122759   0.229   3.229   4.934  1.1795  1.9096 -0.1085
  448TIP3    H222760   0.346   3.148   4.882  2.7796  5.1287 -1.8033
  449TIP3   OH222761   0.688   0.583   3.360  0.2149  0.0246  0.2644
  449TIP3    H122762   0.668   0.675   3.346 -2.5229 -0.3279  1.2660
  449TIP3    H222763   0.603   0.539   3.355  1.5327 -2.5823 -0.9540
  450TIP3   OH222764   3.215   5.480   0.309 -0.2578 -0.3298 -0.4492
  450TIP3    H122765   3.232   5.517   0.396  1.7148 -1.0720 -0.4877
  450TIP3    H222766   3.193   5.389   0.326 -1.2708 -0.1329 -0.6491
  451TIP3   OH222767   5.381   4.467   4.843  0.0594 -0.1057 -0.2759
  451TIP3    H122768   5.344   4.469   4.931 -1.7086 -0.1194 -0.9825
  451TIP3    H222769   5.414   4.556   4.829 -2.0819  0.6934 -0.5504
  452TIP3   OH222770   2.095   2.172  12.843 -0.7477  0.3158  0.0136
  452TIP3    H122771   2.158   2.119  12.892 -0.0222  0.7752 -0.4095
  452TIP3    H222772   2.082   2.250  12.897 -0.0342  0.7701 -0.4567
  453TIP3   OH222773   4.917   2.224  16.050 -0.0975 -0.1496 -0.0505
  453TIP3    H122774   5.008   2.196  16.049 -0.5632 -1.7787 -0.9488
  453TIP3    H222775   4.871   2.152  16.094 -1.0520  0.2363 -0.4007
  454TIP3   OH222776   0.613   2.339  13.814  0.6077 -0.5816 -0.5517
  454TIP3    H122777   0.621   2.434  13.813 -1.0971 -0.2719  2.1848
  454TIP3    H222778   0.585   2.315  13.726  0.9219  1.4623 -1.2452
  455TIP3   OH222779   6.230   1.152  12.150  0.3162  0.1845  0.7990
  455TIP3    H122780   6.273   1.068  12.132 -0.2575  0.2559 -1.1001
  455TIP3    H222781   6.221   1.155  12.245 -0.7592 -2.4646  0.8489
  456TIP3   OH222782   6.238   4.603   4.895  0.1450 -0.2643  0.2455
  456TIP3    H122783   6.175   4.664   4.933  0.2585  0.6598 -0.9797
  456TIP3    H222784   6.186   4.528   4.867 -0.5038  0.6343 -1.0726
  457TIP3   OH222785   3.905   0.530  11.074  0.3154  0.0103 -0.1369
  457TIP3    H122786   3.953   0.449  11.091  0.0834 -0.0537  0.2295
  457TIP3    H222787   3.855   0.512  10.994  1.0111  0.1292 -0.6018
  458TIP3   OH222788   1.999   4.432   1.507  0.0358 -0.5444 -0.6997
  458TIP3    H122789   1.989   4.435   1.412 -2.5072 -1.8912 -0.5564
  458TIP3    H222790   1.910   4.441   1.541  1.0486  2.4085  1.7196
  459TIP3   OH222791   5.520   2.887  16.337  0.3545  0.1333  0.6516
  459TIP3    H122792   5.560   2.936  16.266  0.0111  1.5545  1.4093
  459TIP3    H222793   5.426   2.903  16.328  0.2749 -0.0168  1.1683
  460TIP3   OH222794   1.459   5.020  12.264  0.0729 -0.7403  0.6449
  460TIP3    H122795   1.519   5.083  12.305  0.0202 -0.0128 -0.3487
  460TIP3    H222796   1.487   5.017  12.172 -0.3660 -1.6594  0.5310
  461TIP3   OH222797   5.987   6.422  12.898  0.4435  0.1326 -0.1890
  461TIP3    H122798   6.016   6.383  12.816  0.8189  0.5072 -0.2386
  461TIP3    H222799   5.893   6.404  12.902  0.7478 -1.5809  0.2324
  462TIP3   OH222800   4.361   5.684   3.053  0.2673  0.1065  0.0668
  462TIP3    H122801   4.366   5.761   2.998  0.1488  0.5142  0.6160
  462TIP3    H222802   4.434   5.694   3.115  0.0061 -0.0149  0.3985
  463TIP3   OH222803   3.563   3.864   2.677  0.5821 -0.1576  0.6766
  463TIP3    H122804   3.551   3.770   2.684  0.1116 -0.4335 -2.3088
  463TIP3    H222805   3.475   3.901   2.682  0.5693 -0.0866  0.0843
  464TIP3   OH222806   5.944   5.094   0.938  0.0369  0.0397 -0.0428
  464TIP3    H122807   5.884   5.154   0.893  1.1442  1.6398  0.5421
  464TIP3    H222808   5.893   5.060   1.011 -0.2135  1.2921  0.3860
  465TIP3   OH222809   6.272   2.879   2.514 -0.3006  0.0205  0.3565
  465TIP3    H122810   6.232   2.868   2.600 -2.9515 -0.2898 -0.7921
  465TIP3    H222811   6.261   2.972   2.495 -1.7347 -0.2846 -0.4739
  466TIP3   OH222812   0.875   5.501   4.575  0.0288  0.0062  0.4631
  466TIP3    H122813   0.852   5.593   4.560 -1.8208 -0.2762  1.2039
  466TIP3    H222814   0.909   5.471   4.491  2.6137  1.8471  0.7514
  467TIP3   OH222815   1.436   4.242   4.940 -0.4523  0.1108 -0.6117
  467TIP3    H122816   1.457   4.160   4.984 -0.7395 -0.7607 -2.0593
  467TIP3    H222817   1.511   4.299   4.960 -0.4518 -0.3246  0.7645
  468TIP3   OH222818   0.767   4.419  15.257  0.7704 -0.8627  0.1254
  468TIP3    H122819   0.783   4.477  15.331 -0.1093 -2.0660  1.2960
  468TIP3    H222820   0.711   4.470  15.198  1.4384  0.0846  0.2764
  469TIP3   OH222821   2.961   2.214   2.490  0.3596 -0.2480  0.0668
  469TIP3    H122822   2.964   2.266   2.409  0.3573  0.5405  0.5707
  469TIP3    H222823   2.947   2.124   2.459 -0.3678  0.1348 -0.7821
  470TIP3   OH222824   2.680   0.373   6.187 -0.4409  0.0553 -0.0987
  470TIP3    H122825   2.681   0.432   6.112 -1.3390 -0.4853 -0.5527
  470TIP3    H222826   2.670   0.286   6.148  2.1720 -0.5973  0.4525
  471TIP3   OH222827   3.941   0.692   6.201  0.2711 -0.3822 -0.1000
  471TIP3    H122828   3.856   0.723   6.170 -0.2616 -1.9246 -0.2381
  471TIP3    H222829   3.941   0.598   6.185  2.1924 -0.3646 -0.5194
  472TIP3   OH222830   4.564   2.829   2.478  0.6645  0.1854  0.5730
  472TIP3    H122831   4.495   2.784   2.526 -0.5176 -1.7825 -2.6527
  472TIP3    H222832   4.625   2.759   2.453  1.4268  1.1627 -0.4005
  473TIP3   OH222833   5.405   6.555  15.678  0.2672  0.2537 -0.4058
  473TIP3    H122834   5.462   6.508  15.739  0.2936  0.2166 -0.4583
  473TIP3    H222835   5.317   6.547  15.715  0.4073  0.9864  0.0887
  474TIP3   OH222836   5.396   6.723   4.663  0.2184  0.5637  0.1247
  474TIP3    H122837   5.331   6.776   4.709 -0.5689  0.8112 -1.2283
  474TIP3    H222838   5.360   6.711   4.576  0.9326 -1.2515  0.0417
  475TIP3   OH222839   6.337   4.003   4.719  0.1201  0.2509  0.2912
  475TIP3    H122840   6.265   4.053   4.679  0.0389 -0.7115 -0.7945
  475TIP3    H222841   6.398   4.070   4.750 -0.9151  1.0682  0.6166
  476TIP3   OH222842   3.855   6.569  16.017 -0.2174 -0.5217  0.2426
  476TIP3    H122843   3.869   6.527  16.102 -0.2854 -2.8013 -0.7964
  476TIP3    H222844   3.768   6.607  16.023 -0.6380 -1.5427  0.8712
  477TIP3   OH222845   3.180   1.755  12.611 -0.0726 -0.2587 -0.3682
  477TIP3    H122846   3.116   1.707  12.664 -1.0171  1.7006  0.3821
  477TIP3    H222847   3.127   1.816  12.559  1.1404  2.0344  0.8998
  478TIP3   OH222848   1.477   2.353  15.166  0.2251  0.5058  0.1740
  478TIP3    H122849   1.559   2.310  15.188 -0.0958 -0.7879 -1.0871
  478TIP3    H222850   1.452   2.318  15.081 -1.9176  0.4235  0.7571
  479TIP3   OH222851   4.701   5.553  13.913 -0.3162 -0.3421  0.1341
  479TIP3    H122852   4.625   5.609  13.897 -0.0613  0.3061  1.0657
  479TIP3    H222853   4.693   5.482  13.850 -0.7745  0.6268 -0.9320
  480TIP3   OH222854   5.526   5.461   2.142 -0.4080 -0.1314 -0.3711
  480TIP3    H122855   5.567   5.380   2.111  0.0536 -0.4274  0.9757
  480TIP3    H222856   5.509   5.511   2.062  1.1835 -0.6628 -1.0793
  481TIP3   OH222857   6.051   0.762  16.573  0.1278 -0.4638  0.1960
  481TIP3    H122858   6.009   0.848  16.571 -0.0357 -0.5463 -1.1508
  481TIP3    H222859   5.982   0.703  16.604 -0.0353 -0.2426  0.2628
  482TIP3   OH222860   2.686   1.459  11.330 -0.2653 -0.4193  0.5092
  482TIP3    H122861   2.662   1.507  11.251 -2.0159  1.3680  2.0112
  482TIP3    H222862   2.688   1.367  11.302 -2.0564  0.0313 -1.3615
  483TIP3   OH222863   2.016   4.943  11.923 -0.5621 -0.5364  0.1734
  483TIP3    H122864   2.000   4.907  11.835  0.7517 -0.3862 -0.1453
  483TIP3    H222865   1.930   4.974  11.951 -1.0119 -0.5850 -1.0607
  484TIP3   OH222866   3.108   4.286  11.853 -0.4456  0.4338 -0.5766
  484TIP3    H122867   3.093   4.197  11.824 -2.7772  1.2795 -2.1992
  484TIP3    H222868   3.065   4.292  11.938 -0.4508  0.0941 -0.5550
  485TIP3   OH222869   3.927   3.317  16.963 -0.2905  0.1370  0.1675
  485TIP3    H122870   3.886   3.245  16.915  1.1512 -1.3530  1.1003
  485TIP3    H222871   3.888   3.313  17.050  0.0918  0.2240  0.3437
  486TIP3   OH222872   0.734   6.744  14.116 -0.1951  0.0155 -0.3400
  486TIP3    H122873   0.653   6.770  14.073 -1.0877 -0.8811  0.7610
  486TIP3    H222874   0.786   6.703  14.047 -0.6178  0.6691 -1.0673
  487TIP3   OH222875   4.987   0.033  11.447 -0.0643 -0.0147 -0.0031
  487TIP3    H122876   4.940   0.049  11.365 -0.5676 -3.3329 -0.4949
  487TIP3    H222877   5.072   0.000  11.420 -0.1663 -0.9608  0.7814
  488TIP3   OH222878   1.470   3.636  16.409 -0.2123 -0.1618 -0.0887
  488TIP3    H122879   1.435   3.554  16.375 -1.5560 -0.9179  2.8423
  488TIP3    H222880   1.547   3.611  16.461  1.3997  0.8780 -1.8395
  489TIP3   OH222881   1.582   0.852  13.108  0.2579  0.2860 -0.4396
  489TIP3    H122882   1.619   0.791  13.045 -1.4027  0.6337 -1.8331
  489TIP3    H222883   1.609   0.818  13.193  0.5752 -1.5707 -1.2305
  490TIP3   OH222884   0.061   4.735   4.565 -0.2458  0.7631  0.5603
  490TIP3    H122885   0.050   4.711   4.657 -3.9509 -1.4457 -0.2415
  490TIP3    H222886   0.087   4.654   4.522  2.5308  2.0039 -0.3311
  491TIP3   OH222887   6.496   1.507  16.319  0.5873 -0.3482 -0.7946
  491TIP3    H122888   6.552   1.443  16.275  2.9875  1.8899 -1.2634
  491TIP3    H222889   6.510   1.589  16.270 -1.2457  0.8875  0.6071
  492TIP3   OH222890   2.860   1.410  12.015 -0.2137 -0.2973  0.4052
  492TIP3    H122891   2.928   1.353  11.979  0.5752  1.3485 -0.8693
  492TIP3    H222892   2.797   1.419  11.944 -1.6428 -1.5205  1.4577
  493TIP3   OH222893   0.324   1.602   3.843  0.2941  0.1306 -0.0206
  493TIP3    H122894   0.309   1.511   3.816  1.8769 -0.1074 -0.1733
  493TIP3    H222895   0.295   1.654   3.768 -0.9822 -0.2068  0.2153
  494TIP3   OH222896   4.690   1.271   6.347 -0.6890  0.0897 -0.4855
  494TIP3    H122897   4.641   1.300   6.270  1.9630  1.3721 -1.8087
  494TIP3    H222898   4.718   1.182   6.325  1.1572  0.9027 -1.6767
  495TIP3   OH222899   6.717   0.475   4.959 -0.0369  0.1148 -0.8687
  495TIP3    H122900   6.698   0.407   5.024 -2.5588 -0.8610 -2.4801
  495TIP3    H222901   6.679   0.554   4.995  5.1258  1.6570  2.2733
  496TIP3   OH222902   0.482   6.583   0.377  0.7138 -0.2646  0.0354
  496TIP3    H122903   0.480   6.662   0.432  0.2613 -1.2030  1.4405
  496TIP3    H222904   0.468   6.615   0.288 -1.7870  1.0258  0.8168
  497TIP3   OH222905   6.546   3.487   1.873  0.2298  0.1375  0.7369
  497TIP3    H122906   6.640   3.495   1.890  0.2499 -0.1160  0.7604
  497TIP3    H222907   6.508   3.569   1.905  0.6357  0.9287 -0.7299
  498TIP3   OH222908   2.846   6.763  13.916  0.1729 -0.3569 -0.0593
  498TIP3    H122909   2.846   6.779  14.010 -2.4924 -1.6164  0.2648
  498TIP3    H222910   2.780   6.823  13.882  0.1764 -0.8130 -0.8997
  499TIP3   OH222911   2.226   1.664  16.431 -0.1277 -0.1551  0.2284
  499TIP3    H122912   2.174   1.707  16.498 -0.1268 -1.9691  1.4671
  499TIP3    H222913   2.189   1.575  16.426  1.1709 -0.6686 -0.7371
  500TIP3   OH222914   0.308   0.762   4.884  0.0227  0.1188 -0.3791
  500TIP3    H122915   0.215   0.756   4.863  0.0121 -0.8048 -0.1506
  500TIP3    H222916   0.319   0.700   4.956  1.4646 -2.6416 -2.7615
  501TIP3   OH222917   1.412   6.120   6.140 -0.3434  0.3574 -0.1315
  501TIP3    H122918   1.443   6.202   6.102 -0.1368  0.5740  0.4950
  501TIP3    H222919   1.474   6.101   6.210  0.2334 -0.8901 -0.9447
  502TIP3   OH222920   4.199   4.593   0.227 -0.2325  0.5017 -0.3651
  502TIP3    H122921   4.241   4.627   0.306 -0.7476  1.1555 -0.3678
  502TIP3    H222922   4.136   4.528   0.260 -1.1501  1.4725 -0.1447
  503TIP3   OH222923   1.076   0.118   3.515  0.0475 -0.3985  0.4058
  503TIP3    H122924   1.156   0.080   3.477  0.3733  1.1752 -0.5865
  503TIP3    H222925   1.102   0.146   3.603  1.0680  1.4024 -0.4027
  504TIP3   OH222926   1.497   6.753   4.988  0.6249  0.4457  0.2900
  504TIP3    H122927   1.432   6.720   5.051  1.0086 -2.3780 -0.6375
  504TIP3    H222928   1.579   6.752   5.037  1.0169 -2.2539 -0.2699
  505TIP3   OH222929   2.361   3.042   5.872 -0.5124  0.6028 -0.0324
  505TIP3    H122930   2.378   3.131   5.841 -1.8060  0.6647 -0.6578
  505TIP3    H222931   2.447   3.002   5.879 -0.0630  0.6278 -3.6871
  506TIP3   OH222932   6.696   3.741  14.901  0.0140 -0.7046 -0.2541
  506TIP3    H122933   6.728   3.654  14.875 -0.3288 -0.5199 -1.3827
  506TIP3    H222934   6.725   3.752  14.991  2.5873 -0.8111 -0.9740
  507TIP3   OH222935   0.261   1.750  12.098  0.1621 -0.0897 -0.2060
  507TIP3    H122936   0.327   1.791  12.152  1.5305 -2.0109 -0.3230
  507TIP3    H222937   0.287   1.770  12.008 -0.7930  1.1223 -0.2464
  508TIP3   OH222938   0.069   1.321  11.295  0.0693 -0.3389  0.2442
  508TIP3    H122939   0.003   1.360  11.237 -0.5208  0.8239  1.6238
  508TIP3    H222940   0.020   1.255  11.345  0.5397 -1.2267 -0.4269
  509TIP3   OH222941   1.394   0.661  13.399 -0.5519 -0.3829  0.3540
  509TIP3    H122942   1.325   0.682  13.463  0.2298  1.5712  0.6116
  509TIP3    H222943   1.413   0.744  13.356  1.1451 -1.0343 -0.2202
  510TIP3   OH222944   2.960   2.267   3.828  0.8487  0.0876  0.5074
  510TIP3    H122945   3.013   2.284   3.750 -0.9521 -2.8534 -1.5592
  510TIP3    H222946   2.952   2.172   3.832 -1.8912  0.2828  2.3516
  511TIP3   OH222947   1.557   5.572   0.210 -0.4037 -0.3524  0.1948
  511TIP3    H122948   1.548   5.478   0.223 -0.9735 -0.4262 -0.6182
  511TIP3    H222949   1.469   5.606   0.228 -0.9628 -0.3436 -2.2518
  512TIP3   OH222950   6.085   3.870   6.163 -0.5574 -0.0277 -0.1210
  512TIP3    H122951   6.135   3.948   6.137 -1.4700  1.0175  1.1751
  512TIP3    H222952   5.997   3.902   6.180 -0.9926 -1.3812  0.3070
  513TIP3   OH222953   3.761   3.341   3.521 -0.2001 -0.0971 -0.5534
  513TIP3    H122954   3.842   3.389   3.506 -0.9987  1.3952 -0.2392
  513TIP3    H222955   3.784   3.275   3.587  0.2734  1.7046  1.1779
  514TIP3   OH222956   0.404   3.946  15.025 -0.3392 -0.8814  0.8159
  514TIP3    H122957   0.357   3.904  14.953  0.8275 -0.3345 -0.2950
  514TIP3    H222958   0.336   3.993  15.074 -0.8054  1.6133 -1.9340
  515TIP3   OH222959   1.318   6.097  14.154  0.4516 -0.1438  0.4062
  515TIP3    H122960   1.395   6.133  14.109  0.0848  2.5434  1.7205
  515TIP3    H222961   1.344   6.090  14.245 -0.4938 -0.3067  0.6744
  516TIP3   OH222962   1.880   5.094   2.523 -0.2050  0.2632  0.3839
  516TIP3    H122963   1.950   5.139   2.569 -0.6580 -0.2604  1.6408
  516TIP3    H222964   1.898   5.109   2.431  0.1298  2.2913  0.7305
  517TIP3   OH222965   2.222   1.084  10.693  0.1870  0.7126  0.4895
  517TIP3    H122966   2.152   1.133  10.650  0.3355  0.1514 -0.4229
  517TIP3    H222967   2.302   1.133  10.673  0.5087 -0.4643 -1.4564
  518TIP3   OH222968   4.925   5.499  11.569  0.1107  0.3219 -0.2937
  518TIP3    H122969   4.945   5.544  11.487 -0.3761 -0.0938 -0.6451
  518TIP3    H222970   4.898   5.411  11.542 -2.4683  0.9134  0.1221
  519TIP3   OH222971   1.503   5.577   3.791  0.1708  0.2059 -0.1437
  519TIP3    H122972   1.552   5.556   3.711 -2.6171 -1.1774 -1.6423
  519TIP3    H222973   1.499   5.672   3.792  0.3466  0.2515 -1.6203
  520TIP3   OH222974   1.225   4.128  12.652  0.2612  0.2585  0.0128
  520TIP3    H122975   1.217   4.033  12.649 -1.3583  0.2758  1.7675
  520TIP3    H222976   1.178   4.159  12.575 -0.1444 -0.3329  0.0170
  521TIP3   OH222977   2.688   2.190   3.634  0.0500 -0.2212 -0.2446
  521TIP3    H122978   2.658   2.141   3.711  0.5665  1.2250  0.9331
  521TIP3    H222979   2.781   2.168   3.628  0.0073 -0.3429 -0.4873
  522TIP3   OH222980   2.456   4.402  11.293 -0.5083 -0.1564 -0.1513
  522TIP3    H122981   2.488   4.312  11.288  0.0724 -0.1992  2.6591
  522TIP3    H222982   2.530   4.452  11.328 -0.3654  1.7524 -2.8984
  523TIP3   OH222983   5.009   5.778   2.873  0.3331  0.1179  0.4678
  523TIP3    H122984   5.002   5.683   2.887  0.0265  0.2813  1.4873
  523TIP3    H222985   5.094   5.789   2.830  0.1589 -0.6593 -0.0985
  524TIP3   OH222986   2.812   5.764  10.575  0.0605  0.6202 -0.3078
  524TIP3    H122987   2.776   5.779  10.662  0.3177  1.1433 -0.2903
  524TIP3    H222988   2.776   5.679  10.549  1.7555 -0.6073  1.1943
  525TIP3   OH222989   6.758   5.173   5.852  0.1535  0.3336 -0.5384
  525TIP3    H122990   6.680   5.194   5.902  0.5313  1.2388 -0.3061
  525TIP3    H222991   6.726   5.154   5.764 -0.1645  2.9322 -1.0563
  526TIP3   OH222992   6.236   1.127  13.159  0.0223  0.2266 -0.0856
  526TIP3    H122993   6.315   1.074  13.169  1.5446  2.6004  1.4838
  526TIP3    H222994   6.218   1.127  13.065  2.1720  0.0022 -0.5415
  527TIP3   OH222995   6.212   3.780   4.784 -0.7048  0.1082  0.9871
  527TIP3    H122996   6.245   3.868   4.769 -1.0528 -0.0470 -0.9750
  527TIP3    H222997   6.144   3.790   4.851 -0.0981  1.1645  1.4665
  528TIP3   OH222998   6.765   0.902   3.131  0.1286  0.5665  0.0480
  528TIP3    H122999   6.679   0.882   3.169  1.4623 -0.0919  2.9976
  528TIP3    H223000   6.826   0.889   3.203  3.0026 -1.2002 -2.4685
  529TIP3   OH223001   4.666   0.363  14.497 -0.0768  0.6339 -0.2580
  529TIP3    H123002   4.729   0.432  14.479  0.6858  0.7599  2.4840
  529TIP3    H223003   4.599   0.373  14.428 -0.0679  4.1777  0.0652
  530TIP3   OH223004   4.042   5.236   0.438  0.7582  0.5007  0.5601
  530TIP3    H123005   3.975   5.170   0.456 -0.8636  2.0228  0.3798
  530TIP3    H223006   4.040   5.247   0.343  2.9536 -1.0774  0.2653
  531TIP3   OH223007   6.352   3.030  11.031  0.2165  0.0467  0.1614
  531TIP3    H123008   6.413   3.097  11.000 -0.9100  1.8048  1.5061
  531TIP3    H223009   6.370   3.023  11.125 -1.4679  0.4520  0.5452
  532TIP3   OH223010   4.398   1.648   5.985  0.0393  0.0071  0.2897
  532TIP3    H123011   4.383   1.641   6.080 -1.7495 -0.5530 -0.0028
  532TIP3    H223012   4.456   1.575   5.965 -1.5184 -1.3787  0.6176
  533TIP3   OH223013   5.284   6.782   1.129  0.1712  0.0250  0.2285
  533TIP3    H123014   5.295   6.802   1.222  0.4084  1.0483 -0.0124
  533TIP3    H223015   5.349   6.714   1.111 -1.2022 -1.6312  1.2481
  534TIP3   OH223016   1.546   1.172  13.244  0.2487  0.0810  0.0300
  534TIP3    H123017   1.628   1.145  13.286  1.1564  0.0584 -1.6734
  534TIP3    H223018   1.571   1.246  13.188 -0.9079  0.0811 -0.5103
  535TIP3   OH223019   0.572   3.784  16.570  0.1088  0.0758 -0.0920
  535TIP3    H123020   0.497   3.748  16.523 -0.7521  1.4117  0.1965
  535TIP3    H223021   0.617   3.838  16.505 -0.5755  1.2061  0.3393
  536TIP3   OH223022   1.128   3.261   2.673  0.1182  0.0323  0.6890
  536TIP3    H123023   1.046   3.246   2.722 -0.2261  2.4714  1.0128
  536TIP3    H223024   1.118   3.350   2.638  1.5061 -0.6402 -1.6131
  537TIP3   OH223025   4.608   2.630  15.854 -0.2919  0.2000 -0.2174
  537TIP3    H123026   4.651   2.629  15.768  0.4613  2.1632  0.0840
  537TIP3    H223027   4.519   2.659  15.837  0.3021  2.1722 -0.2238
  538TIP3   OH223028   0.585   6.787  15.462  0.1566  0.1687 -0.1411
  538TIP3    H123029   0.524   6.764  15.532  0.0333 -0.4457 -0.4413
  538TIP3    H223030   0.581   6.883  15.458 -0.6476  0.1527 -0.0236
  539TIP3   OH223031   0.857   5.775   0.501  0.0635  0.5876  0.1335
  539TIP3    H123032   0.927   5.820   0.548  0.3360  1.5324 -1.1152
  539TIP3    H223033   0.800   5.739   0.570  2.0920 -0.7815  1.1872
  540TIP3   OH223034   4.508   0.122   2.992 -0.2894  0.0187 -0.0661
  540TIP3    H123035   4.539   0.059   2.928 -0.0432 -1.0286  1.0449
  540TIP3    H223036   4.414   0.130   2.974 -0.1391  0.1080 -0.8469
  541TIP3   OH223037   5.966   5.742  12.631 -0.0237 -0.2687  0.1218
  541TIP3    H123038   5.925   5.682  12.568 -0.7306 -0.7580  1.0314
  541TIP3    H223039   5.894   5.772  12.686  0.7056 -0.5576  1.2753
  542TIP3   OH223040   6.055   5.238  15.179 -0.4209  0.0913 -0.0311
  542TIP3    H123041   6.072   5.225  15.273  1.8891  0.1955 -0.3715
  542TIP3    H223042   6.006   5.320  15.175  1.5211  1.3960  1.0171
  543TIP3   OH223043   4.976   3.163   6.083 -0.1706  0.4015  0.4605
  543TIP3    H123044   5.020   3.236   6.040  0.3919  0.1094  0.5243
  543TIP3    H223045   5.046   3.099   6.100 -0.6687 -0.1942  0.3182
  544TIP3   OH223046   3.478   4.834   1.415 -0.7955 -0.0966  0.2324
  544TIP3    H123047   3.405   4.895   1.398 -0.9055 -0.4830 -0.7502
  544TIP3    H223048   3.518   4.867   1.495 -2.3352 -0.1308  1.0640
  545TIP3   OH223049   3.748   5.863   2.531 -0.1281  0.3605  0.1144
  545TIP3    H123050   3.840   5.844   2.548 -0.2494  0.3799  0.8467
  545TIP3    H223051   3.724   5.927   2.598 -0.3559  1.2906 -0.8409
  546TIP3   OH223052   6.388   6.316  14.168  0.3433  0.0275  0.2647
  546TIP3    H123053   6.364   6.369  14.244  0.4991 -0.4897  0.6823
  546TIP3    H223054   6.430   6.238  14.205  0.7781 -0.0522 -0.3684
  547TIP3   OH223055   3.612   4.043   0.645 -0.1841 -0.3363  0.7394
  547TIP3    H123056   3.646   3.991   0.572  1.7693  0.7134  0.8449
  547TIP3    H223057   3.518   4.046   0.630  0.1936  0.4131 -2.1471
  548TIP3   OH223058   0.905   4.486  12.607 -0.5789 -0.0716  0.7812
  548TIP3    H123059   0.846   4.411  12.599 -0.5049 -0.1402  0.8664
  548TIP3    H223060   0.915   4.519  12.518 -1.5878  0.5996  0.9016
  549TIP3   OH223061   0.506   2.886  15.942  0.1814  0.1574  0.4092
  549TIP3    H123062   0.587   2.930  15.919  1.5146 -1.4376  1.8195
  549TIP3    H223063   0.453   2.953  15.985  0.5155  1.3222 -0.9085
  550TIP3   OH223064   4.826   0.502   0.234  0.8804  0.0592 -0.3144
  550TIP3    H123065   4.734   0.476   0.237  0.1687  2.4576  0.0523
  550TIP3    H223066   4.869   0.444   0.297 -0.4493 -0.7479 -0.1088
  551TIP3   OH223067   6.620   2.262   2.683  0.2227 -0.7553 -0.4256
  551TIP3    H123068   6.549   2.254   2.620 -0.1312 -1.9123  0.0928
  551TIP3    H223069   6.671   2.181   2.672  2.7787  0.9354 -2.2997
  552TIP3   OH223070   3.756   1.632  17.106  0.7002 -0.2443 -0.8601
  552TIP3    H123071   3.811   1.704  17.136 -0.6632  0.7786 -0.7484
  552TIP3    H223072   3.681   1.631  17.166  0.1453 -1.0292 -1.5368
  553TIP3   OH223073   6.483   6.543   0.751 -0.1289 -0.5620 -0.1309
  553TIP3    H123074   6.500   6.543   0.657  0.6525 -0.8483  0.0001
  553TIP3    H223075   6.439   6.627   0.768 -2.5074 -1.5416 -1.1127
  554TIP3   OH223076   1.354   0.387   5.342 -0.0081 -0.0862 -0.2387
  554TIP3    H123077   1.371   0.455   5.407  0.6555 -1.1640  0.7423
  554TIP3    H223078   1.291   0.427   5.282 -0.0446  1.1999  0.6177
  555TIP3   OH223079   3.983   5.493   5.409  0.4727 -0.2183  0.1613
  555TIP3    H123080   3.928   5.566   5.438 -1.3970 -1.2248 -0.7139
  555TIP3    H223081   4.053   5.489   5.474 -0.4867  1.0891  1.3418
  556TIP3   OH223082   5.206   5.846   2.685 -0.0897  0.1191 -0.4498
  556TIP3    H123083   5.189   5.893   2.604 -1.4668 -0.5646 -0.5832
  556TIP3    H223084   5.269   5.900   2.732 -0.1097  1.0633 -1.4898
  557TIP3   OH223085   6.767   3.200  14.639 -0.0436  0.4601  0.4970
  557TIP3    H123086   6.804   3.150  14.566 -0.5224 -1.2658  1.3845
  557TIP3    H223087   6.674   3.180  14.637 -0.4668  2.3084  0.1646
  558TIP3   OH223088   1.755   6.511  11.751  0.3096 -0.5171  0.2021
  558TIP3    H123089   1.691   6.462  11.699 -1.0350  0.7758  0.5854
  558TIP3    H223090   1.834   6.512  11.696 -0.3621 -1.0863 -0.8215
  559TIP3   OH223091   6.086   0.577  11.700  0.8573 -0.1209  0.1695
  559TIP3    H123092   6.009   0.629  11.722  0.4955 -0.4135 -0.3891
  559TIP3    H223093   6.105   0.527  11.780  0.5063 -0.0080  0.3234
  560TIP3   OH223094   4.918   4.928  12.911  0.0594 -0.1240  0.3126
  560TIP3    H123095   4.957   4.960  12.829 -0.6397  0.1523  0.0815
  560TIP3    H223096   4.907   4.834  12.897  0.5642 -0.1902  0.3484
  561TIP3   OH223097   2.601   6.768   4.848 -0.9617 -0.2172  0.0161
  561TIP3    H123098   2.563   6.696   4.799  1.4531 -1.9055  0.4194
  561TIP3    H223099   2.692   6.742   4.861 -0.1065  2.7058  0.6264
  562TIP3   OH223100   2.392   0.309  12.166 -0.1308  0.7393  0.8580
  562TIP3    H123101   2.313   0.361  12.154  1.1649  2.5314 -0.3518
  562TIP3    H223102   2.390   0.244  12.096 -0.1918  1.2231  0.4100
  563TIP3   OH223103   4.647   2.804  11.249 -0.2215  0.3935  0.2497
  563TIP3    H123104   4.629   2.767  11.162  0.7734  0.1740  0.1316
  563TIP3    H223105   4.566   2.849  11.273 -0.4310  0.6500 -0.8943
  564TIP3   OH223106   0.945   0.057   5.931 -0.4549  0.5111 -0.7541
  564TIP3    H123107   1.027   0.079   5.885 -0.1938 -1.0131 -1.0738
  564TIP3    H223108   0.974   0.018   6.013 -0.6767 -3.2640 -2.3033
  565TIP3   OH223109   6.186   1.832   5.133  0.3619 -0.3257  0.1684
  565TIP3    H123110   6.218   1.873   5.052  2.8651  1.9657  2.1034
  565TIP3    H223111   6.162   1.906   5.189 -0.6853 -1.8058  1.7720
  566TIP3   OH223112   3.681   6.195   2.999 -0.0574 -0.8684  0.0633
  566TIP3    H123113   3.699   6.165   3.088  2.8944 -1.5274 -0.6329
  566TIP3    H223114   3.673   6.290   3.007 -0.3431 -0.9632  1.0964
  567TIP3   OH223115   6.052   3.367  15.097 -0.0678 -0.6676 -0.2968
  567TIP3    H123116   6.117   3.363  15.167  0.1945 -0.3202 -0.5168
  567TIP3    H223117   5.975   3.325  15.133 -0.5282  1.0648  0.8242
  568TIP3   OH223118   4.132   0.610   5.273 -0.6518  0.6101 -0.2430
  568TIP3    H123119   4.082   0.686   5.301 -1.5134 -0.4159  1.1369
  568TIP3    H223120   4.184   0.585   5.350  0.1876  0.2398 -0.9121
  569TIP3   OH223121   2.647   2.511   5.589 -0.8761 -0.1428  0.6080
  569TIP3    H123122   2.644   2.589   5.646  0.5169 -0.5307  1.2551
  569TIP3    H223123   2.735   2.475   5.603 -0.5857 -0.4172 -1.6021
  570TIP3   OH223124   0.930   3.757   0.767 -0.3571 -0.2905  0.0204
  570TIP3    H123125   1.018   3.769   0.804  0.2051  0.6055 -1.5005
  570TIP3    H223126   0.880   3.832   0.800 -0.2084 -0.1524 -0.0660
  571TIP3   OH223127   0.234   2.704   2.930 -0.1744 -0.3910  0.0949
  571TIP3    H123128   0.249   2.681   3.022 -3.1743 -0.6032  0.6363
  571TIP3    H223129   0.263   2.627   2.881  1.7577 -0.1555  0.7831
  572TIP3   OH223130   3.031   0.377  12.756 -0.3003  0.1806 -0.2559
  572TIP3    H123131   3.084   0.452  12.783  0.2338 -0.0379 -0.6680
  572TIP3    H223132   3.001   0.400  12.668  2.3702 -1.3142 -1.6940
  573TIP3   OH223133   4.162   1.203  13.524  0.7436  0.4396 -0.0318
  573TIP3    H123134   4.084   1.233  13.571  0.8143  1.4363 -0.5237
  573TIP3    H223135   4.234   1.218  13.585  0.4512 -1.6744  0.9299
  574TIP3   OH223136   5.512   3.174  11.666  0.4896  0.0598  0.0091
  574TIP3    H123137   5.487   3.265  11.651 -1.0252 -0.4836 -0.9401
  574TIP3    H223138   5.478   3.127  11.590 -1.4984 -1.7731  1.9119
  575TIP3   OH223139   5.938   1.439  16.193  0.2853  0.7325  0.4710
  575TIP3    H123140   6.003   1.444  16.124 -0.4376 -0.0328 -0.2921
  575TIP3    H223141   5.987   1.409  16.270  1.0357  1.2776  0.2184
  576TIP3   OH223142   0.851   3.844  15.461  0.1771 -0.3966 -0.5329
  576TIP3    H123143   0.796   3.770  15.437 -0.2248  0.0088 -0.8891
  576TIP3    H223144   0.818   3.873  15.546 -1.2577  0.8598 -1.4700
  577TIP3   OH223145   2.421   5.045  15.325  0.4260 -0.5005 -0.2026
  577TIP3    H123146   2.370   5.101  15.384 -1.4522 -3.0026  0.7229
  577TIP3    H223147   2.359   5.021  15.256  1.3269 -1.0729 -0.8250
  578TIP3   OH223148   5.246   4.416   5.110  0.1466  0.5241  0.6014
  578TIP3    H123149   5.237   4.377   5.197  0.4989  2.8493  1.7493
  578TIP3    H223150   5.159   4.450   5.089 -0.1273 -0.6751 -0.3326
  579TIP3   OH223151   6.286   4.733   3.141  0.4031 -0.2286  0.3402
  579TIP3    H123152   6.258   4.771   3.224  1.7629  1.2425  0.1600
  579TIP3    H223153   6.379   4.755   3.134  1.0682 -2.8535 -0.2185
  580TIP3   OH223154   0.051   6.205   5.398 -0.2763 -0.3071 -0.2307
  580TIP3    H123155   0.116   6.265   5.433 -1.0263  0.1547  0.3933
  580TIP3    H223156  -0.017   6.200   5.466 -0.8820 -0.7985 -0.8524
  581TIP3   OH223157   0.219   0.772  15.309  0.0672 -0.4387  0.4023
  581TIP3    H123158   0.304   0.767  15.353 -0.1039  0.1452  0.8170
  581TIP3    H223159   0.156   0.772  15.381 -0.1706  1.8709  0.2442
  582TIP3   OH223160   4.565   2.206   1.527  0.5662  0.1881 -0.0367
  582TIP3    H123161   4.641   2.227   1.473  0.7535 -1.0109 -0.2832
  582TIP3    H223162   4.597   2.209   1.617  0.9227 -0.3394 -0.1418
  583TIP3   OH223163   6.591   0.289  16.124  0.6907  0.2056 -0.8968
  583TIP3    H123164   6.514   0.341  16.102  2.3214  3.2182  0.0326
  583TIP3    H223165   6.586   0.277  16.219  1.2309  0.2098 -0.8660
  584TIP3   OH223166   2.286   3.884  14.801 -0.8891 -0.0270 -0.2879
  584TIP3    H123167   2.202   3.902  14.845 -0.7780 -0.3620  0.0682
  584TIP3    H223168   2.262   3.829  14.726 -0.8955 -0.8890  0.3281
  585TIP3   OH223169   2.451   4.705   3.978  1.0377 -0.3565 -0.2440
  585TIP3    H123170   2.435   4.639   4.045 -0.2079  0.6979  0.5504
  585TIP3    H223171   2.460   4.656   3.897  1.0171 -1.5465  0.4537
  586TIP3   OH223172   5.675   6.490  14.008 -0.0624 -0.2013  0.5027
  586TIP3    H123173   5.742   6.526  13.949 -1.0661 -0.8711 -1.1132
  586TIP3    H223174   5.700   6.398  14.019  0.0170 -0.1245  0.9992
  587TIP3   OH223175   5.663   2.484  12.669 -0.5888  0.0121 -0.3726
  587TIP3    H123176   5.644   2.391  12.681  0.4928 -0.0284  1.4063
  587TIP3    H223177   5.758   2.488  12.660 -0.5988  0.9655 -0.1712
  588TIP3   OH223178   0.816   2.586  14.614  0.1488  0.2346  1.0686
  588TIP3    H123179   0.739   2.583  14.557 -0.2862  0.2754  1.6542
  588TIP3    H223180   0.789   2.541  14.694  0.7264  0.2619  1.2841
  589TIP3   OH223181   3.794   4.268  13.632 -0.4491  0.0412  0.1775
  589TIP3    H123182   3.851   4.279  13.556 -1.8408 -1.5462 -1.1854
  589TIP3    H223183   3.712   4.309  13.607 -0.1122  1.9342  1.9549
  590TIP3   OH223184   1.848   4.754   1.452  0.5821  0.0449  0.5024
  590TIP3    H123185   1.943   4.740   1.442  0.6220  0.1713  0.6946
  590TIP3    H223186   1.825   4.704   1.530  0.4843 -0.0031  0.4432
  591TIP3   OH223187   0.329   5.143   1.973 -0.5989 -0.1247  0.0796
  591TIP3    H123188   0.373   5.178   1.896 -0.5122 -0.1627  0.1114
  591TIP3    H223189   0.400   5.120   2.033 -0.5564 -1.8920 -0.5939
  592TIP3   OH223190   5.879   4.543   4.029  0.1538  0.6371 -0.0009
  592TIP3    H123191   5.863   4.512   3.940  0.5973 -1.6062  0.6470
  592TIP3    H223192   5.969   4.577   4.027  0.6768 -0.6905 -0.1195
  593TIP3   OH223193   1.883   3.148   6.295 -0.2863  0.2733 -0.3746
  593TIP3    H123194   1.932   3.217   6.339  0.5024  0.1780 -1.0744
  593TIP3    H223195   1.826   3.112   6.362 -0.1728  1.1168  0.1833
  594TIP3   OH223196   1.849   3.747   3.623  0.1409  0.5462  0.3443
  594TIP3    H123197   1.903   3.671   3.602  2.0345  1.8139  0.3425
  594TIP3    H223198   1.909   3.807   3.667 -1.9501  0.8978  3.0227
  595TIP3   OH223199   2.076   4.917   4.967 -0.9921 -0.3091  0.2700
  595TIP3    H123200   2.019   4.846   4.937 -0.7743 -0.7803  0.9488
  595TIP3    H223201   2.085   4.903   5.061  0.4970 -0.4408  0.1383
  596TIP3   OH223202   6.620   4.836  15.856  0.6531  0.8330 -0.9154
  596TIP3    H123203   6.612   4.929  15.878  1.3994  0.5767  0.5782
  596TIP3    H223204   6.706   4.829  15.815  1.4766  0.5308  0.7644
  597TIP3   OH223205   5.760   6.188  11.932 -0.0267 -0.2370  0.3096
  597TIP3    H123206   5.821   6.178  11.859  0.2193 -0.4140  0.5329
  597TIP3    H223207   5.674   6.173  11.895  0.2441 -2.6909  0.4851
  598TIP3   OH223208   6.037   1.790  12.050  0.1659  0.3124  0.3320
  598TIP3    H123209   6.082   1.755  12.126  1.3105 -1.1830 -0.9547
  598TIP3    H223210   5.981   1.718  12.021  1.2645  0.0808 -1.3694
  599TIP3   OH223211   4.988   3.804   0.091  0.4409  0.0566  0.3302
  599TIP3    H123212   5.083   3.788   0.089  0.2986 -0.8092 -0.5906
  599TIP3    H223213   4.972   3.857   0.012  0.2996  1.1799  1.0896
  600TIP3   OH223214   0.143   0.434  12.793  0.1980 -0.1848  0.4654
  600TIP3    H123215   0.057   0.474  12.783 -0.1862 -1.2067 -0.4132
  600TIP3    H223216   0.125   0.340  12.803  1.2586 -0.5419 -0.7857
  601TIP3   OH223217   0.342   4.415   1.768  0.4013 -0.9540 -0.5926
  601TIP3    H123218   0.361   4.438   1.677 -1.4579 -2.2853 -1.3759
  601TIP3    H223219   0.250   4.439   1.780  0.8233 -0.0879  1.2125
  602TIP3   OH223220   1.805   2.899   4.304 -0.0059  0.4919 -0.1392
  602TIP3    H123221   1.775   2.821   4.257  0.0601  0.7494 -0.6129
  602TIP3    H223222   1.725   2.945   4.328 -0.0708  0.0131  0.6172
  603TIP3   OH223223   3.277   4.786  14.582  0.0094 -0.0484 -0.0349
  603TIP3    H123224   3.313   4.874  14.572 -0.8153  0.6483  2.3428
  603TIP3    H223225   3.186   4.800  14.609 -1.1102 -1.7268 -2.5367
  604TIP3   OH223226   5.522   2.181   0.503  0.1042  0.1264 -0.1202
  604TIP3    H123227   5.585   2.214   0.567 -0.7737  0.3211  0.6747
  604TIP3    H223228   5.526   2.086   0.513 -0.3769  0.1710  0.5892
  605TIP3   OH223229   1.796   5.660  15.309 -0.5459  0.2457 -0.2755
  605TIP3    H123230   1.730   5.662  15.240  0.0881 -0.1501 -0.8999
  605TIP3    H223231   1.812   5.567  15.325  0.3635  0.3283 -0.6269
  606TIP3   OH223232   1.173   3.273  12.590 -0.0009  0.1473 -0.2898
  606TIP3    H123233   1.102   3.215  12.616 -0.9075  1.3064 -0.1124
  606TIP3    H223234   1.144   3.360  12.617  1.6135  0.6123  0.0287
  607TIP3   OH223235   4.785   4.760  15.861 -0.0585  0.7481 -0.1316
  607TIP3    H123236   4.870   4.799  15.841  0.0020 -0.3855 -2.4521
  607TIP3    H223237   4.783   4.753  15.956  2.3145  1.0689 -0.0078
  608TIP3   OH223238   3.259   1.243  13.628 -0.6195  0.5830  0.0242
  608TIP3    H123239   3.278   1.331  13.596 -0.5643  0.2700 -0.8226
  608TIP3    H223240   3.336   1.192  13.606 -1.6348 -0.2647 -1.8225
  609TIP3   OH223241   1.977   6.447  15.791  0.2899 -0.0579  0.7121
  609TIP3    H123242   1.918   6.373  15.777  1.4633 -0.9463  0.2062
  609TIP3    H223243   1.920   6.523  15.802 -0.9366 -0.9779  0.8507
  610TIP3   OH223244   5.470   5.398   3.049 -0.1661  0.3746  0.4903
  610TIP3    H123245   5.505   5.355   3.127 -1.2579 -0.0088  0.7715
  610TIP3    H223246   5.375   5.393   3.058 -0.3342 -0.3860 -1.2502
  611TIP3   OH223247   3.140   2.559   0.832 -0.0225  1.2711  0.0230
  611TIP3    H123248   3.226   2.518   0.844 -1.4818 -1.8679  0.8858
  611TIP3    H223249   3.122   2.601   0.916  0.4631  1.6356 -0.0439
  612TIP3   OH223250   3.207   6.039  17.196  0.0857 -0.5516 -0.3985
  612TIP3    H123251   3.244   5.990  17.269  0.6767  1.2753  0.5919
  612TIP3    H223252   3.259   6.012  17.120  1.9400  0.2208  0.5362
  613TIP3   OH223253   3.967   5.651   1.855 -0.4858 -0.0217  0.1312
  613TIP3    H123254   3.895   5.666   1.793 -2.0018 -1.5997  1.4080
  613TIP3    H223255   4.045   5.676   1.807 -1.5095 -1.8205 -2.7079
  614TIP3   OH223256   6.463   2.070  13.399 -0.9259 -0.1049  0.6276
  614TIP3    H123257   6.478   1.983  13.362  0.0656  0.4780 -0.3964
  614TIP3    H223258   6.395   2.108  13.342 -2.8839 -0.9044  2.2827
  615TIP3   OH223259   1.535   6.393  13.690 -0.4578 -0.6486 -0.0423
  615TIP3    H123260   1.535   6.455  13.618 -1.0705  0.4497  0.8710
  615TIP3    H223261   1.625   6.392  13.722 -0.8129  1.2952  1.1698
  616TIP3   OH223262   0.814   6.246   1.523 -0.4451 -0.3785 -0.2291
  616TIP3    H123263   0.834   6.154   1.540 -0.9078 -0.3415  0.5763
  616TIP3    H223264   0.823   6.289   1.608 -0.1170  0.3449 -0.6220
  617TIP3   OH223265   3.042   3.783  10.669 -0.4359  0.3137  0.1046
  617TIP3    H123266   2.981   3.821  10.733 -3.5813 -1.2222 -1.7763
  617TIP3    H223267   3.097   3.857  10.642 -0.8424  1.5906  2.4769
  618TIP3   OH223268   2.575   0.414  11.772  0.3369 -0.1748  0.5486
  618TIP3    H123269   2.489   0.449  11.748  0.3055 -1.0781 -0.7988
  618TIP3    H223270   2.614   0.482  11.826 -1.3109  0.1584  1.3858
  619TIP3   OH223271   0.175   6.250  14.812 -0.2572  0.1573  0.2376
  619TIP3    H123272   0.142   6.321  14.756  0.3976  0.3133  0.0343
  619TIP3    H223273   0.251   6.216  14.764 -1.3538 -1.6204 -0.3676
  620TIP3   OH223274   3.473   6.267  12.066  0.4950  0.3961  0.3428
  620TIP3    H123275   3.513   6.234  12.146 -0.4518 -2.7220 -0.3250
  620TIP3    H223276   3.384   6.230  12.067  0.5290  0.0536 -2.2085
  621TIP3   OH223277   1.443   5.609   2.908  0.1324 -0.4551 -0.2462
  621TIP3    H123278   1.424   5.647   2.822 -1.2487  1.7834  0.9441
  621TIP3    H223279   1.438   5.684   2.968 -1.3236 -2.3043  2.1097
  622TIP3   OH223280   0.829   4.647  12.826 -0.3109  0.3965 -0.2263
  622TIP3    H123281   0.910   4.662  12.875 -0.7923 -1.8683  1.4247
  622TIP3    H223282   0.856   4.604  12.745  0.1134 -1.5175  0.8817
  623TIP3   OH223283   3.535   5.745  12.175  0.4983  0.1941  0.0618
  623TIP3    H123284   3.539   5.660  12.132 -0.4213  0.9696 -1.6599
  623TIP3    H223285   3.626   5.769  12.188  0.7782 -0.7215 -0.1205
  624TIP3   OH223286   1.517   2.227   1.598 -0.0662 -0.0248 -0.0469
  624TIP3    H123287   1.472   2.306   1.569 -1.8152 -1.3952 -1.2676
  624TIP3    H223288   1.555   2.190   1.518  0.2046 -0.7400  0.4049
  625TIP3   OH223289   1.802   1.277   6.501  0.5024 -0.0312  0.1793
  625TIP3    H123290   1.730   1.336   6.522  0.7818  0.1995  0.4956
  625TIP3    H223291   1.803   1.213   6.572 -0.5658 -1.1565 -0.7699
  626TIP3   OH223292   6.518   2.838  12.619  0.1161  0.4389  0.1927
  626TIP3    H123293   6.600   2.883  12.638 -0.4553  1.2246  0.8566
  626TIP3    H223294   6.518   2.829  12.523  1.7509 -1.1271  0.2688
  627TIP3   OH223295   2.790   4.568   1.749  0.2648  0.3112 -0.5567
  627TIP3    H123296   2.874   4.595   1.712 -0.4420  3.0177 -0.3791
  627TIP3    H223297   2.726   4.626   1.708 -1.2794 -0.4301  0.7118
  628TIP3   OH223298   0.140   4.790  13.725 -0.3860  0.1801  0.3344
  628TIP3    H123299   0.122   4.883  13.727 -0.7886  0.0875  1.8822
  628TIP3    H223300   0.236   4.784  13.733 -0.0390  0.4865 -2.3960
  629TIP3   OH223301   2.619   4.314   2.445 -0.1442 -0.4613 -0.4434
  629TIP3    H123302   2.676   4.312   2.368  1.1337 -2.6835  0.4697
  629TIP3    H223303   2.599   4.407   2.457  2.8257  0.4074 -1.1908
  630TIP3   OH223304   3.408   4.892   0.905 -0.0227 -0.2671 -0.0723
  630TIP3    H123305   3.336   4.954   0.911 -1.1854 -1.6445  1.1966
  630TIP3    H223306   3.456   4.902   0.988 -0.6429 -1.4759  0.4711
  631TIP3   OH223307   4.071   0.168  15.356  0.1691 -0.4839  0.3082
  631TIP3    H123308   4.062   0.216  15.439  1.4645 -1.2629  0.9234
  631TIP3    H223309   3.987   0.124  15.344 -0.3441  0.3580  0.7340
  632TIP3   OH223310   2.101   6.397  15.096  0.4089  0.3977  0.3190
  632TIP3    H123311   2.162   6.327  15.122  1.0216  1.1055  0.8545
  632TIP3    H223312   2.024   6.351  15.063  1.2619 -0.5262 -0.4491
  633TIP3   OH223313   0.071   4.455  11.681  0.3413  0.1437 -0.1513
  633TIP3    H123314   0.142   4.453  11.745 -1.6897  1.2757  2.3572
  633TIP3    H223315  -0.003   4.414  11.727 -1.3424  1.3910 -1.6114
  634TIP3   OH223316   5.785   5.387  11.835  0.1959  0.3324  0.2633
  634TIP3    H123317   5.756   5.323  11.770  0.0067 -1.9212  2.4472
  634TIP3    H223318   5.723   5.460  11.825 -0.2378 -0.2383 -1.5902
  635TIP3   OH223319   2.306   0.676   5.657  0.7003 -0.3544 -0.1959
  635TIP3    H123320   2.325   0.766   5.630 -0.0592 -0.3207 -0.6249
  635TIP3    H223321   2.318   0.624   5.577  1.9445 -0.7702  0.2301
  636TIP3   OH223322   5.004   2.966  11.857  0.1927  0.0444 -0.5939
  636TIP3    H123323   5.078   2.934  11.909  0.2844  1.1321 -0.0417
  636TIP3    H223324   4.978   2.890  11.804  0.5038 -0.9005  0.5668
  637TIP3   OH223325   0.163   2.685   1.991 -0.0694 -0.3068 -0.2850
  637TIP3    H123326   0.231   2.715   2.051 -0.6881 -0.3868  0.4708
  637TIP3    H223327   0.141   2.597   2.022  0.3742 -0.7999 -1.3095
  638TIP3   OH223328   4.026   4.232   2.292 -0.0999  0.8667  0.1276
  638TIP3    H123329   4.082   4.169   2.247 -2.4282 -1.3104  0.0247
  638TIP3    H223330   3.981   4.180   2.359  1.0084  3.3825  3.0181
  639TIP3   OH223331   0.686   4.444  11.650  0.2528  0.3947  0.3538
  639TIP3    H123332   0.629   4.412  11.720 -0.2458 -1.2364 -0.7269
  639TIP3    H223333   0.769   4.397  11.663 -0.1454 -0.6356 -0.6450
  640TIP3   OH223334   6.087   3.641   6.005 -0.7222 -0.4711 -0.1021
  640TIP3    H123335   6.079   3.712   6.069 -2.1959 -2.0466  1.5576
  640TIP3    H223336   6.177   3.612   6.013 -0.8527 -0.5693  1.2145
  641TIP3   OH223337   1.191   5.639   1.915 -0.1919  0.2844  0.1486
  641TIP3    H123338   1.159   5.567   1.861  1.3008  0.3121 -0.8203
  641TIP3    H223339   1.118   5.701   1.917  0.0652  0.8074 -2.8170
  642TIP3   OH223340   4.901   5.631  11.343  0.2980  0.3065  0.2394
  642TIP3    H123341   4.857   5.711  11.373  1.9096  1.3007  0.1048
  642TIP3    H223342   4.850   5.602  11.268 -0.2393  1.2892  0.2033
  643TIP3   OH223343   5.293   2.324  14.503 -0.5097  0.2912 -0.8259
  643TIP3    H123344   5.353   2.370  14.562 -0.7379 -0.1812 -0.2133
  643TIP3    H223345   5.347   2.256  14.462 -0.4908  0.2434 -0.7207
  644TIP3   OH223346   2.313   1.173   1.061  0.3162  0.0137  0.3112
  644TIP3    H123347   2.261   1.235   1.113 -1.5950 -0.1162 -1.3179
  644TIP3    H223348   2.393   1.160   1.112 -0.1750  2.1241  1.7576
  645TIP3   OH223349   6.401   3.858  12.773 -0.1977 -0.7832  0.5586
  645TIP3    H123350   6.368   3.789  12.830  0.4003 -1.7562 -0.2432
  645TIP3    H223351   6.324   3.888  12.725 -0.2715 -1.7296  0.0600
  646TIP3   OH223352   6.014   2.647   0.724 -0.0264 -0.5213 -0.0368
  646TIP3    H123353   6.100   2.681   0.748  0.4723 -2.4064  1.0700
  646TIP3    H223354   6.007   2.663   0.630  1.0758  0.5722  0.0392
  647TIP3   OH223355   6.389   3.236   0.524 -0.0215 -0.5570 -0.1521
  647TIP3    H123356   6.426   3.200   0.605 -1.3689 -0.4247  0.5654
  647TIP3    H223357   6.463   3.276   0.479  1.1402 -2.3856  0.0305
  648TIP3   OH223358   4.450   2.484   5.528 -0.2681 -0.1752 -0.0969
  648TIP3    H123359   4.428   2.399   5.565  0.2710  0.2042  1.1237
  648TIP3    H223360   4.467   2.540   5.603 -0.2702  0.9288 -0.8904
  649TIP3   OH223361   0.687   1.835   3.911 -0.1176 -0.0174 -0.0441
  649TIP3    H123362   0.689   1.911   3.853  0.8477  0.4027  0.5039
  649TIP3    H223363   0.732   1.865   3.990 -2.8382 -0.0021  1.6362
  650TIP3   OH223364   4.916   2.120  13.675 -0.1417  0.1068 -0.5374
  650TIP3    H123365   4.953   2.208  13.677 -1.8580  0.8518  0.3429
  650TIP3    H223366   4.954   2.075  13.751 -2.4190  1.4963  1.5325
  651TIP3   OH223367   5.675   2.758  13.652 -0.0786 -0.5240  0.3799
  651TIP3    H123368   5.648   2.845  13.623  1.8917 -0.3321 -1.1108
  651TIP3    H223369   5.760   2.744  13.609 -0.6717 -3.4829 -0.0332
  652TIP3   OH223370   0.361   3.860  10.561 -0.6819  0.5089 -0.0212
  652TIP3    H123371   0.423   3.906  10.504 -0.0759  0.5983  0.6857
  652TIP3    H223372   0.304   3.928  10.595  1.0241  1.0179  2.0509
  653TIP3   OH223373   5.250   2.135   1.972 -0.0235 -0.1130  0.3125
  653TIP3    H123374   5.288   2.080   1.903 -0.8478 -1.2383  0.7190
  653TIP3    H223375   5.325   2.163   2.025  0.5518  0.2755 -0.6732
  654TIP3   OH223376   1.624   5.946  13.667  0.0877 -0.4205 -0.0684
  654TIP3    H123377   1.594   5.990  13.587  0.6333 -0.7973 -0.4953
  654TIP3    H223378   1.719   5.961  13.668  0.0886 -0.4535  0.4906
  655TIP3   OH223379   4.872   1.897   4.791 -0.0116 -0.0646 -0.5612
  655TIP3    H123380   4.922   1.816   4.786 -1.3836 -0.9834 -0.1863
  655TIP3    H223381   4.922   1.954   4.850 -0.1851 -1.5635  1.1122
  656TIP3   OH223382   4.772   2.481  12.090 -0.3349  0.0902  0.5091
  656TIP3    H123383   4.855   2.448  12.055 -0.0376  1.3122  0.0317
  656TIP3    H223384   4.795   2.516  12.176 -0.6300 -0.7990  0.9652
  657TIP3   OH223385   2.378   2.876   2.341  0.0814 -0.0326 -0.3122
  657TIP3    H123386   2.356   2.964   2.371  0.5391  0.3209 -0.9929
  657TIP3    H223387   2.374   2.822   2.420 -1.0100  0.4335 -0.0226
  658TIP3   OH223388   3.399   6.272  12.920 -0.2594 -0.1800 -0.2442
  658TIP3    H123389   3.341   6.340  12.953 -0.7006 -1.1414  1.0654
  658TIP3    H223390   3.370   6.257  12.831 -0.8204  0.6299 -0.2095
  659TIP3   OH223391   5.800   3.317   4.145 -0.3394 -0.0196 -0.0115
  659TIP3    H123392   5.825   3.332   4.236  1.4223 -1.0503 -0.2646
  659TIP3    H223393   5.708   3.293   4.148 -0.0904 -0.8624  1.5961
  660TIP3   OH223394   6.022   4.881   5.972 -0.3374 -0.2958  0.2361
  660TIP3    H123395   6.001   4.813   6.036  0.4485 -0.3099  0.4843
  660TIP3    H223396   5.937   4.920   5.950 -0.6270 -0.3165  1.2555
  661TIP3   OH223397   1.200   3.344  16.632  0.3403  0.5914 -0.0746
  661TIP3    H123398   1.130   3.327  16.569 -1.2736  1.0588  1.5020
  661TIP3    H223399   1.158   3.397  16.701  2.0853  0.3503  1.2548
  662TIP3   OH223400   4.239   6.607  16.685 -0.0228 -0.0313 -0.1580
  662TIP3    H123401   4.290   6.682  16.716  0.5468  0.0334 -1.2107
  662TIP3    H223402   4.304   6.546  16.649 -0.3955 -1.3883  1.3251
  663TIP3   OH223403   3.021   2.850  11.619 -0.4646  0.4450 -0.9025
  663TIP3    H123404   2.945   2.907  11.608 -0.1336  0.8132 -1.3052
  663TIP3    H223405   3.093   2.898  11.579  0.5584  1.3064  1.7186
  664TIP3   OH223406   1.282   1.839  13.470 -0.5064 -0.2257  0.0829
  664TIP3    H123407   1.309   1.893  13.395 -0.9452  0.5915  0.4913
  664TIP3    H223408   1.283   1.749  13.437  1.4584 -0.1162 -0.2601
  665TIP3   OH223409   4.802   0.523   2.176  0.3691 -0.3109  0.1820
  665TIP3    H123410   4.810   0.504   2.083  0.4261 -0.4436  0.2123
  665TIP3    H223411   4.871   0.586   2.194 -0.0788  0.2339 -0.0007
  666TIP3   OH223412   3.568   4.750  16.140  0.0070  0.2191 -0.3348
  666TIP3    H123413   3.614   4.731  16.221 -0.7045 -0.4394 -0.0751
  666TIP3    H223414   3.633   4.794  16.085  1.7226 -2.7236 -0.8789
  667TIP3   OH223415   6.093   5.466   2.372  0.1517 -0.4517  0.1840
  667TIP3    H123416   6.001   5.490   2.384 -0.1517 -1.3664 -0.1754
  667TIP3    H223417   6.090   5.377   2.336  1.1840 -0.5644  0.3359
  668TIP3   OH223418   5.571   4.063  15.947  0.3674 -0.0629 -0.4287
  668TIP3    H123419   5.544   4.144  15.904  1.3466 -0.0868 -1.1155
  668TIP3    H223420   5.665   4.058  15.933  0.6582 -0.2853  1.3772
  669TIP3   OH223421   1.516   5.697   5.816 -0.0157 -0.4157 -0.3061
  669TIP3    H123422   1.503   5.749   5.895 -0.1061  0.6530 -1.0088
  669TIP3    H223423   1.525   5.761   5.746 -2.1211 -1.3235 -1.5196
  670TIP3   OH223424   0.356   2.852  15.653  0.0747  0.0604  0.5445
  670TIP3    H123425   0.421   2.826  15.718  1.0030 -0.1389 -0.4357
  670TIP3    H223426   0.335   2.771  15.607 -0.8900  0.1225  0.8492
  671TIP3   OH223427   4.747   6.677  13.858 -0.8196 -0.2708  0.0470
  671TIP3    H123428   4.821   6.618  13.863 -0.7823 -0.4682 -1.9014
  671TIP3    H223429   4.707   6.674  13.945  1.5087 -0.0355  1.1914
  672TIP3   OH223430   1.384   4.719  12.134  0.0326 -0.0354 -0.1065
  672TIP3    H123431   1.365   4.670  12.054 -0.2897 -0.1904  0.0641
  672TIP3    H223432   1.299   4.727  12.178 -0.1101  1.4783 -0.5813
  673TIP3   OH223433   3.768   1.366   1.510 -0.8510  0.2106  0.1332
  673TIP3    H123434   3.748   1.447   1.462 -0.5074 -0.2338 -0.7634
  673TIP3    H223435   3.855   1.381   1.546 -1.1596  0.5933  0.7541
  674TIP3   OH223436   2.562   1.267  11.160 -0.1714 -0.1765  0.1792
  674TIP3    H123437   2.535   1.338  11.102 -1.2726  0.7911  1.7908
  674TIP3    H223438   2.510   1.192  11.131  0.9028 -0.3435 -1.4461
  675TIP3   OH223439   0.087   5.575  13.614  0.2785 -0.3926 -0.0289
  675TIP3    H123440   0.175   5.538  13.608  0.4324  0.0591 -0.6393
  675TIP3    H223441   0.093   5.658  13.567 -0.8202 -0.9914 -1.2821
  676TIP3   OH223442   5.515   4.850   2.525 -0.7614 -0.1209 -0.3731
  676TIP3    H123443   5.449   4.825   2.590 -0.9755 -1.3376 -1.0416
  676TIP3    H223444   5.513   4.946   2.526 -1.0471 -0.1090  1.1133
  677TIP3   OH223445   4.731   0.925   2.144  0.2097 -0.3510  0.2490
  677TIP3    H123446   4.824   0.932   2.123  0.0760  0.7848 -0.0122
  677TIP3    H223447   4.691   1.000   2.101 -0.5133  0.3662  2.0675
  678TIP3   OH223448   3.683   4.124   1.939  0.3078  0.1893  0.3195
  678TIP3    H123449   3.630   4.109   1.861  0.6707  0.0119  0.1050
  678TIP3    H223450   3.647   4.204   1.977 -0.9398 -0.6072  0.8805
  679TIP3   OH223451   2.127   5.865   1.298 -0.0866  0.3977 -0.0737
  679TIP3    H123452   2.167   5.865   1.386  1.8251 -1.3843 -0.8462
  679TIP3    H223453   2.161   5.786   1.257 -2.5415  0.1158 -1.7610
  680TIP3   OH223454   6.111   2.677   2.946  0.4186  0.2172  0.0616
  680TIP3    H123455   6.170   2.668   3.021  1.0456  0.5860 -0.3787
  680TIP3    H223456   6.044   2.610   2.960  1.1114 -0.4202  0.4113
  681TIP3   OH223457   1.343   0.400   5.770  0.4737  0.0287 -0.1795
  681TIP3    H123458   1.275   0.372   5.832 -0.1462 -0.2442 -0.9488
  681TIP3    H223459   1.343   0.331   5.703 -0.3707  1.3179 -1.5891
  682TIP3   OH223460   4.581   5.804   1.194 -0.2561 -0.2994 -0.3814
  682TIP3    H123461   4.510   5.862   1.167  0.1042  0.3772  0.0953
  682TIP3    H223462   4.651   5.863   1.222 -0.1287 -0.9484  0.7514
  683TIP3   OH223463   5.278   6.095   0.935 -0.5207 -0.1586 -0.5993
  683TIP3    H123464   5.251   6.003   0.939 -0.9106 -0.0722 -1.1319
  683TIP3    H223465   5.328   6.102   0.854 -0.6917  0.1515 -0.6781
  684TIP3   OH223466   3.579   6.561  14.392  0.0803  0.1192  0.1181
  684TIP3    H123467   3.529   6.494  14.345  0.7826 -0.3138 -0.0183
  684TIP3    H223468   3.523   6.639  14.389 -0.1033 -0.0467 -1.0006
  685TIP3   OH223469   3.419   2.299   0.308  0.3414 -0.2201  0.0568
  685TIP3    H123470   3.495   2.310   0.251  2.6400  0.8489  3.0729
  685TIP3    H223471   3.379   2.386   0.311 -0.5681 -0.5824 -0.8518
  686TIP3   OH223472   1.137   3.649  16.659  0.1789 -0.0084 -0.5924
  686TIP3    H123473   1.217   3.648  16.711  1.0423 -1.2817 -1.8654
  686TIP3    H223474   1.151   3.720  16.596  0.5409 -0.5446 -1.1286
  687TIP3   OH223475   2.678   1.859   4.023  0.0307  0.1288  0.2893
  687TIP3    H123476   2.752   1.861   4.084 -0.6650 -0.1023  1.1574
  687TIP3    H223477   2.689   1.777   3.975  1.0064  0.6722 -0.4521
  688TIP3   OH223478   1.537   5.084   4.953  0.4711  0.3157 -0.1202
  688TIP3    H123479   1.589   5.161   4.976  0.0337  0.6256 -0.1690
  688TIP3    H223480   1.574   5.054   4.870 -0.6503  1.6756 -1.1695
  689TIP3   OH223481   0.244   0.643  16.151 -0.1491 -0.1112  1.0273
  689TIP3    H123482   0.243   0.548  16.148  0.9926 -0.1115 -0.0214
  689TIP3    H223483   0.199   0.665  16.233  0.0444 -1.5510  1.5475
  690TIP3   OH223484   2.807   0.983   2.463  0.0869 -0.0093  0.7380
  690TIP3    H123485   2.745   0.911   2.453  0.6524 -0.1728 -3.6531
  690TIP3    H223486   2.893   0.942   2.455  0.4588  0.9567 -0.4623
  691TIP3   OH223487   3.928   1.473  13.672 -0.0178 -0.7470  0.1559
  691TIP3    H123488   3.998   1.485  13.607  1.7649 -1.7220  1.7776
  691TIP3    H223489   3.970   1.492  13.756 -1.6825 -1.5194  1.2115
  692TIP3   OH223490   3.677   5.848  16.751  0.2748 -0.2336 -0.1936
  692TIP3    H123491   3.619   5.790  16.701  0.9807 -1.0733 -0.0774
  692TIP3    H223492   3.681   5.929  16.700  0.5024 -0.8566 -1.1959
  693TIP3   OH223493   6.086   2.793  14.934 -0.3518  0.0041 -0.5192
  693TIP3    H123494   6.027   2.825  14.865  0.2199  0.4314 -0.8202
  693TIP3    H223495   6.170   2.833  14.913  0.0706 -0.6830 -0.1498
  694TIP3   OH223496   6.455   2.272   0.087 -0.2680 -0.2446  0.7389
  694TIP3    H123497   6.379   2.304   0.135 -3.6947 -0.0853 -4.0468
  694TIP3    H223498   6.434   2.181   0.066  0.9944 -0.2959 -0.4355
  695TIP3   OH223499   3.491   0.961  15.094 -0.5631  0.4074 -0.0997
  695TIP3    H123500   3.513   0.949  15.002 -1.4062  0.2500 -0.2885
  695TIP3    H223501   3.468   0.873  15.125 -1.5850  0.6610 -0.0999
  696TIP3   OH223502   4.135   0.451   5.902  0.0464  0.0179  0.2751
  696TIP3    H123503   4.108   0.446   5.994 -2.5327  4.8972  0.1372
  696TIP3    H223504   4.224   0.484   5.905 -0.5828  1.7778  1.2002
  697TIP3   OH223505   3.196   3.221  14.232 -0.3432  0.4482  0.3222
  697TIP3    H123506   3.273   3.277  14.237  0.2782 -0.5020  2.2017
  697TIP3    H223507   3.160   3.220  14.320 -0.8669 -1.3399  0.1436
  698TIP3   OH223508   2.311   4.372   3.935 -0.3764  0.2253  0.4072
  698TIP3    H123509   2.388   4.329   3.897 -1.1126  0.6769 -1.7588
  698TIP3    H223510   2.337   4.394   4.024  1.7661 -0.2073 -0.0566
  699TIP3   OH223511   0.019   4.595  12.574 -0.4260 -0.2220 -0.1807
  699TIP3    H123512   0.046   4.509  12.544 -0.3638 -0.1063 -0.4587
  699TIP3    H223513  -0.052   4.578  12.636  0.0887 -0.5152  0.3459
  700TIP3   OH223514   5.346   1.653   0.832 -0.3323 -0.4167 -0.2400
  700TIP3    H123515   5.295   1.572   0.831 -0.4240 -0.3731 -1.5633
  700TIP3    H223516   5.355   1.675   0.924 -0.2151 -1.9932  0.1456
  701TIP3   OH223517   0.677   4.026  14.540  0.0910 -0.4869 -0.1094
  701TIP3    H123518   0.665   3.932  14.526  0.6752 -1.3827  4.1718
  701TIP3    H223519   0.772   4.037  14.543  0.1297 -0.7620  3.8007
  702TIP3   OH223520   0.440   0.490   3.292 -0.1257 -0.2343  0.7113
  702TIP3    H123521   0.473   0.417   3.239  1.2762  0.2803  0.8240
  702TIP3    H223522   0.365   0.454   3.338 -0.3796 -1.1707 -0.3763
  703TIP3   OH223523   5.499   1.589  12.896 -0.1535 -0.3064  0.2499
  703TIP3    H123524   5.468   1.499  12.910  0.3285 -0.7478 -1.3353
  703TIP3    H223525   5.422   1.643  12.915  0.1596 -0.8050  3.5328
  704TIP3   OH223526   1.388   0.005   4.444 -0.2947  0.2270  0.5893
  704TIP3    H123527   1.398  -0.088   4.421 -0.4645  0.6442 -1.3281
  704TIP3    H223528   1.430   0.013   4.529 -0.0789 -1.5702  0.6924
  705TIP3   OH223529   0.604   6.582  12.959  0.6018  0.2015  1.2730
  705TIP3    H123530   0.613   6.653  13.023  0.3804 -1.8029  3.6584
  705TIP3    H223531   0.518   6.544  12.976 -0.9052  1.4833 -2.4126
  706TIP3   OH223532   1.403   4.185  11.696  0.3359  0.3552 -0.1527
  706TIP3    H123533   1.492   4.157  11.721  0.1633 -0.6702 -0.6287
  706TIP3    H223534   1.362   4.105  11.663 -0.4282  1.0490 -0.9020
  707TIP3   OH223535   3.189   1.720   0.782 -0.3154 -0.5757  0.2898
  707TIP3    H123536   3.096   1.702   0.775 -0.9518  2.1416  0.6063
  707TIP3    H223537   3.220   1.722   0.691 -0.1163 -3.0579  0.2175
  708TIP3   OH223538   2.146   3.840   3.413  0.3177 -0.2305 -0.2276
  708TIP3    H123539   2.219   3.789   3.449 -0.2151 -0.3541  0.7014
  708TIP3    H223540   2.120   3.898   3.484 -2.1396 -1.9408  0.4061
  709TIP3   OH223541   2.360   4.212   6.205 -0.1450  0.5560 -0.3176
  709TIP3    H123542   2.426   4.268   6.163  0.6781 -0.1716 -0.0299
  709TIP3    H223543   2.367   4.233   6.298 -1.1223  1.2881 -0.3904
  710TIP3   OH223544   3.511   6.040   3.976 -0.0718  0.8292  0.2308
  710TIP3    H123545   3.514   6.127   4.016  1.9262 -0.3166  2.8758
  710TIP3    H223546   3.599   6.026   3.942 -0.3132 -0.2312 -0.0032
  711TIP3   OH223547   1.993   5.092  16.235  0.2596  0.2969 -0.3956
  711TIP3    H123548   2.069   5.134  16.276 -0.4034  1.7518 -0.5946
  711TIP3    H223549   1.917   5.129  16.280 -0.3654 -1.0393 -0.2943
  712TIP3   OH223550   5.849   0.814  12.150  0.1138  0.1614 -0.0575
  712TIP3    H123551   5.815   0.770  12.072 -2.2230  1.1848  0.3058
  712TIP3    H223552   5.782   0.800  12.216  0.4392  2.2202  0.7717
  713TIP3   OH223553   1.989   5.152   0.980  0.0689  0.1625  0.5273
  713TIP3    H123554   1.991   5.233   1.031  1.7071  0.1176  0.5829
  713TIP3    H223555   1.960   5.179   0.893 -2.4052  0.2974  1.3217
  714TIP3   OH223556   3.007   1.589  13.107  0.0069  0.0298 -0.3307
  714TIP3    H123557   3.069   1.527  13.069 -0.7550  0.8414 -3.1436
  714TIP3    H223558   3.042   1.608  13.194  2.3171 -1.4014 -0.8703
  715TIP3   OH223559   1.428   2.376   0.985  0.1724  0.2866 -0.1609
  715TIP3    H123560   1.490   2.432   1.031  0.4972  0.3965 -0.7236
  715TIP3    H223561   1.440   2.398   0.893 -0.6240  0.2294 -0.2852
  716TIP3   OH223562   4.311   5.643   1.040  0.5755  0.2855  0.2351
  716TIP3    H123563   4.294   5.606   1.126  0.6313 -2.2860 -0.7835
  716TIP3    H223564   4.395   5.689   1.050  2.0848 -2.4148  0.9225
  717TIP3   OH223565   3.743   5.608  16.397  0.4731 -0.8355  1.4288
  717TIP3    H123566   3.830   5.645  16.412  0.8935 -1.4302  0.5580
  717TIP3    H223567   3.759   5.517  16.375 -0.3014 -0.7412  0.3907
  718TIP3   OH223568   5.472   0.143  15.921 -0.5148 -0.1563  0.5056
  718TIP3    H123569   5.429   0.060  15.942 -1.5334 -0.1446 -1.2980
  718TIP3    H223570   5.481   0.142  15.825  1.7724  0.7220  0.6356
  719TIP3   OH223571   6.557   2.409   0.958 -0.7776  0.2151  0.1549
  719TIP3    H123572   6.598   2.452   1.033 -1.6121 -0.3793  0.9675
  719TIP3    H223573   6.463   2.415   0.974 -1.1575  2.4745 -2.1746
  720TIP3   OH223574   3.964   4.584  13.767 -0.1991  0.1698  0.2818
  720TIP3    H123575   3.917   4.660  13.801 -0.5931 -0.1605  0.4885
  720TIP3    H223576   3.908   4.551  13.696  0.5124  0.7267 -0.5646
  721TIP3   OH223577   4.473   2.667   0.342  0.6236 -1.1353 -0.3606
  721TIP3    H123578   4.554   2.683   0.295  0.5297  0.5833 -0.0074
  721TIP3    H223579   4.426   2.750   0.338 -0.5688 -1.7360  0.4853
  722TIP3   OH223580   2.404   6.621   0.358  0.5082 -0.4151  0.2681
  722TIP3    H123581   2.456   6.693   0.394 -1.0219  0.4051  0.9704
  722TIP3    H223582   2.378   6.651   0.271  1.7585 -1.1292 -0.3721
  723TIP3   OH223583   0.363   1.780  11.846  0.1217 -0.4982 -0.6017
  723TIP3    H123584   0.420   1.854  11.824  0.5847  0.0086  1.9929
  723TIP3    H223585   0.293   1.784  11.781 -1.5389  4.0939  1.0277
  724TIP3   OH223586   5.379   2.027   0.163  0.3878  0.0999 -0.2568
  724TIP3    H123587   5.326   2.060   0.090 -0.9134 -0.0558  0.5908
  724TIP3    H223588   5.449   2.092   0.173 -1.3509  1.9496  0.5304
  725TIP3   OH223589   0.446   5.574  13.290 -0.8558  0.0963  0.2500
  725TIP3    H123590   0.499   5.598  13.366 -0.0658 -1.1687  0.1214
  725TIP3    H223591   0.508   5.533  13.230 -1.5213  0.8172 -0.9749
  726TIP3   OH223592   1.518   4.890  11.949 -0.1096 -0.1686 -0.1631
  726TIP3    H123593   1.459   4.835  12.000 -0.6273 -1.2564 -1.8502
  726TIP3    H223594   1.475   4.899  11.864  1.5133  0.1413 -0.9936
  727TIP3   OH223595   6.588   5.195   3.645  0.3372 -0.3074  0.0794
  727TIP3    H123596   6.573   5.111   3.602 -1.7381 -0.6468  1.3073
  727TIP3    H223597   6.565   5.179   3.737 -2.1196  2.0154 -0.0085
  728TIP3   OH223598   1.523   2.729  13.962  0.3135  0.3392  0.3603
  728TIP3    H123599   1.489   2.818  13.955 -0.2013  0.1388  0.2041
  728TIP3    H223600   1.554   2.708  13.874 -1.1097 -0.2206 -0.0486
  729TIP3   OH223601   1.383   5.674   5.474  0.2700  0.0466  0.1187
  729TIP3    H123602   1.455   5.723   5.512 -1.6171  1.5084  2.0256
  729TIP3    H223603   1.324   5.655   5.547 -0.8751 -1.8880 -1.1882
  730TIP3   OH223604   4.256   0.388   4.339  0.1538 -0.0847  0.1143
  730TIP3    H123605   4.243   0.470   4.292 -0.0331 -0.3073 -0.2232
  730TIP3    H223606   4.304   0.333   4.278  1.7133  0.3205  0.9072
  731TIP3   OH223607   4.871   5.257   2.629 -0.3509 -0.5046  0.5638
  731TIP3    H123608   4.807   5.255   2.700 -1.2814 -1.7793 -0.2597
  731TIP3    H223609   4.881   5.165   2.604  0.2920 -0.1225 -0.6614
  732TIP3   OH223610   4.439   4.010  12.402  0.2600  0.0216 -0.1614
  732TIP3    H123611   4.492   3.976  12.331  2.4924  1.1395  0.8754
  732TIP3    H223612   4.424   4.102  12.380  3.1349  1.1208  1.8401
  733TIP3   OH223613   2.566   2.760  11.002 -1.0936  0.0051  0.1930
  733TIP3    H123614   2.545   2.757  10.909 -1.1172 -1.8410  0.2188
  733TIP3    H223615   2.520   2.837  11.035 -0.1572  1.3519 -1.5162
  734TIP3   OH223616   0.412   4.225  15.154 -0.1192 -0.5028 -0.1752
  734TIP3    H123617   0.334   4.241  15.101  0.3935  0.4864 -0.6615
  734TIP3    H223618   0.476   4.189  15.093  0.9280  1.9052 -0.6032
  735TIP3   OH223619   0.326   1.336  15.111 -0.3379  0.0067 -1.0763
  735TIP3    H123620   0.322   1.405  15.176 -0.3431 -0.2929 -0.7578
  735TIP3    H223621   0.404   1.356  15.059 -0.1513  0.0641 -0.7754
  736TIP3   OH223622   6.336   2.693   1.741  0.1775 -0.5681 -0.0798
  736TIP3    H123623   6.388   2.661   1.667 -0.7570 -1.8440 -0.2145
  736TIP3    H223624   6.383   2.661   1.819 -0.1844 -1.4009 -0.1921
  737TIP3   OH223625   4.423   2.195  13.176  0.2429  0.6643 -0.4920
  737TIP3    H123626   4.343   2.247  13.185 -0.3288  0.1149 -1.9810
  737TIP3    H223627   4.480   2.248  13.120  0.3924  0.4986 -0.4976
  738TIP3   OH223628   2.674   2.674  15.162  0.2991  0.9247 -0.9088
  738TIP3    H123629   2.607   2.611  15.133  1.2629  0.0854 -1.3610
  738TIP3    H223630   2.731   2.623  15.219  0.1616  1.8167  0.0586
  739TIP3   OH223631   3.665   6.637   0.145  0.1401 -0.3614 -0.7327
  739TIP3    H123632   3.622   6.616   0.062 -3.7595  0.8816  0.7453
  739TIP3    H223633   3.629   6.574   0.207  1.0570  0.2867  0.4986
  740TIP3   OH223634   2.530   0.749  14.065 -0.5181  0.1703 -0.1122
  740TIP3    H123635   2.589   0.676  14.087  0.2325  0.7500 -0.1700
  740TIP3    H223636   2.571   0.791  13.990 -0.6442  1.0074  0.2837
  741TIP3   OH223637   3.462   0.580   5.048 -0.3240  0.3794 -0.3782
  741TIP3    H123638   3.558   0.577   5.048 -0.2459  1.7779  0.0041
  741TIP3    H223639   3.441   0.644   5.116 -1.6255 -1.4752  1.0755
  742TIP3   OH223640   3.476   6.662   3.091  0.0416  0.0799  0.2913
  742TIP3    H123641   3.493   6.671   2.997 -1.7954  1.1916  0.0128
  742TIP3    H223642   3.420   6.585   3.098 -0.6110  0.5524  0.3461
  743TIP3   OH223643   4.562   5.821   5.578  0.1967  0.4307  0.0670
  743TIP3    H123644   4.530   5.893   5.632 -0.7794 -1.1601  1.7432
  743TIP3    H223645   4.649   5.801   5.613  0.1309  0.2910  0.1556
  744TIP3   OH223646   3.374   6.595   3.436 -0.0691  0.1830 -0.9329
  744TIP3    H123647   3.467   6.599   3.461 -0.6876  0.0301  1.7271
  744TIP3    H223648   3.363   6.506   3.401  0.4886 -0.3897  0.2724
  745TIP3   OH223649   2.198   3.111   4.137  0.3080  0.1967 -0.2230
  745TIP3    H123650   2.172   3.103   4.228  0.4612  0.0125 -0.1942
  745TIP3    H223651   2.130   3.064   4.089  0.1858  0.3601 -0.2106
  746TIP3   OH223652   2.695   6.120  14.783 -0.6721 -0.2273 -0.6092
  746TIP3    H123653   2.768   6.081  14.733 -0.7926 -0.0996 -0.8860
  746TIP3    H223654   2.654   6.045  14.826  0.5308 -0.1308  0.7602
  747TIP3   OH223655   0.462   1.850  15.427  0.0746 -0.4710 -0.1485
  747TIP3    H123656   0.395   1.866  15.494  1.0537 -0.6242  0.8986
  747TIP3    H223657   0.545   1.851  15.476  0.9398  0.7834 -1.5784
  748TIP3   OH223658   5.786   1.425  15.812  0.5780 -0.2039 -0.6559
  748TIP3    H123659   5.757   1.367  15.882  0.3540 -0.1344 -0.6909
  748TIP3    H223660   5.753   1.384  15.732  1.1276 -0.4689 -0.7541
  749TIP3   OH223661   3.744   2.408  16.086 -0.1908  0.3056  0.0597
  749TIP3    H123662   3.814   2.421  16.151  0.5689  0.4605 -0.7640
  749TIP3    H223663   3.667   2.388  16.138  0.3727  0.5398  1.0218
  750TIP3   OH223664   6.245   5.727  16.420 -0.0550 -0.2869  0.1577
  750TIP3    H123665   6.324   5.746  16.471 -0.1875  0.9192 -0.0682
  750TIP3    H223666   6.277   5.721  16.330 -0.3057  0.7935 -0.0067
  751TIP3   OH223667   5.005   2.042   3.906  0.2840 -0.5597 -0.2071
  751TIP3    H123668   5.039   1.978   3.844 -1.9767 -0.6903 -1.4310
  751TIP3    H223669   4.985   1.990   3.985  0.7236 -0.8910 -0.3119
  752TIP3   OH223670   4.703   0.471  13.201  0.0183  0.6181 -0.2625
  752TIP3    H123671   4.627   0.497  13.147 -0.7612 -0.2917  0.3752
  752TIP3    H223672   4.667   0.412  13.267  0.9107  1.8984  1.4459
  753TIP3   OH223673   1.023   1.441  13.211  0.0411  0.4846  0.4622
  753TIP3    H123674   1.112   1.407  13.200  0.0234  0.4140  0.5339
  753TIP3    H223675   0.987   1.390  13.283 -0.6416 -0.6613 -0.6455
  754TIP3   OH223676   2.728   6.269   3.787  0.3278  0.3444 -0.3239
  754TIP3    H123677   2.658   6.219   3.831  0.8127  0.0785  0.1578
  754TIP3    H223678   2.730   6.353   3.833  0.4654  0.2717 -0.1960
  755TIP3   OH223679   3.420   6.320   1.179  0.0553  0.2595  0.6664
  755TIP3    H123680   3.449   6.407   1.152 -0.7311  0.4372  0.3387
  755TIP3    H223681   3.492   6.262   1.157 -0.5815  0.3570 -2.0722
  756TIP3   OH223682   3.796   3.623  12.611  0.2419 -0.3017  0.0012
  756TIP3    H123683   3.786   3.715  12.632 -2.2598 -0.5113  0.0158
  756TIP3    H223684   3.891   3.609  12.605  0.6880  2.0085  1.0039
  757TIP3   OH223685   1.388   5.851  12.487 -0.1591  0.4730 -0.0820
  757TIP3    H123686   1.363   5.814  12.572  0.7149 -0.7854 -0.3431
  757TIP3    H223687   1.391   5.945  12.502 -3.0506  0.5733  0.4497
  758TIP3   OH223688   1.054   4.295  11.405 -0.2304 -0.3353 -0.4102
  758TIP3    H123689   1.132   4.321  11.355  0.5446 -0.5879  0.6267
  758TIP3    H223690   0.981   4.315  11.347  0.5307  0.9874 -0.9799
  759TIP3   OH223691   1.974   3.605   0.647 -0.4198 -0.4049  0.2214
  759TIP3    H123692   1.975   3.624   0.741  0.1707 -1.3237  0.4236
  759TIP3    H223693   1.931   3.520   0.641 -0.0171 -0.5781 -0.2852
  760TIP3   OH223694   2.575   1.222   5.941  0.0210  0.2702  0.6467
  760TIP3    H123695   2.661   1.251   5.974  0.2411 -0.0497  0.3476
  760TIP3    H223696   2.562   1.273   5.861 -0.4290  0.9041  1.1076
  761TIP3   OH223697   1.345   2.749  15.780 -0.0048  0.4185 -0.1043
  761TIP3    H123698   1.307   2.677  15.730  0.8620  0.1353 -0.3656
  761TIP3    H223699   1.274   2.779  15.836 -1.2829  1.2789 -2.0603
  762TIP3   OH223700   5.754   1.509  12.817 -0.1804 -0.2194  0.4542
  762TIP3    H123701   5.799   1.586  12.781 -0.2213 -1.2214 -1.9099
  762TIP3    H223702   5.664   1.538  12.831 -0.2688  0.1043 -0.6870
  763TIP3   OH223703   2.961   3.379  17.205 -0.5672 -0.0385 -0.1732
  763TIP3    H123704   3.038   3.399  17.151 -1.3498  0.9293 -0.9763
  763TIP3    H223705   2.993   3.318  17.271  0.5820 -0.7648 -1.3438
  764TIP3   OH223706   5.268   2.163  11.586 -0.3096 -0.6906  0.2556
  764TIP3    H123707   5.279   2.069  11.576 -0.3604 -0.6580 -0.1127
  764TIP3    H223708   5.325   2.202  11.520 -0.0695 -0.4560  0.5969
  765TIP3   OH223709   2.604   6.617  13.719 -0.1549 -0.1605  0.0574
  765TIP3    H123710   2.648   6.547  13.766  1.1630  0.8469  0.3854
  765TIP3    H223711   2.521   6.628  13.765 -0.0078 -0.9315  0.5183
  766TIP3   OH223712   6.338   1.653   2.515 -0.5599 -0.3361 -0.2910
  766TIP3    H123713   6.385   1.651   2.432  3.8500  1.8282  1.8074
  766TIP3    H223714   6.372   1.577   2.563  0.4196  0.8999  1.0460
  767TIP3   OH223715   5.955   2.835  13.007  1.0623  0.4365  0.4563
  767TIP3    H123716   6.042   2.838  13.046  0.1950  2.1807  2.4060
  767TIP3    H223717   5.895   2.844  13.080 -0.9221 -2.9226 -0.5418
  768TIP3   OH223718   1.368   1.419  11.118 -0.3196  0.0586 -0.3449
  768TIP3    H123719   1.301   1.364  11.159 -1.2654  0.2750 -1.5291
  768TIP3    H223720   1.393   1.481  11.185  0.2300 -1.3313  0.7910
  769TIP3   OH223721   6.334   0.905  10.740  0.3390  0.3393  0.0538
  769TIP3    H123722   6.425   0.875  10.740  0.0244 -0.6607  0.6495
  769TIP3    H223723   6.334   0.980  10.799  0.3639 -1.0662  1.9321
  770TIP3   OH223724   1.674   5.141   4.709 -0.4545  0.2371  0.0555
  770TIP3    H123725   1.740   5.206   4.733  1.0157 -0.5856 -1.5058
  770TIP3    H223726   1.609   5.191   4.658  0.7828  0.5056 -1.3444
  771TIP3   OH223727   0.769   2.615   2.237 -0.0948 -0.3785 -0.0613
  771TIP3    H123728   0.728   2.528   2.239  0.5246 -0.6989  2.6452
  771TIP3    H223729   0.858   2.600   2.270  0.4602  1.1035 -0.8126
  772TIP3   OH223730   0.958   1.084   4.731 -0.0704  0.1747  0.1442
  772TIP3    H123731   0.887   1.045   4.679  0.0153  0.1900  0.0168
  772TIP3    H223732   1.025   1.106   4.667  0.1697 -0.0993  0.2977
  773TIP3   OH223733   6.064   3.153   5.942 -0.3726 -0.0989 -0.5652
  773TIP3    H123734   6.028   3.078   5.894 -0.0403 -0.2294 -0.6139
  773TIP3    H223735   6.138   3.182   5.889  0.2010 -0.4474  0.0253
  774TIP3   OH223736   6.740   5.793   5.818 -0.6288  0.7743 -0.2690
  774TIP3    H123737   6.645   5.803   5.814 -0.8633 -1.1109 -0.7188
  774TIP3    H223738   6.753   5.705   5.855  0.8668  0.1809 -2.0188
  775TIP3   OH223739   4.326   1.503   5.270  0.2793 -0.1037  0.2542
  775TIP3    H123740   4.288   1.515   5.183 -1.2750  2.6487  1.1590
  775TIP3    H223741   4.420   1.497   5.255  0.1278  1.1797 -1.5835
  776TIP3   OH223742   0.229   4.247  11.603  0.4682  0.4430  0.0424
  776TIP3    H123743   0.171   4.322  11.619 -1.7835 -0.8693 -1.4157
  776TIP3    H223744   0.269   4.265  11.519 -0.8945 -0.4076 -0.8232
  777TIP3   OH223745   4.148   2.445   3.499 -0.3229  0.1610  0.2553
  777TIP3    H123746   4.066   2.396   3.496  0.1417 -0.6631 -2.4722
  777TIP3    H223747   4.195   2.410   3.575 -1.1800 -1.6637 -0.0030
  778TIP3   OH223748   5.994   3.449  16.323 -0.1270 -0.0309  0.2057
  778TIP3    H123749   6.048   3.464  16.401 -0.7780 -1.9680  1.0792
  778TIP3    H223750   5.908   3.428  16.358 -0.5734 -0.3576 -1.0649
  779TIP3   OH223751   5.604   2.482  13.402 -0.3824 -0.5600 -0.1129
  779TIP3    H123752   5.560   2.492  13.486 -1.2325 -2.1617 -0.3162
  779TIP3    H223753   5.697   2.495  13.421 -0.6271 -0.2811  0.9436
  780TIP3   OH223754   0.017   0.757   0.995  0.5687  0.3492  0.1558
  780TIP3    H123755   0.036   0.707   1.074 -0.5341 -0.0914  0.1581
  780TIP3    H223756   0.050   0.845   1.014  1.1853  0.0125  0.7197
  781TIP3   OH223757   3.911   0.615   4.263 -0.0838 -0.8716  0.0118
  781TIP3    H123758   3.852   0.637   4.191  2.1500 -2.3746 -2.4633
  781TIP3    H223759   3.997   0.607   4.222  1.3862 -1.4812  2.9451
  782TIP3   OH223760   4.021   0.983   3.536 -0.0129 -0.1380 -0.2924
  782TIP3    H123761   4.105   0.992   3.490 -0.3249  0.6347 -0.7445
  782TIP3    H223762   3.978   1.068   3.524  0.0941  0.2749  1.8662
  783TIP3   OH223763   4.802   6.752   3.684  0.4707 -0.6221  0.0593
  783TIP3    H123764   4.788   6.825   3.623 -0.3188 -0.0437  0.8969
  783TIP3    H223765   4.714   6.720   3.702  0.3032  1.2045  3.2421
  784TIP3   OH223766   2.665   1.168  12.243 -0.3757  0.3909  0.0332
  784TIP3    H123767   2.695   1.164  12.152  1.5168 -1.7710  0.6538
  784TIP3    H223768   2.624   1.083  12.258  0.1426  0.3632  1.4405
  785TIP3   OH223769   5.086   4.643   1.544 -0.0715 -0.0288  0.2664
  785TIP3    H123770   5.087   4.638   1.639  1.7040  1.0184  0.3515
  785TIP3    H223771   5.144   4.573   1.515 -0.0787  0.0736 -0.0060
  786TIP3   OH223772   5.033   3.704  12.672 -0.2289  0.3596 -0.2008
  786TIP3    H123773   5.097   3.756  12.624 -0.3546  0.1374 -0.6176
  786TIP3    H223774   5.085   3.650  12.731 -0.0469  0.3400 -0.3781
  787TIP3   OH223775   0.025   5.753   1.478  0.2400  0.7045 -0.1694
  787TIP3    H123776  -0.030   5.680   1.452  0.1234  0.4689  0.7013
  787TIP3    H223777  -0.029   5.831   1.463 -0.8374  0.4041  1.8426
  788TIP3   OH223778   0.599   5.326   5.492  0.1919 -0.0869 -0.4255
  788TIP3    H123779   0.681   5.370   5.470 -0.4577  0.1258 -2.6751
  788TIP3    H223780   0.539   5.397   5.517  0.4128 -0.1666  0.3774
  789TIP3   OH223781   3.536   1.082   5.859  0.8472 -0.5725  0.2036
  789TIP3    H123782   3.609   1.022   5.841  1.3103  0.1199 -0.2418
  789TIP3    H223783   3.556   1.119   5.945  1.2654 -0.0349 -0.1205
  790TIP3   OH223784   1.068   5.720   5.477  0.2701  0.4882  0.1561
  790TIP3    H123785   1.017   5.737   5.397  0.0099  0.2492  0.2681
  790TIP3    H223786   1.096   5.629   5.468 -0.4341  0.2084  0.7040
  791TIP3   OH223787   3.272   0.711   4.770 -0.2967  0.7901 -0.2754
  791TIP3    H123788   3.226   0.645   4.822 -0.4017  0.8744 -0.2607
  791TIP3    H223789   3.231   0.706   4.684  0.7420 -0.2530 -0.7437
  792TIP3   OH223790   4.062   4.711   0.470 -0.1632  0.1723 -0.1392
  792TIP3    H123791   4.136   4.760   0.505  0.0559 -0.2821  0.0343
  792TIP3    H223792   4.040   4.648   0.539 -0.9733  0.5695 -0.0108
  793TIP3   OH223793   6.550   4.872   0.973 -0.3799  0.0136 -0.1653
  793TIP3    H123794   6.455   4.871   0.986 -0.3374 -0.0121  0.1719
  793TIP3    H223795   6.562   4.873   0.878 -0.7238  0.5870 -0.2070
  794TIP3   OH223796   5.129   1.420  14.686 -1.0171  0.0634  0.0097
  794TIP3    H123797   5.192   1.437  14.616  0.5095 -1.9972  0.7759
  794TIP3    H223798   5.050   1.392  14.640  0.0867 -1.6661 -0.9815
  795TIP3   OH223799   5.042   3.257  13.338 -0.7043  0.1368 -0.2186
  795TIP3    H123800   5.067   3.306  13.416 -2.7169  1.7312 -0.4988
  795TIP3    H223801   5.121   3.257  13.284  0.5357 -0.4461  1.4833
  796TIP3   OH223802   2.017   2.912   3.584  0.2324 -0.3424 -0.3256
  796TIP3    H123803   2.110   2.917   3.606  0.4030 -0.5135 -0.9765
  796TIP3    H223804   1.992   2.822   3.606  0.5905 -0.7474 -1.5055
  797TIP3   OH223805   4.813   5.382  13.390  0.1354  0.5420  0.0741
  797TIP3    H123806   4.753   5.312  13.416  0.0681 -0.4856 -2.5572
  797TIP3    H223807   4.901   5.346  13.406  0.1034  0.6411  0.5059
  798TIP3   OH223808   1.578   6.140   4.643 -0.1081 -0.2725  0.1841
  798TIP3    H123809   1.572   6.047   4.620 -0.3120 -0.1693 -0.2011
  798TIP3    H223810   1.671   6.160   4.636 -0.1772 -0.2133 -0.7262
  799TIP3   OH223811   1.005   0.721  13.346 -0.0639  0.5836  0.3871
  799TIP3    H123812   0.981   0.629  13.347 -0.4434  0.6833  0.6473
  799TIP3    H223813   1.100   0.721  13.335 -0.0007  0.1485  0.9147
  800TIP3   OH223814   0.603   5.254  16.846  0.3569  0.2728 -0.5810
  800TIP3    H123815   0.555   5.287  16.922 -0.8827  0.3368 -1.3537
  800TIP3    H223816   0.636   5.169  16.874 -1.5415 -0.4797 -0.4829
  801TIP3   OH223817   3.494   3.372  11.821 -0.4246 -0.6843  0.4839
  801TIP3    H123818   3.579   3.364  11.777 -0.9753  0.2854 -0.8106
  801TIP3    H223819   3.501   3.453  11.872  0.1607 -1.7284  2.1790
  802TIP3   OH223820   1.798   5.938   2.058 -0.4888 -0.2149  0.1432
  802TIP3    H123821   1.836   5.883   2.127 -1.9375  0.7977  1.8355
  802TIP3    H223822   1.841   6.022   2.068 -0.5131 -0.1383 -0.3856
  803TIP3   OH223823   3.855   5.954  15.103 -0.0832 -0.0451  0.2647
  803TIP3    H123824   3.785   5.916  15.050  0.8540 -1.2998 -0.1199
  803TIP3    H223825   3.921   5.885  15.109  0.9804  0.9871  0.8994
  804TIP3   OH223826   6.695   4.588  14.803 -0.0992  0.2483 -0.2435
  804TIP3    H123827   6.608   4.582  14.843  0.0366 -0.6401 -0.0635
  804TIP3    H223828   6.712   4.500  14.771  0.1473  0.7544 -1.5403
  805TIP3   OH223829   5.319   3.588  13.419  0.2742 -0.4809 -0.1284
  805TIP3    H123830   5.356   3.631  13.341 -2.5775  1.7812 -0.3897
  805TIP3    H223831   5.263   3.519  13.383  0.9827 -1.1858  0.0886
  806TIP3   OH223832   4.952   5.743   2.268 -0.0353 -0.1060  0.5808
  806TIP3    H123833   4.977   5.652   2.285 -2.4728 -0.6349  1.7240
  806TIP3    H223834   4.921   5.775   2.352  1.3802  2.0547  0.3571
  807TIP3   OH223835   5.455   6.430  14.782 -0.1023 -0.1579 -0.2882
  807TIP3    H123836   5.476   6.460  14.694 -0.4143  0.0442 -0.2955
  807TIP3    H223837   5.442   6.336  14.773  0.3294 -0.2109 -0.3703
  808TIP3   OH223838   2.837   3.616  12.090 -0.0250  0.4176 -1.0310
  808TIP3    H123839   2.886   3.678  12.144  0.2664  0.1410 -0.9745
  808TIP3    H223840   2.746   3.639  12.104  0.0957  1.1193 -1.3514
  809TIP3   OH223841   1.996   3.568  10.271  0.2031 -0.1650  0.3317
  809TIP3    H123842   1.944   3.551  10.193  1.2363  0.3236 -0.4890
  809TIP3    H223843   1.952   3.519  10.341 -0.8572 -0.4341 -0.5002
  810TIP3   OH223844   1.922   1.736  13.053 -1.1435  0.0067 -0.0887
  810TIP3    H123845   1.837   1.699  13.030 -0.8248 -1.8436  1.4500
  810TIP3    H223846   1.985   1.669  13.025 -0.5682 -0.9829  3.0949
  811TIP3   OH223847   0.550   3.602   6.533  0.0887 -0.1739 -0.6186
  811TIP3    H123848   0.644   3.615   6.542 -0.0539  0.1092  0.5840
  811TIP3    H223849   0.540   3.507   6.521  0.4583 -0.3565  0.4242
  812TIP3   OH223850   6.050   2.024   4.206  0.9007  0.0126 -0.2681
  812TIP3    H123851   6.032   1.964   4.133 -1.1586  1.1684 -0.8129
  812TIP3    H223852   6.066   1.967   4.281  0.7266 -1.2249 -1.1404
  813TIP3   OH223853   2.179   3.837  12.417  0.7771 -0.2265  0.1489
  813TIP3    H123854   2.138   3.753  12.397  2.2074 -1.0490  0.5687
  813TIP3    H223855   2.147   3.896  12.349 -0.7217 -0.9434  0.2010
  814TIP3   OH223856   4.994   5.843   0.119 -0.0019 -0.3804 -0.3788
  814TIP3    H123857   4.976   5.927   0.077 -0.0870 -0.1577  0.0962
  814TIP3    H223858   4.919   5.828   0.176  1.1022  0.3773  1.3470
  815TIP3   OH223859   2.536   4.963  14.525  0.3003  0.1838  0.3193
  815TIP3    H123860   2.565   4.882  14.483 -0.8315 -0.7020  1.1565
  815TIP3    H223861   2.502   5.017  14.453 -2.0705 -1.5065  0.0606
  816TIP3   OH223862   3.661   5.535  15.496 -0.3379  0.1739  0.2278
  816TIP3    H123863   3.609   5.556  15.417  0.5579 -0.7278 -0.6283
  816TIP3    H223864   3.596   5.531  15.566 -1.1995  0.7402 -0.5004
  817TIP3   OH223865   1.053   0.908  16.359 -0.5785  0.3787  0.0650
  817TIP3    H123866   1.140   0.926  16.397 -1.2812  1.5957  1.1754
  817TIP3    H223867   1.004   0.869  16.432 -0.5654 -1.7225 -0.9650
  818TIP3   OH223868   0.580   6.476   2.883  1.0375  0.6449 -0.0457
  818TIP3    H123869   0.562   6.415   2.954  0.3210  1.2542  0.3118
  818TIP3    H223870   0.511   6.458   2.818  3.2651 -1.8746 -1.9743
  819TIP3   OH223871   5.476   1.529  16.224 -0.0969 -0.3332 -0.1030
  819TIP3    H123872   5.545   1.585  16.258  1.0260 -0.7895 -1.5556
  819TIP3    H223873   5.403   1.589  16.208  0.6141  0.4817 -0.3673
  820TIP3   OH223874   1.535   1.742   0.754 -0.0460  0.0152 -0.1803
  820TIP3    H123875   1.488   1.797   0.692 -1.1913 -0.8085 -0.0757
  820TIP3    H223876   1.482   1.663   0.761 -0.6258  0.5440  2.7244
  821TIP3   OH223877   3.246   4.073  12.133  0.3963 -0.6562  0.1245
  821TIP3    H123878   3.336   4.080  12.166  0.7554 -1.2842 -0.6770
  821TIP3    H223879   3.256   4.035  12.046 -0.6619 -0.7991  0.0551
  822TIP3   OH223880   5.316   3.785   0.936  0.4063 -0.3614  0.1075
  822TIP3    H123881   5.341   3.877   0.944 -0.9148 -0.1225  2.3697
  822TIP3    H223882   5.234   3.779   0.985 -0.8984 -2.2534 -2.1394
  823TIP3   OH223883   0.304   2.443  14.904 -0.1467 -0.2173  0.0182
  823TIP3    H123884   0.369   2.466  14.969  0.9722 -1.2225 -0.7015
  823TIP3    H223885   0.249   2.522  14.895  1.2892  0.8447  0.2564
  824TIP3   OH223886   3.680   1.351   3.221  0.0303  0.1327 -0.3676
  824TIP3    H123887   3.630   1.355   3.303 -1.0728 -0.0439 -1.0129
  824TIP3    H223888   3.679   1.258   3.197 -0.5419  0.3330 -1.1163
  825TIP3   OH223889   6.708   3.587  15.891 -0.0732 -0.2626  0.4986
  825TIP3    H123890   6.781   3.547  15.937 -1.2189 -1.9843  0.9380
  825TIP3    H223891   6.650   3.514  15.870 -0.8871  0.8192 -1.3177
  826TIP3   OH223892   6.256   0.847  12.990  0.0955 -0.2077  0.0991
  826TIP3    H123893   6.191   0.828  12.923 -0.6802  0.9316  0.5005
  826TIP3    H223894   6.218   0.813  13.071 -0.9872  2.2305  0.6991
  827TIP3   OH223895   2.086   1.333  13.545  0.3642  0.7312  0.7761
  827TIP3    H123896   2.028   1.284  13.603  1.1410  0.9633  1.7827
  827TIP3    H223897   2.169   1.338  13.593  1.6226 -0.6374 -1.1275
  828TIP3   OH223898   5.912   6.757   3.421 -0.3101  0.3199  0.3008
  828TIP3    H123899   5.836   6.807   3.452 -1.2481  0.2845 -1.7857
  828TIP3    H223900   5.884   6.666   3.428 -0.3221  0.2903 -0.1362
  829TIP3   OH223901   2.310   3.228  17.171 -0.5995 -0.4313 -0.1453
  829TIP3    H123902   2.359   3.232  17.088  0.6523 -0.9115  0.5433
  829TIP3    H223903   2.286   3.135  17.180 -0.2552 -0.4808  0.2907
  830TIP3   OH223904   5.015   4.535  15.348 -0.0743 -0.5041  0.5737
  830TIP3    H123905   5.105   4.511  15.370  0.4474 -0.2669 -1.1563
  830TIP3    H223906   5.023   4.586  15.267 -1.5958  1.1719  1.4033
  831TIP3   OH223907   2.398   1.001   3.225 -0.0236 -0.7948 -0.2578
  831TIP3    H123908   2.473   1.059   3.239  0.0903 -1.0837  0.3561
  831TIP3    H223909   2.324   1.059   3.215  0.2506 -0.5099 -0.6883
  832TIP3   OH223910   2.843   1.738   0.013 -0.0608 -0.1117 -0.0139
  832TIP3    H123911   2.922   1.780   0.048 -1.3245  2.2738  0.1877
  832TIP3    H223912   2.875   1.661  -0.033  2.2220 -0.1248  1.4462
  833TIP3   OH223913   0.217   3.842  14.841 -0.1393  0.1759  0.4086
  833TIP3    H123914   0.189   3.752  14.852 -0.3455  0.1103 -0.5740
  833TIP3    H223915   0.145   3.894  14.876  0.7095 -0.0237  2.6150
  834TIP3   OH223916   4.081   5.700   0.182  0.4315 -0.1894  0.2680
  834TIP3    H123917   4.065   5.788   0.216 -0.0956 -0.3839  0.5312
  834TIP3    H223918   4.125   5.654   0.253 -0.3913 -0.5022  0.5849
  835TIP3   OH223919   6.767   6.551   0.755  0.0385  0.1660 -0.0477
  835TIP3    H123920   6.679   6.513   0.747  0.0676 -0.0629  0.6020
  835TIP3    H223921   6.798   6.521   0.841  0.5299  0.7045 -0.0287
  836TIP3   OH223922   4.064   0.962  11.567 -0.1797 -0.0859 -0.7430
  836TIP3    H123923   4.093   0.949  11.657 -1.0599 -1.1631 -0.5950
  836TIP3    H223924   4.110   1.041  11.538 -0.5548  0.7794  0.9267
  837TIP3   OH223925   2.577   4.885  12.106 -0.2006 -0.6721 -0.0712
  837TIP3    H123926   2.571   4.916  12.016  1.7042 -0.8571 -0.2947
  837TIP3    H223927   2.573   4.789  12.098  1.2419 -0.7545 -0.1274
  838TIP3   OH223928   1.384   6.081   2.504 -0.0255  0.1093  0.1090
  838TIP3    H123929   1.389   6.176   2.494 -2.6802  0.8168  3.5354
  838TIP3    H223930   1.464   6.058   2.552 -0.9390  1.3346  2.4138
  839TIP3   OH223931   2.196   5.744  13.280  0.6136  0.3512  0.0395
  839TIP3    H123932   2.230   5.832  13.265  0.1910  0.3107 -1.2534
  839TIP3    H223933   2.227   5.693  13.205 -3.1723  0.5846 -1.8960
  840TIP3   OH223934   5.692   0.601  10.675  0.4103  0.3315 -0.0886
  840TIP3    H123935   5.702   0.686  10.718  1.5005  0.1158  0.1249
  840TIP3    H223936   5.598   0.585  10.674  0.2473  1.1758  0.5833
  841TIP3   OH223937   1.241   4.612   4.530  0.6655  0.1865  0.8315
  841TIP3    H123938   1.245   4.707   4.521 -0.2032  0.1164 -0.4644
  841TIP3    H223939   1.216   4.580   4.443  2.3395 -1.3353  0.8348
  842TIP3   OH223940   6.035   0.612   3.656  0.0953 -0.1351 -0.2712
  842TIP3    H123941   6.061   0.701   3.680  2.3832 -0.5924 -0.8239
  842TIP3    H223942   5.995   0.576   3.735  0.3870  0.9240  0.3686
  843TIP3   OH223943   2.200   4.271   3.312 -0.3731  0.1038 -0.8527
  843TIP3    H123944   2.279   4.231   3.350 -1.1253 -0.4271  0.1873
  843TIP3    H223945   2.144   4.197   3.290 -1.2262  0.5336 -0.1521
  844TIP3   OH223946   5.115   5.049  13.046  0.0451 -0.2347 -0.0926
  844TIP3    H123947   5.187   4.995  13.013  1.0011  0.7050  0.3697
  844TIP3    H223948   5.039   5.022  12.995  0.8015 -1.0154 -0.8476
  845TIP3   OH223949   2.421   4.522  17.078 -0.1939  0.4698  0.1654
  845TIP3    H123950   2.399   4.585  17.147  0.8903  0.6840  0.3482
  845TIP3    H223951   2.360   4.450  17.090 -0.2580  0.6662  1.1344
  846TIP3   OH223952   2.074   3.402  17.193 -0.2694  0.1434  0.0635
  846TIP3    H123953   2.148   3.344  17.174  1.0548  1.1788  1.7839
  846TIP3    H223954   1.997   3.344  17.192  0.9348 -1.5705  1.2665
  847TIP3   OH223955   0.316   4.983   0.005  0.0489  0.0555  0.1559
  847TIP3    H123956   0.226   5.001  -0.022  0.9758  1.2440 -2.4531
  847TIP3    H223957   0.349   5.068   0.035  0.0912 -0.5543  1.9359
  848TIP3   OH223958   6.164   4.477  11.971  0.7319 -0.7300 -0.4589
  848TIP3    H123959   6.135   4.460  11.882 -1.8811 -0.7620  0.3019
  848TIP3    H223960   6.195   4.568  11.969  0.8780 -0.7949 -1.4277
  849TIP3   OH223961   2.553   2.862   4.455  0.0141  0.3174  0.0623
  849TIP3    H123962   2.599   2.851   4.539 -1.1983 -1.5178  0.5371
  849TIP3    H223963   2.461   2.868   4.479 -0.2645  0.8757 -1.0961
  850TIP3   OH223964   2.175   6.043  15.005  0.4448 -0.6068  0.2696
  850TIP3    H123965   2.171   5.950  15.027  1.2701 -0.8791 -0.6668
  850TIP3    H223966   2.180   6.046  14.910  0.4968  0.3957  0.2873
  851TIP3   OH223967   3.974   0.547  16.712  0.2923 -0.1192 -0.3038
  851TIP3    H123968   3.958   0.637  16.682 -0.0937 -0.8688 -2.5380
  851TIP3    H223969   3.992   0.498  16.632 -0.3816 -2.2336  0.7649
  852TIP3   OH223970   2.015   5.992   2.270  0.4692 -0.0027  0.5224
  852TIP3    H123971   2.105   6.001   2.301  0.2162  1.4235  0.9312
  852TIP3    H223972   2.010   6.053   2.196 -0.5666  1.1439  1.4929
  853TIP3   OH223973   1.732   2.085   3.094 -0.2421  0.1343  0.0814
  853TIP3    H123974   1.668   2.073   3.165 -0.9867  0.4832 -0.5205
  853TIP3    H223975   1.735   2.000   3.050 -1.3264  0.5055 -0.7325
  854TIP3   OH223976   5.970   3.794  11.602  0.1362  0.0003 -0.0074
  854TIP3    H123977   5.894   3.808  11.658 -0.4359  1.2289 -1.0581
  854TIP3    H223978   6.005   3.882  11.586  1.5897 -0.5137  0.1845
  855TIP3   OH223979   4.484   0.398  15.060  0.4053 -0.6422  0.3643
  855TIP3    H123980   4.450   0.323  15.012  1.1796 -0.2053 -0.9410
  855TIP3    H223981   4.454   0.386  15.150 -0.1658 -2.0758  0.0012
  856TIP3   OH223982   1.593   0.685   5.132  0.1321  0.5158  0.0184
  856TIP3    H123983   1.639   0.629   5.195  0.5933  0.2974 -0.5069
  856TIP3    H223984   1.555   0.625   5.068 -0.9521  0.6902  0.4718
  857TIP3   OH223985   2.699   0.808   5.494 -0.3657  0.2402  0.0911
  857TIP3    H123986   2.615   0.829   5.452  0.2617  2.3748 -0.2521
  857TIP3    H223987   2.713   0.715   5.476 -2.4678 -0.0621 -0.1568
  858TIP3   OH223988   6.211   5.855  13.751 -0.6608 -0.1806 -0.3904
  858TIP3    H123989   6.230   5.761  13.744 -0.2260 -0.1432  0.2000
  858TIP3    H223990   6.116   5.861  13.741 -0.8237 -0.7981  0.6292
  859TIP3   OH223991   1.955   1.211  14.762 -0.1652  0.3248 -0.5947
  859TIP3    H123992   1.891   1.275  14.730 -0.7591 -0.1815 -0.4241
  859TIP3    H223993   2.026   1.214  14.697 -0.2268  1.0912 -0.6330
  860TIP3   OH223994   5.630   4.102  11.654 -0.0020  0.2420 -0.1329
  860TIP3    H123995   5.623   4.067  11.566  1.3673 -1.8064  0.4898
  860TIP3    H223996   5.673   4.187  11.643  2.0780 -0.8905 -1.3399
  861TIP3   OH223997   5.333   3.402  17.159 -0.2155  0.2403 -0.0732
  861TIP3    H123998   5.282   3.343  17.214  0.4772  0.8946  1.3213
  861TIP3    H223999   5.270   3.466  17.127 -0.6634 -0.2733 -0.2278
  862TIP3   OH224000   0.565   1.244   1.562 -0.1378  0.2387  0.1971
  862TIP3    H124001   0.617   1.172   1.598 -0.4767  0.5145  1.2602
  862TIP3    H224002   0.625   1.288   1.502 -0.3003 -1.6817 -1.5105
  863TIP3   OH224003   4.585   0.060  13.217  0.2566  0.0331 -0.6411
  863TIP3    H124004   4.551   0.139  13.259  1.8813  0.8838 -0.8688
  863TIP3    H224005   4.674   0.051  13.250  0.4119 -1.1905 -1.3340
  864TIP3   OH224006   2.848   4.913   4.726 -0.2151 -0.0578 -0.5423
  864TIP3    H124007   2.909   4.882   4.659 -0.0283  1.6621 -1.2085
  864TIP3    H224008   2.863   5.007   4.731 -1.9981  0.2393  0.1071
  865TIP3   OH224009   5.010   1.160   1.019 -0.7176  0.0957  0.6303
  865TIP3    H124010   4.944   1.186   0.955  0.9056  0.4159 -0.9834
  865TIP3    H224011   5.042   1.243   1.055 -0.4597 -0.0108  0.6492
  866TIP3   OH224012   3.009   4.017   2.057 -0.4864 -0.0495  0.1928
  866TIP3    H124013   3.072   3.998   2.127 -0.3256 -1.4028 -0.2892
  866TIP3    H224014   2.925   3.991   2.093 -1.0005  2.6850  1.2111
  867TIP3   OH224015   3.962   5.129  14.269  0.3348 -0.0174 -0.5270
  867TIP3    H124016   3.941   5.118  14.362  2.0571  3.1669  0.3913
  867TIP3    H224017   3.898   5.193  14.238  1.4537  1.0241 -0.7459
  868TIP3   OH224018   2.570   0.647  16.981 -0.1240  0.0127 -0.0541
  868TIP3    H124019   2.585   0.721  16.922  2.6373  0.9069  1.5944
  868TIP3    H224020   2.594   0.570  16.929  0.5721  0.6237 -0.6671
  869TIP3   OH224021   3.291   3.695   1.569  0.1178 -0.0158  0.2330
  869TIP3    H124022   3.318   3.769   1.514 -2.2503  1.4592  0.9110
  869TIP3    H224023   3.356   3.627   1.550  0.5921  1.0922 -2.8323
  870TIP3   OH224024   1.814   5.147   0.012  0.0802  0.0890 -0.4538
  870TIP3    H124025   1.817   5.231   0.058 -0.6858  0.0719 -0.3654
  870TIP3    H224026   1.886   5.097   0.050 -1.1221 -0.2798  1.4366
  871TIP3   OH224027   2.774   0.074   0.615  0.5840 -0.2101  0.1620
  871TIP3    H124028   2.690   0.056   0.656  1.9990 -2.0252  2.5678
  871TIP3    H224029   2.820   0.130   0.678  0.3979  2.8657 -2.2057
  872TIP3   OH224030   0.123   5.337  16.881 -0.1609 -0.4476 -0.0234
  872TIP3    H124031   0.072   5.259  16.859  2.8975 -2.3379 -1.0900
  872TIP3    H224032   0.194   5.338  16.817  0.5794  2.6461  0.6630
  873TIP3   OH224033   2.447   4.962   4.916  0.1952 -0.1114  0.1254
  873TIP3    H124034   2.430   4.990   5.006  0.1716 -2.3015  0.8743
  873TIP3    H224035   2.496   5.034   4.877  1.3062  0.3982  2.2817
  874TIP3   OH224036   4.070   3.334   3.249 -0.7342 -0.1586  0.4005
  874TIP3    H124037   4.153   3.379   3.232  0.3276 -0.5415  3.7435
  874TIP3    H224038   4.083   3.247   3.213  0.2066 -0.1000  0.5558
  875TIP3   OH224039   4.335   6.544   0.629  0.4086  0.0995 -0.3813
  875TIP3    H124040   4.369   6.571   0.714 -1.9358  0.0293  0.6328
  875TIP3    H224041   4.339   6.624   0.576  0.7506  0.4615  0.1794
  876TIP3   OH224042   4.469   4.539  14.846  0.1244 -0.1005  0.3431
  876TIP3    H124043   4.553   4.585  14.849  1.2218 -2.0243  0.9897
  876TIP3    H224044   4.405   4.608  14.830  2.0555  1.0986 -3.5423
  877TIP3   OH224045   3.253   3.763   1.845  0.4620 -0.4141 -0.5393
  877TIP3    H124046   3.251   3.775   1.750 -1.7946 -0.0340 -0.4923
  877TIP3    H224047   3.312   3.689   1.859  0.8848 -0.4197 -2.2256
  878TIP3   OH224048   3.750   1.428  14.441 -0.2206  0.0821  0.1128
  878TIP3    H124049   3.723   1.362  14.377 -0.0124 -0.4771  0.5959
  878TIP3    H224050   3.822   1.475  14.400 -0.5189  0.1662 -0.3222
  879TIP3   OH224051   2.755   2.782   1.097  0.1131  0.6700 -0.3315
  879TIP3    H124052   2.758   2.816   1.186  1.1753  0.6988 -0.3641
  879TIP3    H224053   2.808   2.702   1.099 -1.1562 -0.2230 -0.5896
  880TIP3   OH224054   3.871   6.546  12.998  0.1401 -0.3573  0.0047
  880TIP3    H124055   3.816   6.511  12.928 -0.5153 -1.1723  0.9025
  880TIP3    H224056   3.812   6.597  13.052  0.1447 -1.5798  1.2151
  881TIP3   OH224057   6.178   5.330  15.672  0.1381 -0.3459  0.4451
  881TIP3    H124058   6.196   5.421  15.648 -0.3494  0.8374  3.9713
  881TIP3    H224059   6.258   5.283  15.649  0.3398  0.9025 -1.5956
  882TIP3   OH224060   5.166   1.770   4.959 -0.0672 -0.4327 -0.2533
  882TIP3    H124061   5.139   1.741   4.872 -1.3473 -0.2208  0.0498
  882TIP3    H224062   5.119   1.853   4.972 -0.6368 -0.9269  1.0011
  883TIP3   OH224063   4.498   4.770  10.925 -0.5158  0.3200 -0.2840
  883TIP3    H124064   4.530   4.802  11.010  1.4220 -0.4097 -0.6803
  883TIP3    H224065   4.506   4.846  10.867  3.3266 -0.4708 -1.0351
  884TIP3   OH224066   3.357   2.072   0.959  0.4473 -0.1361 -0.3940
  884TIP3    H124067   3.299   2.078   1.035  2.0191  1.6821  0.7440
  884TIP3    H224068   3.396   1.985   0.966 -0.8574 -0.7343 -0.2446
  885TIP3   OH224069   6.231   4.092  11.459  0.2467 -0.3167  0.1726
  885TIP3    H124070   6.264   4.005  11.438 -2.1272 -0.8003 -2.1896
  885TIP3    H224071   6.286   4.151  11.408 -1.5676 -1.0221 -2.8854
  886TIP3   OH224072   4.447   4.546   5.586 -0.2666 -0.0960 -0.2365
  886TIP3    H124073   4.432   4.551   5.680  0.7135 -3.5493  0.2278
  886TIP3    H224074   4.516   4.610   5.569  0.7746 -0.6275  1.7373
  887TIP3   OH224075   0.008   0.371   0.634  0.4236 -0.1448 -0.7061
  887TIP3    H124076   0.062   0.305   0.592  0.0445 -0.2870 -0.9688
  887TIP3    H224077  -0.023   0.329   0.714  3.3085  0.9818  1.1937
  888TIP3   OH224078   1.676   1.967   3.660  0.2084 -0.2794 -0.0104
  888TIP3    H124079   1.647   1.904   3.595  1.7847 -0.1355 -0.9071
  888TIP3    H224080   1.719   2.036   3.610  0.0773  0.6258  1.0784
  889TIP3   OH224081   4.223   0.064   0.763  0.5901 -0.2526  0.0342
  889TIP3    H124082   4.266   0.023   0.687  2.0059  0.1914  0.5686
  889TIP3    H224083   4.290   0.121   0.801 -0.5527  0.6395  0.7864
  890TIP3   OH224084   5.090   0.265   2.462 -0.4372  0.1908  0.1863
  890TIP3    H124085   5.128   0.313   2.388 -0.1934  0.6164  0.5828
  890TIP3    H224086   5.165   0.242   2.516 -0.4636 -1.3567 -0.4042
  891TIP3   OH224087   2.897   3.973  11.499  0.6154  0.3524  0.1867
  891TIP3    H124088   2.879   4.047  11.557  1.6543 -0.0094  1.0087
  891TIP3    H224089   2.890   4.010  11.410  0.1734  1.1986  0.5652
  892TIP3   OH224090   2.183   3.207  12.818  0.0838 -0.2317 -0.4125
  892TIP3    H124091   2.236   3.267  12.764 -0.2515  0.6717  0.2380
  892TIP3    H224092   2.094   3.242  12.812 -0.4876 -1.7495 -1.5190
  893TIP3   OH224093   4.800   4.029   5.828  0.5946 -0.0301  0.0330
  893TIP3    H124094   4.746   3.970   5.775 -0.3184  0.4545  0.4054
  893TIP3    H224095   4.738   4.075   5.884  1.0937  2.3566 -1.2398
  894TIP3   OH224096   3.292   4.676  16.710  0.1215 -0.1235 -0.2169
  894TIP3    H124097   3.350   4.738  16.754  2.2549 -1.1546 -1.4309
  894TIP3    H224098   3.345   4.637  16.640 -2.6434  0.3998 -2.8632
  895TIP3   OH224099   4.689   2.097  14.247 -0.2273  0.1364  0.0026
  895TIP3    H124100   4.651   2.045  14.177  0.4643  1.3953 -1.3641
  895TIP3    H224101   4.722   2.176  14.204  0.1023  1.0260  1.7667
  896TIP3   OH224102   2.279   6.781  12.597  0.0224 -0.0705 -0.0783
  896TIP3    H124103   2.253   6.785  12.505 -2.0922  0.5419  0.4656
  896TIP3    H224104   2.211   6.831  12.642  0.1440 -1.6334  1.9859
  897TIP3   OH224105   6.391   5.217   5.121  0.0074 -0.7250  0.3874
  897TIP3    H124106   6.451   5.217   5.196  1.4956 -0.0032 -0.7358
  897TIP3    H224107   6.344   5.300   5.128  1.7648  0.4367 -0.6286
  898TIP3   OH224108   6.435   0.797   2.748 -0.1117 -0.0114 -0.2811
  898TIP3    H124109   6.495   0.728   2.777  0.1126  0.6353  0.8828
  898TIP3    H224110   6.372   0.753   2.692  0.1760 -1.1131  0.2447
  899TIP3   OH224111   5.352   4.497  13.930 -0.1303 -0.3951  0.4426
  899TIP3    H124112   5.376   4.587  13.951  1.5489 -0.1315 -2.1340
  899TIP3    H224113   5.261   4.502  13.901  0.6009  0.9448 -1.8298
  900TIP3   OH224114   0.218   2.064   3.714 -0.1503 -0.5914  0.7252
  900TIP3    H124115   0.156   2.031   3.650 -1.5606  0.4755  1.4798
  900TIP3    H224116   0.172   2.136   3.757  2.4110  1.8185 -0.2356
  901TIP3   OH224117   3.588   2.556   6.372  0.2859 -0.3633 -0.0034
  901TIP3    H124118   3.565   2.473   6.413  1.9800  0.4534  2.9050
  901TIP3    H224119   3.681   2.548   6.351  0.7380  1.0684  1.2493
  902TIP3   OH224120   2.446   2.227  14.486 -0.2623 -0.0641  0.3586
  902TIP3    H124121   2.479   2.283  14.416  0.7071 -0.3424  0.5792
  902TIP3    H224122   2.365   2.189  14.451 -0.0837  0.2436 -0.3893
  903TIP3   OH224123   6.215   3.198  12.906  0.3789 -0.1076  0.4867
  903TIP3    H124124   6.272   3.232  12.975  0.5069 -2.7192  1.7880
  903TIP3    H224125   6.272   3.144  12.852 -0.3402 -0.7349  0.3295
  904TIP3   OH224126   3.761   4.258  15.076 -0.4025 -0.1279  0.6059
  904TIP3    H124127   3.849   4.269  15.112 -0.6915  0.5062  1.1343
  904TIP3    H224128   3.770   4.189  15.011  0.6487  0.4558  0.1084
  905TIP3   OH224129   5.763   1.621  16.434  0.6470 -0.3372 -0.4166
  905TIP3    H124130   5.703   1.681  16.390  0.1386 -1.1367 -0.8326
  905TIP3    H224131   5.847   1.635  16.391  0.3084 -0.6288 -1.1824
  906TIP3   OH224132   1.674   1.488  15.335  0.1015  0.6603  0.0382
  906TIP3    H124133   1.749   1.435  15.308 -0.1500  0.3309 -0.0117
  906TIP3    H224134   1.698   1.577  15.310  0.7009  0.6355  0.4802
  907TIP3   OH224135   0.368   4.698  13.132  0.0539  0.1661  0.2875
  907TIP3    H124136   0.400   4.627  13.187  0.2214  0.1551  0.1756
  907TIP3    H224137   0.445   4.753  13.117  0.3505 -0.6143 -1.1528
  908TIP3   OH224138   2.545   0.374  15.561  0.1984  0.1794 -0.0158
  908TIP3    H124139   2.477   0.325  15.514 -0.3566  1.5415 -0.6664
  908TIP3    H224140   2.600   0.306  15.600 -1.0072 -0.9635 -0.2306
  909TIP3   OH224141   4.884   2.385   0.752  0.0613 -0.5865  0.3711
  909TIP3    H124142   4.880   2.448   0.823  1.5686 -1.0214  0.8898
  909TIP3    H224143   4.794   2.354   0.741 -0.5131  0.8781  0.7892
  910TIP3   OH224144   5.551   5.529  11.771 -0.4156  0.3208  0.0721
  910TIP3    H124145   5.514   5.584  11.840  1.2395 -0.1486  1.4050
  910TIP3    H224146   5.476   5.479  11.737 -1.4993  1.5742  0.5464
  911TIP3   OH224147   3.882   1.493   5.281 -0.0633 -0.4885 -0.7574
  911TIP3    H124148   3.958   1.446   5.316  0.0205 -0.0377 -0.3313
  911TIP3    H224149   3.808   1.459   5.331  0.1068  0.4478  0.1675
  912TIP3   OH224150   4.079   4.495  11.420 -0.1691  0.2754  0.2161
  912TIP3    H124151   4.072   4.521  11.512 -0.0277 -1.7439  0.8419
  912TIP3    H224152   4.008   4.432  11.407 -0.0103  0.3144 -0.9886
  913TIP3   OH224153   6.090   0.165   3.370 -0.0661  0.1885 -0.4118
  913TIP3    H124154   6.030   0.099   3.403  0.4087  0.0940  0.2978
  913TIP3    H224155   6.045   0.249   3.383  0.6999  0.2875  1.9090
  914TIP3   OH224156   4.988   0.961   2.064  0.3705 -0.3978 -0.1132
  914TIP3    H124157   5.030   0.883   2.028  1.5670  0.6701 -1.1252
  914TIP3    H224158   5.057   1.007   2.112 -0.5624 -0.4392  1.3237
  915TIP3   OH224159   2.414   2.712  11.625  0.2744  0.3334  0.3412
  915TIP3    H124160   2.342   2.745  11.679  0.3925 -0.5700  1.0891
  915TIP3    H224161   2.379   2.708  11.536 -0.3177  0.7161  0.5562
  916TIP3   OH224162   2.200   3.222  14.965  0.5850 -0.2208 -0.0892
  916TIP3    H124163   2.236   3.199  14.879  2.6809  0.2871  0.5891
  916TIP3    H224164   2.186   3.137  15.008 -0.5436 -0.4778 -0.9344
  917TIP3   OH224165   2.515   6.631  11.215  0.3183  0.1686  0.4812
  917TIP3    H124166   2.429   6.621  11.255 -0.6735  0.8013 -1.3580
  917TIP3    H224167   2.516   6.569  11.143 -0.2244  2.7671 -1.9588
  918TIP3   OH224168   4.503   4.803  11.773  0.1289 -0.5677 -0.4401
  918TIP3    H124169   4.562   4.730  11.790  0.4889 -0.2150 -0.1698
  918TIP3    H224170   4.448   4.808  11.851  0.6857  0.0042 -0.0809
  919TIP3   OH224171   1.094   6.420   5.805 -0.4740  0.3175 -0.6994
  919TIP3    H124172   1.091   6.337   5.852  0.6426  0.5104 -0.2695
  919TIP3    H224173   1.053   6.483   5.864  1.7138  0.7427  0.4590
  920TIP3   OH224174   1.221   2.432  11.396  0.1222 -0.4404  0.6454
  920TIP3    H124175   1.127   2.450  11.386 -0.0769 -1.9563 -0.7538
  920TIP3    H224176   1.246   2.478  11.475 -1.7623  0.1952  0.9281
  921TIP3   OH224177   2.253   2.033  12.998  0.1382  0.0714  0.5399
  921TIP3    H124178   2.243   1.963  13.062 -0.4223  0.3615  0.7856
  921TIP3    H224179   2.343   2.063  13.009  0.0919  0.0253  1.1117
  922TIP3   OH224180   3.856   1.498  10.725  0.7554  0.5392 -0.5262
  922TIP3    H124181   3.838   1.453  10.642  0.7416  0.9638 -0.7549
  922TIP3    H224182   3.811   1.445  10.791 -1.5717  1.6680 -1.1050
  923TIP3   OH224183   0.174   6.235   1.822  0.1976 -0.1588  0.1429
  923TIP3    H124184   0.225   6.263   1.746 -0.3404  0.9148  0.1755
  923TIP3    H224185   0.097   6.291   1.823 -0.8621 -1.5584  0.2835
  924TIP3   OH224186   3.385   4.566  11.243 -0.1939  0.4765 -0.3421
  924TIP3    H124187   3.387   4.475  11.270  1.1041  0.8735  1.0199
  924TIP3    H224188   3.300   4.576  11.199 -1.2745 -0.8773  1.3140
  925TIP3   OH224189   2.706   4.900   3.547  0.1592  0.3197 -0.1790
  925TIP3    H124190   2.644   4.834   3.519 -0.5359  0.9224 -0.0811
  925TIP3    H224191   2.734   4.942   3.466 -0.4649  0.8402 -0.1291
  926TIP3   OH224192   3.295   5.691   2.667 -0.1820  0.0614 -0.0452
  926TIP3    H124193   3.342   5.767   2.700 -0.0634 -0.1721  0.3278
  926TIP3    H224194   3.363   5.635   2.629 -0.3683  0.5466 -1.1341
  927TIP3   OH224195   0.270   2.849   0.675  0.6391 -0.2435 -0.3166
  927TIP3    H124196   0.308   2.789   0.611  1.9290  0.5164 -0.2893
  927TIP3    H224197   0.188   2.807   0.701  0.5488 -1.0193 -1.7612
  928TIP3   OH224198   0.669   2.246   3.578  0.0522  0.9301  0.1077
  928TIP3    H124199   0.602   2.212   3.518  1.4680 -0.5291 -0.7105
  928TIP3    H224200   0.629   2.240   3.664  0.3398 -3.5433  0.1392
  929TIP3   OH224201   2.862   2.084   1.617 -0.4961  0.2810  0.1453
  929TIP3    H124202   2.852   2.036   1.535  1.3667  0.7476 -0.3984
  929TIP3    H224203   2.816   2.031   1.682  0.7147 -1.7729 -0.6060
  930TIP3   OH224204   1.833   3.753  12.937 -0.1129 -0.0417 -0.5101
  930TIP3    H124205   1.834   3.812  13.012  0.5028  1.8999 -1.9641
  930TIP3    H224206   1.807   3.668  12.974 -0.3985  0.9550  1.7723
  931TIP3   OH224207   4.197   1.017   6.409  0.0163 -0.2952  0.3335
  931TIP3    H124208   4.135   1.080   6.373 -0.3638 -0.7928  0.1029
  931TIP3    H224209   4.203   1.040   6.502 -0.4259 -0.1724  0.3336
  932TIP3   OH224210   4.185   0.228  15.854  0.1901 -0.0189 -0.0850
  932TIP3    H124211   4.195   0.134  15.868  0.4856  0.0882  0.4269
  932TIP3    H224212   4.160   0.263  15.939  0.0377  0.3612 -0.2830
  933TIP3   OH224213   1.472   2.548  16.770 -0.0667 -0.0526 -0.3465
  933TIP3    H124214   1.465   2.465  16.816  1.6903  0.7254  1.4396
  933TIP3    H224215   1.394   2.597  16.796 -0.7881 -0.8491 -0.9181
  934TIP3   OH224216   5.620   3.061  16.160  0.0439 -0.0663  0.3025
  934TIP3    H124217   5.652   3.150  16.178 -2.2772  0.8696  0.2187
  934TIP3    H224218   5.594   3.064  16.068 -0.4385 -0.6901  0.4139
  935TIP3   OH224219   6.729   3.193   4.245  0.1174 -0.2884 -0.1691
  935TIP3    H124220   6.667   3.227   4.181 -0.2593 -1.1335 -0.2740
  935TIP3    H224221   6.698   3.104   4.264  0.7679 -0.3955  0.4725
  936TIP3   OH224222   1.834   3.797  15.785  0.0663 -0.7931 -0.7295
  936TIP3    H124223   1.786   3.874  15.817  0.5075 -0.7060 -0.2731
  936TIP3    H224224   1.785   3.770  15.707 -0.1998 -0.1562 -0.7943
  937TIP3   OH224225   0.236   0.849  16.799 -0.5073  0.4796 -0.5759
  937TIP3    H124226   0.153   0.802  16.785 -0.0195 -0.1765 -1.3752
  937TIP3    H224227   0.298   0.806  16.739 -0.0016  2.0501 -1.2261
  938TIP3   OH224228   5.344   3.686  15.175  0.2515  0.1841  0.3610
  938TIP3    H124229   5.350   3.734  15.258 -1.8335  1.6150 -0.2543
  938TIP3    H224230   5.415   3.722  15.122 -0.8416  2.1830  0.1575
  939TIP3   OH224231   0.764   1.914  12.475 -0.2169  0.7996 -0.2823
  939TIP3    H124232   0.702   1.985  12.492 -0.6312  0.6944 -1.2891
  939TIP3    H224233   0.713   1.834  12.492  0.5668  0.6953  1.9777
  940TIP3   OH224234   1.731   4.349  12.509 -0.0944  0.0648 -0.5401
  940TIP3    H124235   1.816   4.324  12.547 -0.0091 -1.2498 -1.5293
  940TIP3    H224236   1.668   4.290  12.550 -0.2784 -0.0798 -1.0216
  941TIP3   OH224237   3.643   1.294  15.645  0.2955  0.4118 -0.4760
  941TIP3    H124238   3.561   1.343  15.633 -0.4712 -0.7298 -0.0681
  941TIP3    H224239   3.704   1.358  15.681 -0.8648  0.9458  0.6500
  942TIP3   OH224240   2.648   0.329   2.613  0.4494 -0.0998  1.0310
  942TIP3    H124241   2.650   0.241   2.574 -0.4262 -0.2226  1.2382
  942TIP3    H224242   2.581   0.323   2.681 -1.9419  1.5622 -1.0106
  943TIP3   OH224243   5.454   4.338  14.595 -0.3437  0.0600 -0.3775
  943TIP3    H124244   5.398   4.415  14.603 -0.0571  0.2644 -0.3200
  943TIP3    H224245   5.478   4.315  14.685 -0.2264  0.0531 -0.4101
  944TIP3   OH224246   1.141   6.209   3.033 -0.5142 -0.2607  0.4192
  944TIP3    H124247   1.201   6.153   2.984 -0.2505  0.5685 -0.2302
  944TIP3    H224248   1.187   6.292   3.043 -1.5883  0.4397 -0.2168
  945TIP3   OH224249   0.353   5.693   2.343 -0.3534 -0.3739 -0.6501
  945TIP3    H124250   0.365   5.632   2.416 -0.3824  0.0636 -0.2740
  945TIP3    H224251   0.287   5.652   2.288 -0.4508 -0.6346 -0.3431
  946TIP3   OH224252   4.139   1.415  13.145  0.6109  0.0871 -0.3913
  946TIP3    H124253   4.169   1.493  13.099  0.5954  1.3715  1.6800
  946TIP3    H224254   4.049   1.403  13.115  0.3190  1.3972 -0.0890
  947TIP3   OH224255   2.388   2.915   2.037  0.4127  0.2006 -0.2218
  947TIP3    H124256   2.385   3.006   2.065  1.9490  0.3032 -0.3167
  947TIP3    H224257   2.422   2.867   2.112  0.2007 -0.2021 -0.3779
  948TIP3   OH224258   6.519   5.784  13.476  0.1590  0.1951  0.2931
  948TIP3    H124259   6.584   5.850  13.500 -0.7983  1.2653  0.0481
  948TIP3    H224260   6.512   5.726  13.552  1.3445  0.0960  0.3332
  949TIP3   OH224261   4.749   1.678   2.237 -0.2164 -0.6631  0.0967
  949TIP3    H124262   4.752   1.584   2.255 -1.4046 -0.5060  1.2356
  949TIP3    H224263   4.656   1.699   2.236 -0.0488  0.1940 -2.0016
  950TIP3   OH224264   0.820   4.083  17.079  0.5186 -0.5811  0.0493
  950TIP3    H124265   0.784   4.105  17.166  0.0684 -2.8556  0.5109
  950TIP3    H224266   0.743   4.076  17.023  0.7063 -0.3244 -0.2429
  951TIP3   OH224267   6.615   1.400   2.165  0.2750 -0.6594 -0.2493
  951TIP3    H124268   6.651   1.414   2.252  2.1340 -0.7634 -0.9530
  951TIP3    H224269   6.611   1.304   2.156  0.8950 -0.6569 -0.5810
  952TIP3   OH224270   0.029   6.706  11.801  0.0406  0.1090  0.3548
  952TIP3    H124271   0.111   6.739  11.839  0.0328 -0.0078  0.4724
  952TIP3    H224272   0.019   6.755  11.719  1.1680 -1.1530 -0.5806
  953TIP3   OH224273   4.354   6.206  16.850 -0.1231 -0.1943 -0.1014
  953TIP3    H124274   4.300   6.283  16.863 -1.1452 -0.5941 -1.7450
  953TIP3    H224275   4.442   6.233  16.878 -0.6669  1.2118  0.3140
  954TIP3   OH224276   2.150   3.251  10.929  0.4268 -0.0905  0.1786
  954TIP3    H124277   2.166   3.169  10.883  1.6521  0.2824 -0.0884
  954TIP3    H224278   2.108   3.308  10.863 -0.6652 -0.5666  0.4396
  955TIP3   OH224279   6.165   0.120  14.703 -0.1034 -0.0470 -0.4318
  955TIP3    H124280   6.223   0.196  14.689 -0.6739  0.6423  0.8110
  955TIP3    H224281   6.079   0.151  14.676 -0.0368 -0.8619 -1.6438
  956TIP3   OH224282   5.261   4.426   1.544 -0.1452 -0.1603 -0.1069
  956TIP3    H124283   5.219   4.349   1.581 -0.9994  0.3281 -0.0331
  956TIP3    H224284   5.341   4.393   1.503 -1.0199 -1.2395 -0.9849
  957TIP3   OH224285   4.250   1.591  11.255  0.9495 -0.8084  0.1250
  957TIP3    H124286   4.281   1.681  11.259  0.1506 -0.4448 -1.2937
  957TIP3    H224287   4.167   1.596  11.208 -0.1844 -2.0316  1.8529
  958TIP3   OH224288   2.214   6.599  13.834  0.2512  0.1633  0.2449
  958TIP3    H124289   2.225   6.563  13.922 -0.9350  0.1566  0.4031
  958TIP3    H224290   2.298   6.641  13.815  0.6575 -0.1793  1.2179
  959TIP3   OH224291   4.541   2.191  13.442 -0.1949  0.1265  0.1043
  959TIP3    H124292   4.462   2.217  13.489 -0.4116 -0.7513  0.2454
  959TIP3    H224293   4.511   2.173  13.353  0.0976  1.1306 -0.2115
  960TIP3   OH224294   4.414   6.558   4.632  0.2819 -0.5678 -0.4042
  960TIP3    H124295   4.493   6.553   4.578  0.5964 -1.2033  0.0992
  960TIP3    H224296   4.420   6.482   4.690 -0.0526  0.1068  0.5276
  961TIP3   OH224297   5.237   2.674  14.590 -0.1751  0.1143 -0.1916
  961TIP3    H124298   5.163   2.614  14.595 -0.1543  0.1836  1.3492
  961TIP3    H224299   5.301   2.638  14.652 -0.6414  2.3586  1.6782
  962TIP3   OH224300   3.540   3.646  16.911 -0.3443 -0.1651  0.0400
  962TIP3    H124301   3.582   3.690  16.837 -0.1817  0.5026  0.5214
  962TIP3    H224302   3.533   3.713  16.978  0.7546 -1.1029  1.1356
  963TIP3   OH224303   5.648   2.891  15.238 -0.2116  0.3279  0.0649
  963TIP3    H124304   5.726   2.846  15.207  0.1466  1.6418 -1.0756
  963TIP3    H224305   5.662   2.902  15.332  0.3273 -0.6726  0.1059
  964TIP3   OH224306   6.282   1.096   3.297 -0.1289 -0.8385 -0.2493
  964TIP3    H124307   6.192   1.126   3.286  0.9566  3.7590  1.1832
  964TIP3    H224308   6.319   1.100   3.208 -0.9853 -1.5236 -0.6478
  965TIP3   OH224309   5.489   3.199   2.176 -0.0798 -0.4629  0.2479
  965TIP3    H124310   5.404   3.240   2.163  0.7380  0.8641 -1.3143
  965TIP3    H224311   5.511   3.162   2.090  0.7768 -1.1063  0.7191
  966TIP3   OH224312   2.729   1.374  14.298 -0.4521 -0.1046 -0.3394
  966TIP3    H124313   2.678   1.389  14.378 -0.1635  0.2836 -0.2275
  966TIP3    H224314   2.694   1.437  14.235 -1.4861 -1.1992 -0.8982
  967TIP3   OH224315   5.427   4.103   5.040 -0.2260  0.2397  0.2149
  967TIP3    H124316   5.409   4.145   4.956  2.9580 -0.1496 -0.7755
  967TIP3    H224317   5.486   4.162   5.085 -0.9502 -0.1243  1.7069
  968TIP3   OH224318   5.108   5.601  13.564 -0.0074  0.0888  0.1684
  968TIP3    H124319   5.096   5.694  13.542 -0.9843 -0.1780 -0.5148
  968TIP3    H224320   5.145   5.563  13.484  0.8131 -0.0393  0.5995
  969TIP3   OH224321   6.124   3.145   1.296 -0.7340 -0.0050 -0.2610
  969TIP3    H124322   6.063   3.094   1.350 -1.6780 -1.3732 -2.4950
  969TIP3    H224323   6.176   3.195   1.360 -2.0411 -1.2072  1.8708
  970TIP3   OH224324   3.819   4.786  16.761 -0.0067 -0.1765  0.6845
  970TIP3    H124325   3.910   4.763  16.747 -0.1310  0.1589 -0.8720
  970TIP3    H224326   3.821   4.875  16.796  0.2402  1.1613 -2.4193
  971TIP3   OH224327   0.678   1.665  12.683  0.0296  0.7584 -0.0398
  971TIP3    H124328   0.758   1.649  12.733 -0.6942  0.8521  1.1943
  971TIP3    H224329   0.624   1.719  12.741 -0.2193  2.1921 -1.5527
  972TIP3   OH224330   1.239   0.498   4.346  0.3178 -0.1166  0.2754
  972TIP3    H124331   1.285   0.559   4.287  0.8100  0.2438  1.0222
  972TIP3    H224332   1.195   0.437   4.287  0.6962  0.3180 -0.4742
  973TIP3   OH224333   3.285   0.295  15.066  0.2342 -0.6706 -0.2863
  973TIP3    H124334   3.248   0.366  15.014 -0.4529  1.0599  2.3563
  973TIP3    H224335   3.291   0.331  15.155  2.1523 -3.1330  0.6991
  974TIP3   OH224336   3.619   4.035  11.372  0.1181 -0.2481 -0.2764
  974TIP3    H124337   3.561   3.959  11.372 -0.0334 -0.1301  0.0352
  974TIP3    H224338   3.648   4.042  11.281 -0.3137 -0.3387 -0.4226
  975TIP3   OH224339   6.696   3.674  13.966  0.0940 -0.0074  0.8090
  975TIP3    H124340   6.681   3.761  13.931  0.2272  0.2326  1.3366
  975TIP3    H224341   6.770   3.685  14.026  0.5658 -0.6178  0.3474
  976TIP3   OH224342   1.448   5.318   2.940 -0.1327 -0.2900  0.2940
  976TIP3    H124343   1.532   5.298   2.899  0.9449  1.6188  1.4259
  976TIP3    H224344   1.435   5.411   2.921 -3.4612 -1.0998 -2.3475
  977TIP3   OH224345   2.848   0.586   3.850 -0.1113 -0.3189 -0.1998
  977TIP3    H124346   2.753   0.597   3.854 -0.2071  0.0091 -2.2213
  977TIP3    H224347   2.861   0.491   3.845  0.0262 -0.8155  4.6500
  978TIP3   OH224348   4.791   0.996   0.358 -0.5649 -0.5798 -0.6480
  978TIP3    H124349   4.843   0.987   0.438  0.0893 -0.4028 -1.0394
  978TIP3    H224350   4.821   0.924   0.302 -0.3395 -0.1590 -1.0859
  979TIP3   OH224351   0.237   1.000   6.622  0.0517  0.3672 -0.0347
  979TIP3    H124352   0.320   0.978   6.580  0.4481  0.0636  0.8677
  979TIP3    H224353   0.176   0.932   6.593  1.3440 -2.4036  2.9994
  980TIP3   OH224354   6.217   3.243   3.799 -0.9746  0.0405 -0.3718
  980TIP3    H124355   6.195   3.333   3.773 -2.4369  0.3456  1.6530
  980TIP3    H224356   6.180   3.234   3.887  2.4818 -1.2854  1.1103
  981TIP3   OH224357   1.091   5.594   0.383 -0.1065 -0.5638 -0.1154
  981TIP3    H124358   1.057   5.684   0.385 -1.1009 -0.8973 -1.1540
  981TIP3    H224359   1.038   5.547   0.447  0.1969 -0.4867  0.1938
  982TIP3   OH224360   0.688   3.095  12.723  0.1629  0.4852 -0.8501
  982TIP3    H124361   0.764   3.144  12.753 -1.4383  3.1663 -0.9226
  982TIP3    H224362   0.646   3.064  12.803  0.3072  0.5846 -0.7348
  983TIP3   OH224363   3.502   3.594  14.728  0.8642 -0.2271  0.4164
  983TIP3    H124364   3.462   3.513  14.759 -0.1446 -0.2185 -0.7850
  983TIP3    H224365   3.462   3.610  14.642  1.8139  0.9878  0.1602
  984TIP3   OH224366   2.034   4.835   5.261 -0.2439 -0.5275  0.3111
  984TIP3    H124367   2.069   4.773   5.324 -0.6191  0.0768  1.1233
  984TIP3    H224368   2.033   4.919   5.306 -1.9192 -0.3540  0.0465
  985TIP3   OH224369   0.092   3.449   5.157  0.1577 -0.5772  0.2208
  985TIP3    H124370   0.001   3.481   5.157  0.6641  1.1084 -1.6405
  985TIP3    H224371   0.087   3.362   5.197 -2.2413 -0.4787  0.3122
  986TIP3   OH224372   4.137   1.576  16.770 -0.0360 -0.1557 -0.6784
  986TIP3    H124373   4.193   1.555  16.845  0.6997  0.5077 -1.0243
  986TIP3    H224374   4.049   1.580  16.806  0.4665  1.6512  0.4887
  987TIP3   OH224375   1.701   0.951  11.475 -0.1999 -0.6355  0.1739
  987TIP3    H124376   1.606   0.958  11.467 -0.1312 -0.2804 -0.3853
  987TIP3    H224377   1.715   0.898  11.553 -0.8637 -0.9266  0.1019
  988TIP3   OH224378   6.063   4.003   4.349 -0.3716 -0.4878 -0.1179
  988TIP3    H124379   6.060   4.039   4.260 -1.0231 -1.4508 -0.5033
  988TIP3    H224380   6.155   3.984   4.365 -0.0801  0.8572 -0.0923
  989TIP3   OH224381   4.366   5.895   2.154 -0.3453 -0.1434 -0.4278
  989TIP3    H124382   4.422   5.966   2.184 -1.5334  1.0238 -0.8279
  989TIP3    H224383   4.288   5.939   2.120 -1.4210 -1.6807 -0.0809
  990TIP3   OH224384   3.766   2.435  12.113  0.2094  0.4243 -0.0807
  990TIP3    H124385   3.805   2.348  12.115  0.2032  0.3368 -1.7646
  990TIP3    H224386   3.758   2.455  12.019 -2.0272  1.2171  0.2143
  991TIP3   OH224387   6.180   4.245   5.248  0.0428  0.1468  0.7447
  991TIP3    H124388   6.095   4.258   5.206  0.7973  2.5783 -0.2513
  991TIP3    H224389   6.220   4.172   5.201 -0.8249  0.0706  0.1015
  992TIP3   OH224390   4.731   5.021   2.266 -0.6884 -0.3603 -0.3563
  992TIP3    H124391   4.692   4.949   2.217 -0.7914 -0.1345 -0.6121
  992TIP3    H224392   4.819   4.990   2.288 -0.0694  0.1001 -2.0028
  993TIP3   OH224393   2.984   4.807   6.382  0.3529  0.6262 -0.5615
  993TIP3    H124394   3.062   4.768   6.422  0.5479 -0.0021 -1.5129
  993TIP3    H224395   2.937   4.733   6.345 -1.1436  0.8970  0.7079
  994TIP3   OH224396   3.574   2.394   0.091 -0.4016  0.2503 -0.4819
  994TIP3    H124397   3.668   2.382   0.076 -0.3660 -1.6505  0.8625
  994TIP3    H224398   3.543   2.441   0.014  1.6275  0.8313 -1.0045
  995TIP3   OH224399   2.937   1.866  12.495  0.3330  0.4971  0.0497
  995TIP3    H124400   2.850   1.892  12.527 -0.6543 -0.1408 -1.9576
  995TIP3    H224401   2.991   1.944  12.507 -1.5864  2.3911 -2.4317
  996TIP3   OH224402   0.101   3.199  15.812 -0.4517 -0.1414 -0.2421
  996TIP3    H124403   0.158   3.165  15.881 -1.4530 -0.8534  0.2767
  996TIP3    H224404   0.130   3.155  15.732  0.2166  0.0911 -0.1297
  997TIP3   OH224405   1.292   5.730  15.369  0.4468 -0.7564 -0.0522
  997TIP3    H124406   1.305   5.644  15.329 -0.1145 -0.5463 -0.6869
  997TIP3    H224407   1.197   5.741  15.372  0.4913 -0.5538  0.8875
  998TIP3   OH224408   0.284   1.496  16.886 -0.0923  0.0455  0.4598
  998TIP3    H124409   0.215   1.439  16.919  0.3393 -1.0121 -0.4311
  998TIP3    H224410   0.311   1.547  16.962 -0.8161 -0.5916  1.1617
  999TIP3   OH224411   1.950   3.123  13.597  0.0901  0.0025  0.2956
  999TIP3    H124412   2.004   3.199  13.575 -1.7000  1.6587  1.2675
  999TIP3    H224413   1.878   3.159  13.649 -2.6002 -1.8611 -1.8300
 1000TIP3   OH224414   0.866   0.730   3.532 -0.5604 -0.2198 -0.3715
 1000TIP3    H124415   0.951   0.775   3.537  0.0985 -1.5401  1.3621
 1000TIP3    H224416   0.826   0.745   3.618 -0.8387 -1.8786 -0.1800
 1001TIP3   OH224417   6.250   3.289  14.387  0.0015  0.4151 -0.1109
 1001TIP3    H124418   6.307   3.262  14.315  1.2834  2.6148 -0.0327
 1001TIP3    H224419   6.224   3.378  14.365 -2.1514  0.0413  0.6763
 1002TIP3   OH224420   3.594   3.763   0.468  0.9191 -0.0445 -0.0581
 1002TIP3    H124421   3.566   3.774   0.559  0.6722  2.9145 -0.4043
 1002TIP3    H224422   3.671   3.706   0.473  1.6844  1.0843  2.1659
 1003TIP3   OH224423   3.821   5.302  13.780 -0.2449  0.1036 -0.1322
 1003TIP3    H124424   3.897   5.275  13.831 -0.5347 -0.9007 -0.1933
 1003TIP3    H224425   3.765   5.224  13.778  0.2512 -0.2909 -2.9108
 1004TIP3   OH224426   5.647   4.353   3.226 -0.6429 -0.1431  0.2808
 1004TIP3    H124427   5.721   4.397   3.184 -1.3209 -0.0099 -0.8151
 1004TIP3    H224428   5.603   4.305   3.155 -0.6287 -1.6246  1.2261
 1005TIP3   OH224429   5.462   0.674   3.153  0.1645 -0.5532  0.2689
 1005TIP3    H124430   5.395   0.670   3.085 -0.1218 -2.0878  0.6100
 1005TIP3    H224431   5.543   0.696   3.106  0.1182 -2.2680 -0.7235
 1006TIP3   OH224432   0.816   1.719   1.169  0.1009 -1.1070  0.3101
 1006TIP3    H124433   0.806   1.813   1.152 -1.6675 -1.1853  0.7285
 1006TIP3    H224434   0.815   1.679   1.082  0.8461 -0.7600  0.1307
 1007TIP3   OH224435   5.521   5.438  13.856 -0.0173  0.0372 -0.1249
 1007TIP3    H124436   5.466   5.370  13.894 -0.4869  0.9137  0.8432
 1007TIP3    H224437   5.463   5.514  13.849  1.2278  1.2283  1.6833
 1008TIP3   OH224438   4.087   1.361   1.774  0.5199 -0.1151  0.1964
 1008TIP3    H124439   4.036   1.281   1.775 -1.0463  0.7941 -1.4801
 1008TIP3    H224440   4.128   1.365   1.860 -1.4572 -1.3929  1.2475
 1009TIP3   OH224441   3.911   2.975   3.732 -0.1479 -0.4250 -0.3667
 1009TIP3    H124442   3.909   2.904   3.668 -1.0238  0.4343 -1.3246
 1009TIP3    H224443   3.848   2.949   3.799 -0.2257 -0.6860 -0.5393
 1010TIP3   OH224444   3.985   4.419  16.393  0.2017  0.2453  0.3960
 1010TIP3    H124445   3.998   4.331  16.428  1.1954 -0.5117 -1.7455
 1010TIP3    H224446   4.072   4.448  16.367 -0.0899  1.9528  1.1511
 1011TIP3   OH224447   2.400   3.884  13.898 -0.5973  0.8355 -0.1576
 1011TIP3    H124448   2.309   3.860  13.913 -1.1152  1.8094 -1.4759
 1011TIP3    H224449   2.441   3.880  13.984 -1.4330 -1.3414  0.1997
 1012TIP3   OH224450   0.283   0.127   4.461 -0.3846  0.0957 -0.6540
 1012TIP3    H124451   0.250   0.192   4.399 -0.2800  1.4315  0.6206
 1012TIP3    H224452   0.322   0.059   4.407  0.3260  1.5359 -2.0514
 1013TIP3   OH224453   2.304   4.043  13.697 -0.2060  0.4020 -0.2735
 1013TIP3    H124454   2.214   4.074  13.687 -0.4708  0.9847  2.7966
 1013TIP3    H224455   2.322   4.054  13.791  2.7283 -0.6478 -0.6261
 1014TIP3   OH224456   2.560   3.459   4.404 -0.4414 -0.0003 -0.5631
 1014TIP3    H124457   2.501   3.402   4.453 -1.5505 -0.8504 -2.7143
 1014TIP3    H224458   2.544   3.436   4.312  2.1403  0.8623 -1.3111
 1015TIP3   OH224459   2.182   5.759   3.209 -0.1989 -0.0619 -0.1782
 1015TIP3    H124460   2.104   5.737   3.158  0.1024 -1.1147 -0.2049
 1015TIP3    H224461   2.178   5.700   3.284  0.9412 -0.6175 -0.5461
 1016TIP3   OH224462   6.737   2.761   0.746 -0.4580 -0.3124 -0.4156
 1016TIP3    H124463   6.650   2.726   0.768  0.1197 -2.3468 -1.1461
 1016TIP3    H224464   6.786   2.685   0.715  1.4059  0.9145 -0.6161
 1017TIP3   OH224465   0.364   1.891  11.074  0.0593 -0.8310  0.5168
 1017TIP3    H124466   0.345   1.976  11.035 -0.5973 -1.0581  0.3251
 1017TIP3    H224467   0.446   1.864  11.034 -1.3109 -1.7530 -1.9546
 1018TIP3   OH224468   5.304   3.543  14.680 -0.2168 -0.5198  0.3472
 1018TIP3    H124469   5.374   3.569  14.620 -2.3081 -1.0165 -2.5154
 1018TIP3    H224470   5.344   3.476  14.736  1.8858  0.0593 -0.3666
 1019TIP3   OH224471   4.298   4.040  14.702  0.0774 -0.4405  0.0695
 1019TIP3    H124472   4.268   4.051  14.792 -0.3401 -1.1233  0.0246
 1019TIP3    H224473   4.247   3.966  14.669 -1.1617  0.9717 -1.3453
 1020TIP3   OH224474   6.497   5.893   5.869 -0.3243  0.4860 -0.5345
 1020TIP3    H124475   6.423   5.894   5.807 -0.3961 -0.6623 -0.4980
 1020TIP3    H224476   6.458   5.915   5.953 -0.1082  2.7705 -0.9742
 1021TIP3   OH224477   1.982   2.345  14.303  0.2367 -0.0814  0.0814
 1021TIP3    H124478   1.960   2.252  14.310  1.0904 -0.2268  1.0077
 1021TIP3    H224479   1.957   2.368  14.213  1.2803 -1.5510 -0.6367
 1022TIP3   OH224480   3.882   0.107  16.167  0.1370  0.1137  0.0170
 1022TIP3    H124481   3.878   0.019  16.203 -1.0061  0.1228 -0.0336
 1022TIP3    H224482   3.872   0.164  16.244  1.7798  0.2352  0.1642
 1023TIP3   OH224483   5.391   2.535  15.206 -0.4120  0.1779  0.4069
 1023TIP3    H124484   5.367   2.551  15.298 -0.0332  0.6534  0.4293
 1023TIP3    H224485   5.478   2.496  15.211 -0.5054 -0.0544  0.2558
 1024TIP3   OH224486   2.686   1.372   3.409  0.1162  0.0197  0.0685
 1024TIP3    H124487   2.684   1.374   3.313  2.9291 -0.1550 -0.0646
 1024TIP3    H224488   2.723   1.286   3.430  0.5550  0.4833  1.2557
 1025TIP3   OH224489   5.565   3.735  15.004  0.6441  0.1218  0.2910
 1025TIP3    H124490   5.582   3.824  14.975  1.7986 -0.0873  0.2718
 1025TIP3    H224491   5.652   3.694  15.008  0.2693 -0.6057  1.5694
 1026TIP3   OH224492   0.859   4.817   0.752  0.4143  0.2775  0.2553
 1026TIP3    H124493   0.797   4.767   0.698 -0.1292 -1.8207  2.6419
 1026TIP3    H224494   0.938   4.822   0.699 -0.4311 -0.6782 -1.1865
 1027TIP3   OH224495   4.142   4.047  13.970 -0.3003 -0.2305  0.1946
 1027TIP3    H124496   4.230   4.082  13.956  0.0536 -1.1421  0.0814
 1027TIP3    H224497   4.106   4.036  13.882  0.6771 -2.8105  0.0197
 1028TIP3   OH224498   4.592   2.429  14.450 -0.2790  0.0673  0.3402
 1028TIP3    H124499   4.613   2.409  14.359  0.0108 -0.2406  0.4723
 1028TIP3    H224500   4.613   2.522  14.460 -0.6530  0.1893 -0.0013
 1029TIP3   OH224501   1.794   1.727  11.993  0.1902 -0.2201  0.2264
 1029TIP3    H124502   1.849   1.795  12.031 -0.3551 -0.0671  0.7527
 1029TIP3    H224503   1.754   1.683  12.068  0.9733 -1.5055 -0.0715
 1030TIP3   OH224504   2.491   4.056  13.248  0.4503  0.1312 -0.3083
 1030TIP3    H124505   2.533   3.972  13.231  1.8108  0.9905 -1.4183
 1030TIP3    H224506   2.399   4.042  13.226  0.1080 -1.7473  1.9772
 1031TIP3   OH224507   0.289   3.771  13.676  0.2320  0.1944  0.2304
 1031TIP3    H124508   0.285   3.779  13.771  0.3149  2.9414  0.0685
 1031TIP3    H224509   0.218   3.710  13.654  2.1049 -2.9959  2.1664
 1032TIP3   OH224510   6.381   0.990  11.532 -0.0777  0.1763  0.1941
 1032TIP3    H124511   6.346   0.912  11.575 -2.0878  1.3457  0.8408
 1032TIP3    H224512   6.475   0.984  11.544 -0.3131 -1.3289  1.6451
 1033TIP3   OH224513   3.630   3.719  10.575  0.3250 -0.1124  0.2318
 1033TIP3    H124514   3.587   3.642  10.538  1.5511  0.1831 -1.9766
 1033TIP3    H224515   3.574   3.792  10.550 -0.2610 -0.1461  1.3783
 1034TIP3   OH224516   0.138   1.676  16.215 -0.0462  0.5171 -0.1161
 1034TIP3    H124517   0.207   1.733  16.180 -0.3803  0.6841 -0.5155
 1034TIP3    H224518   0.181   1.628  16.286  0.9459 -0.5380 -1.3735
 1035TIP3   OH224519   3.179   4.456  11.677 -0.1008 -0.6980  0.0677
 1035TIP3    H124520   3.223   4.407  11.607  0.3773 -0.1990  0.0104
 1035TIP3    H224521   3.154   4.389  11.741 -0.8664 -1.2044 -0.7424
 1036TIP3   OH224522   1.181   2.308   2.322 -0.8652  0.0985 -0.6741
 1036TIP3    H124523   1.166   2.215   2.307  0.6353 -0.1694 -0.7063
 1036TIP3    H224524   1.260   2.328   2.272  1.4452  0.3191  2.6732
 1037TIP3   OH224525   3.832   2.155  15.989 -0.1274  0.1457 -0.2678
 1037TIP3    H124526   3.816   2.241  16.028 -1.1016 -1.0304  2.0779
 1037TIP3    H224527   3.927   2.145  15.991 -0.0826  0.6729  0.5786
 1038TIP3   OH224528   4.744   6.224   0.244 -0.2987  0.1347  0.1014
 1038TIP3    H124529   4.731   6.150   0.304 -0.5297 -0.9563 -1.2383
 1038TIP3    H224530   4.761   6.298   0.301  0.7439 -1.1011  1.4906
 1039TIP3   OH224531   1.023   1.298  15.280 -0.1899 -0.6582 -0.1530
 1039TIP3    H124532   1.032   1.379  15.230 -0.6825 -0.8543 -0.5661
 1039TIP3    H224533   0.934   1.300  15.314 -0.9619 -1.9969 -1.9269
 1040TIP3   OH224534   0.787   1.683  10.654 -0.1370 -0.5474 -0.5309
 1040TIP3    H124535   0.878   1.656  10.641 -0.1518 -0.3468 -1.0720
 1040TIP3    H224536   0.772   1.670  10.747  0.1289 -1.5702 -0.6146
 1041TIP3   OH224537   5.506   3.838   4.685  0.5112 -0.3297  0.0206
 1041TIP3    H124538   5.580   3.894   4.706  1.0905 -0.9071 -0.4380
 1041TIP3    H224539   5.451   3.891   4.628  0.2630  0.3082  0.8298
 1042TIP3   OH224540   6.187   5.965  10.874  0.5055  0.0934  0.1169
 1042TIP3    H124541   6.106   5.925  10.842  0.3099 -0.3346  1.0976
 1042TIP3    H224542   6.224   6.009  10.798 -2.0474  2.6904  0.1689
 1043TIP3   OH224543   5.042   5.358  12.643 -0.3135 -0.0984 -0.0198
 1043TIP3    H124544   5.035   5.442  12.688 -0.1371 -0.2121  0.2260
 1043TIP3    H224545   5.088   5.378  12.562  1.3741 -0.2219  0.8425
 1044TIP3   OH224546   0.614   6.533  13.657  0.5641 -0.0219 -0.1273
 1044TIP3    H124547   0.572   6.591  13.594 -0.5298  1.1716  1.6208
 1044TIP3    H224548   0.549   6.464  13.673 -0.1005  0.8794  1.2782
 1045TIP3   OH224549   5.840   4.835  15.935 -0.4640  0.0953 -0.1919
 1045TIP3    H124550   5.792   4.797  15.862  2.1065 -1.1454 -1.3515
 1045TIP3    H224551   5.772   4.874  15.991 -2.8330 -2.0709 -1.3652
 1046TIP3   OH224552   6.634   5.326   1.191 -0.0815 -0.6225  0.3508
 1046TIP3    H124553   6.568   5.371   1.137 -0.2616  0.2051  1.2299
 1046TIP3    H224554   6.585   5.256   1.234 -0.3484 -0.1702  0.8027
 1047TIP3   OH224555   5.853   2.604  15.806  0.0616  0.3756 -0.7960
 1047TIP3    H124556   5.906   2.579  15.731  1.8959  1.0742  0.1984
 1047TIP3    H224557   5.763   2.587  15.779  0.6078  1.0989 -3.3364
 1048TIP3   OH224558   3.921   0.397   1.923  0.2908  0.3362  0.2852
 1048TIP3    H124559   3.971   0.416   2.003  0.6828 -0.2454  0.1835
 1048TIP3    H224560   3.958   0.457   1.858 -0.4077  1.2099  0.6662
 1049TIP3   OH224561   2.464   1.227  16.374  0.4645 -0.0167  0.9162
 1049TIP3    H124562   2.509   1.143  16.371 -0.9567 -0.9876  3.3397
 1049TIP3    H224563   2.371   1.204  16.383 -0.3132  1.8763 -1.1590
 1050TIP3   OH224564   0.276   6.775  16.423 -0.2582  0.2411  0.8234
 1050TIP3    H124565   0.253   6.686  16.398  0.0920  0.0459  1.1878
 1050TIP3    H224566   0.372   6.777  16.419 -0.2889  0.9147 -0.2403
 1051TIP3   OH224567   1.277   4.451   0.418  0.1781  0.0038  0.8205
 1051TIP3    H124568   1.354   4.465   0.363  1.0332 -0.8610  1.7492
 1051TIP3    H224569   1.293   4.502   0.496 -0.6115  0.5028  0.6718
 1052TIP3   OH224570   4.556   5.431   0.187  0.7460  0.7055 -0.1077
 1052TIP3    H124571   4.463   5.407   0.186  0.6932  0.9091 -1.2399
 1052TIP3    H224572   4.600   5.354   0.152  0.9786  0.7370  0.1164
 1053TIP3   OH224573   2.928   3.549   1.239  0.1171 -0.0796 -0.6312
 1053TIP3    H124574   2.860   3.513   1.296 -0.2657 -1.9112 -2.1398
 1053TIP3    H224575   2.883   3.564   1.156  1.0188  1.0459 -0.9436
 1054TIP3   OH224576   6.208   5.848  11.317 -0.7957 -0.7870  0.4529
 1054TIP3    H124577   6.168   5.911  11.257 -0.0106 -0.0659  0.6716
 1054TIP3    H224578   6.301   5.872  11.319 -0.7193 -1.1036  1.5805
 1055TIP3   OH224579   6.349   1.733   4.617 -0.2964  0.2258  0.2611
 1055TIP3    H124580   6.371   1.826   4.606 -0.7456  0.2277 -0.7971
 1055TIP3    H224581   6.295   1.713   4.540 -0.8625 -0.7127  0.8898
 1056TIP3   OH224582   3.671   1.924  13.742  0.5695 -0.0816  0.2503
 1056TIP3    H124583   3.643   1.897  13.654  0.5305 -1.2615  0.6035
 1056TIP3    H224584   3.600   1.978  13.774  0.6691  0.5250 -0.5157
 1057TIP3   OH224585   5.162   1.054  12.757  0.7360 -0.6838 -0.1302
 1057TIP3    H124586   5.229   1.110  12.718  1.5015 -0.2125  1.7517
 1057TIP3    H224587   5.079   1.097  12.737  1.2970  1.0389  1.0908
 1058TIP3   OH224588   0.172   2.336   6.383 -0.4001 -0.5609  0.1003
 1058TIP3    H124589   0.259   2.299   6.367 -0.4046  0.0644 -1.5976
 1058TIP3    H224590   0.181   2.428   6.360 -1.0226 -0.0015  1.9044
 1059TIP3   OH224591   0.508   0.093   4.616  0.3772  0.2030 -0.6748
 1059TIP3    H124592   0.554   0.044   4.548 -0.2087 -0.1109 -0.8454
 1059TIP3    H224593   0.424   0.115   4.578 -0.6740 -1.4606  0.5115
 1060TIP3   OH224594   1.287   5.169   3.737 -0.4538  0.2656  0.1442
 1060TIP3    H124595   1.270   5.263   3.732 -0.9968  0.1137 -1.4873
 1060TIP3    H224596   1.206   5.132   3.773 -0.9607  0.2549 -0.9708
 1061TIP3   OH224597   3.220   6.745   2.526  0.6020  0.3411 -0.3539
 1061TIP3    H124598   3.174   6.749   2.609 -0.0298  1.1674 -0.7293
 1061TIP3    H224599   3.238   6.836   2.504 -1.0863  0.3266 -2.1095
 1062TIP3   OH224600   4.854   1.006   6.356  0.7846 -0.2170 -0.1532
 1062TIP3    H124601   4.890   0.965   6.277  0.1630 -0.8047 -0.1506
 1062TIP3    H224602   4.765   0.970   6.362  0.9196 -0.3911  0.9697
 1063TIP3   OH224603   4.953   1.184   3.638 -0.0403 -0.8735 -0.5809
 1063TIP3    H124604   4.932   1.234   3.717 -1.1932 -0.6351 -1.0089
 1063TIP3    H224605   4.969   1.095   3.669  1.6174 -0.3521  0.1425
 1064TIP3   OH224606   5.418   2.606  13.588 -0.2713 -0.5494 -0.4849
 1064TIP3    H124607   5.461   2.681  13.628  0.8666 -1.1182 -0.6170
 1064TIP3    H224608   5.344   2.644  13.540  0.5848  0.5337 -0.9798
 1065TIP3   OH224609   1.691   5.954  12.149  0.5221  0.5943 -0.1103
 1065TIP3    H124610   1.651   6.041  12.146  0.3347  0.4893 -0.7610
 1065TIP3    H224611   1.622   5.895  12.119  0.7902  0.2704 -0.0942
 1066TIP3   OH224612   5.418   5.819  13.244 -0.5235 -0.1897  0.3123
 1066TIP3    H124613   5.483   5.883  13.216 -1.4539  1.7936  2.3751
 1066TIP3    H224614   5.467   5.737  13.251  1.6695  1.1026  1.2761
 1067TIP3   OH224615   6.441   1.920  12.182 -0.2872  0.1654 -0.1669
 1067TIP3    H124616   6.462   1.938  12.090  2.5101 -2.1623 -0.1254
 1067TIP3    H224617   6.387   1.841  12.179 -0.2179  0.1038  0.1687
 1068TIP3   OH224618   0.060   0.992  13.712 -0.0918 -0.0886  0.8677
 1068TIP3    H124619   0.131   0.945  13.669 -1.5818 -0.7442 -0.9955
 1068TIP3    H224620   0.072   0.975  13.805  2.4815  0.2862  0.6661
 1069TIP3   OH224621   0.771   2.366   6.397 -0.3828 -0.4915  0.1975
 1069TIP3    H124622   0.734   2.280   6.375 -0.3766 -0.7474  1.1314
 1069TIP3    H224623   0.825   2.349   6.474  2.2691 -0.2520 -1.4941
 1070TIP3   OH224624   3.773   1.159  11.333 -0.1104  0.4058  0.5085
 1070TIP3    H124625   3.791   1.176  11.240  1.4661  1.8805  1.0135
 1070TIP3    H224626   3.682   1.186  11.345 -0.7316 -0.9435 -0.8281
 1071TIP3   OH224627   1.132   5.024  11.967  0.3121 -0.4060  0.2207
 1071TIP3    H124628   1.063   5.076  11.927 -1.2504 -0.9501  2.0586
 1071TIP3    H224629   1.096   4.997  12.052  2.8880 -0.4574  1.4048
 1072TIP3   OH224630   3.746   2.067   1.002 -0.2260  0.5249  0.0209
 1072TIP3    H124631   3.697   2.100   1.078  1.0825  1.1483  0.6273
 1072TIP3    H224632   3.833   2.045   1.037  0.4208  0.8594 -1.3052
 1073TIP3   OH224633   2.742   5.029   5.972  0.3463  0.2736  0.2722
 1073TIP3    H124634   2.728   5.122   5.955 -2.5044  0.1866  1.6254
 1073TIP3    H224635   2.818   5.006   5.918  0.5699  3.1414 -0.8055
 1074TIP3   OH224636   2.110   6.262  14.455 -0.2418  0.0448  0.8134
 1074TIP3    H124637   2.073   6.262  14.543 -1.4744  0.7989  0.3214
 1074TIP3    H224638   2.050   6.208  14.404  0.1363  0.1053  0.2953
 1075TIP3   OH224639   4.278   4.716  12.952 -0.1303  0.1779 -0.2654
 1075TIP3    H124640   4.305   4.677  13.035 -0.8152  0.0551 -0.0895
 1075TIP3    H224641   4.232   4.645  12.907  0.7952  0.0518 -1.0371
 1076TIP3   OH224642   4.684   5.665  11.916 -0.2904  0.2888 -0.2141
 1076TIP3    H124643   4.744   5.688  11.987  0.9354 -1.4972 -0.6047
 1076TIP3    H224644   4.724   5.705  11.838 -1.4497  1.9545  0.0068
 1077TIP3   OH224645   0.231   1.305   4.394 -0.2446  0.3165 -0.0698
 1077TIP3    H124646   0.324   1.321   4.378  0.0919 -1.4042 -0.0542
 1077TIP3    H224647   0.192   1.392   4.395  1.0608  1.0030 -1.9620
 1078TIP3   OH224648   3.679   0.743  17.057  0.0086 -0.2499  0.4951
 1078TIP3    H124649   3.761   0.701  17.028 -0.4920 -0.6905 -0.3118
 1078TIP3    H224650   3.628   0.672  17.095 -0.4823 -0.2198 -0.0849
 1079TIP3   OH224651   0.429   6.170  16.934  0.5862 -0.3057 -0.4143
 1079TIP3    H124652   0.462   6.178  17.024  0.7328  1.3259 -0.5897
 1079TIP3    H224653   0.337   6.194  16.940  0.7347  0.3714 -0.7804
 1080TIP3   OH224654   2.762   2.357  12.224  0.1177  0.3369 -0.3428
 1080TIP3    H124655   2.782   2.430  12.165 -1.8626  0.3708 -1.0498
 1080TIP3    H224656   2.731   2.399  12.305  0.1720  0.2783 -0.2908
 1081TIP3   OH224657   3.872   1.188  15.220  0.0862 -0.0359 -0.3112
 1081TIP3    H124658   3.905   1.255  15.160 -0.3059 -0.1067 -0.6121
 1081TIP3    H224659   3.777   1.191  15.210 -0.0443  0.5016  0.9023
 1082TIP3   OH224660   0.105   0.999  14.694 -0.3930 -0.3053 -0.1921
 1082TIP3    H124661   0.082   0.949  14.772 -1.8575 -0.7727 -0.8820
 1082TIP3    H224662   0.191   1.036  14.713  0.3401 -2.3256  0.7160
 1083TIP3   OH224663   2.425   0.972  16.989 -0.1919 -0.4519  0.4673
 1083TIP3    H124664   2.516   0.943  16.986 -0.1002 -0.0974 -0.7927
 1083TIP3    H224665   2.430   1.063  17.018  0.1899  0.6194 -2.5747
 1084TIP3   OH224666   0.085   4.485   1.820 -0.0027 -0.0219 -0.6940
 1084TIP3    H124667   0.026   4.429   1.770  0.7810 -0.0093 -1.6678
 1084TIP3    H224668   0.085   4.448   1.908 -1.1760 -0.2351 -0.7672
 1085TIP3   OH224669   3.379   1.952   1.886  0.1853  0.2121 -0.3341
 1085TIP3    H124670   3.475   1.958   1.886  0.2342 -0.2707  1.2654
 1085TIP3    H224671   3.349   2.034   1.923 -0.0009  0.0771 -0.1852
 1086TIP3   OH224672   5.742   3.731   2.889  0.1384  0.4214  0.2989
 1086TIP3    H124673   5.837   3.736   2.892  0.1753  0.8075 -1.1559
 1086TIP3    H224674   5.717   3.702   2.977  1.6221 -0.2235  0.5364
 1087TIP3   OH224675   1.287   5.278   3.252  0.0262 -0.1976  0.0712
 1087TIP3    H124676   1.330   5.293   3.337 -0.1536  0.5489  0.0343
 1087TIP3    H224677   1.359   5.279   3.189  0.0455  0.3354  0.0936
 1088TIP3   OH224678   1.516   3.261  12.900  0.4578  0.1031 -0.9941
 1088TIP3    H124679   1.590   3.210  12.932  0.5194  0.1888 -1.0009
 1088TIP3    H224680   1.442   3.200  12.903  0.2896  0.3402  0.0737
 1089TIP3   OH224681   4.815   5.814  13.040  0.1889 -0.0013  0.0826
 1089TIP3    H124682   4.732   5.789  12.998 -0.3565 -2.5796  2.4345
 1089TIP3    H224683   4.877   5.747  13.014  0.7377  0.2488  0.7218
 1090TIP3   OH224684   6.709   6.381  15.009 -0.1217  0.5551 -0.2628
 1090TIP3    H124685   6.689   6.470  14.980 -0.2265  0.6487  0.0979
 1090TIP3    H224686   6.787   6.357  14.958  0.9151  1.4748  0.8192
 1091TIP3   OH224687   3.076   1.525  13.362  0.1992 -0.0714 -0.2114
 1091TIP3    H124688   2.983   1.503  13.371  0.3126 -0.3856  0.2732
 1091TIP3    H224689   3.120   1.440  13.356  0.6019  0.0097  1.1674
 1092TIP3   OH224690   6.230   1.172   3.694 -0.6172  0.5136 -0.4320
 1092TIP3    H124691   6.274   1.242   3.646 -0.7296  0.7834 -0.1413
 1092TIP3    H224692   6.280   1.093   3.673  0.8521  1.0194  0.9937
 1093TIP3   OH224693   3.679   1.615  12.204  0.4423 -0.0805  0.1069
 1093TIP3    H124694   3.752   1.675  12.215  0.0512  0.1131  1.9155
 1093TIP3    H224695   3.720   1.528  12.206  0.6526  0.0316  0.8541
 1094TIP3   OH224696   5.854   4.579   4.298 -0.0839  0.4830  0.1977
 1094TIP3    H124697   5.945   4.558   4.320  1.2910  5.1665  0.0420
 1094TIP3    H224698   5.844   4.550   4.207  1.0553 -0.5260  0.3729
 1095TIP3   OH224699   3.114   1.899  16.574  0.1188 -0.4068  0.0183
 1095TIP3    H124700   3.070   1.916  16.490  0.4898 -1.8296 -0.4955
 1095TIP3    H224701   3.153   1.983  16.598  1.0280 -0.2493 -1.8500
 1096TIP3   OH224702   2.533   1.179   5.573 -1.3159  0.1885  0.3555
 1096TIP3    H124703   2.510   1.173   5.480  0.0262 -1.9461  0.1058
 1096TIP3    H224704   2.480   1.112   5.616 -0.5839 -0.1039  0.8216
 1097TIP3   OH224705   4.739   0.724   1.821  0.2170  0.3418  0.3019
 1097TIP3    H124706   4.736   0.703   1.728 -1.2876  0.8298  0.2126
 1097TIP3    H224707   4.791   0.654   1.860  3.3614  1.6172 -1.2542
 1098TIP3   OH224708   4.470   6.349   3.979  0.3898 -0.0394 -0.2456
 1098TIP3    H124709   4.430   6.377   3.897 -0.9345 -0.1674  0.3338
 1098TIP3    H224710   4.409   6.378   4.047 -0.3603 -3.0304  0.4903
 1099TIP3   OH224711   6.124   3.666   3.191  0.5257  0.1461  0.4040
 1099TIP3    H124712   6.135   3.581   3.148  4.5618 -0.5665  2.3543
 1099TIP3    H224713   6.209   3.708   3.182 -0.5600  2.8675  1.8477
 1100TIP3   OH224714   0.900   5.953   6.108  0.7282  0.2011  0.7141
 1100TIP3    H124715   0.834   5.884   6.114  1.1709 -0.5347 -1.7851
 1100TIP3    H224716   0.863   6.026   6.157 -0.1766 -1.4527  2.6670
 1101TIP3   OH224717   6.561   3.947  15.094  0.0145 -0.1680 -0.2534
 1101TIP3    H124718   6.588   3.994  15.015 -1.9386  0.5300 -0.5551
 1101TIP3    H224719   6.540   3.859  15.063  0.6386 -0.3199 -0.2514
 1102TIP3   OH224720   0.485   0.663  13.610 -0.1996 -0.3421  0.0866
 1102TIP3    H124721   0.552   0.708  13.559 -0.7006 -0.2465 -0.4973
 1102TIP3    H224722   0.483   0.575  13.573 -1.3145  0.0387 -0.7921
 1103TIP3   OH224723   2.202   5.952  12.309  0.1991  0.5589 -0.0641
 1103TIP3    H124724   2.246   5.961  12.394 -3.2193  0.2682  1.9270
 1103TIP3    H224725   2.205   5.858  12.291  0.6229  0.5768 -0.1047
 1104TIP3   OH224726   5.576   3.127  17.016  0.0787  0.3939 -0.6460
 1104TIP3    H124727   5.484   3.103  17.032  0.0114  0.6152 -0.7025
 1104TIP3    H224728   5.602   3.177  17.094  0.6094 -0.9429  0.0699
 1105TIP3   OH224729   6.447   0.382   2.586  0.0439  0.0670  0.2981
 1105TIP3    H124730   6.398   0.342   2.658  1.3288  0.5199  1.4661
 1105TIP3    H224731   6.479   0.308   2.535 -2.6425 -0.2489 -1.1253
 1106TIP3   OH224732   1.224   0.708   3.747 -0.3733  0.2975 -0.2906
 1106TIP3    H124733   1.304   0.703   3.694  0.0624 -0.3665  0.4015
 1106TIP3    H224734   1.232   0.636   3.809  0.9263  3.1608  3.1722
 1107TIP3   OH224735   1.946   0.676  12.206  0.2115  0.0394 -0.1881
 1107TIP3    H124736   1.994   0.621  12.267  0.1562  1.2404  0.9924
 1107TIP3    H224737   1.944   0.626  12.124  1.8434 -0.8367  0.2691
 1108TIP3   OH224738   6.616   4.203  15.179  0.0471 -0.0491 -0.0008
 1108TIP3    H124739   6.618   4.218  15.085 -0.7296 -0.1981 -0.0468
 1108TIP3    H224740   6.574   4.117  15.189 -0.5857  0.3046  0.5114
 1109TIP3   OH224741   1.768   4.393   5.136  0.4617  0.1251 -0.4686
 1109TIP3    H124742   1.809   4.475   5.162  1.1473 -0.6164  0.8580
 1109TIP3    H224743   1.834   4.327   5.151 -0.8509 -0.9703  0.7348
 1110TIP3   OH224744   4.781   2.386   6.626 -0.2002  0.1090  0.0359
 1110TIP3    H124745   4.817   2.338   6.551  0.0641  0.2765  0.0511
 1110TIP3    H224746   4.857   2.405   6.681  0.0831  2.3777 -1.0048
 1111TIP3   OH224747   6.497   3.111   5.518 -0.7089 -0.4803 -0.7128
 1111TIP3    H124748   6.433   3.182   5.524  0.9294  1.0609 -0.6302
 1111TIP3    H224749   6.469   3.060   5.442 -2.3329 -0.2076 -0.3416
 1112TIP3   OH224750   1.963   1.166  16.457 -0.3887  0.8459 -0.2921
 1112TIP3    H124751   1.869   1.172  16.475 -0.8932 -0.7640 -2.1084
 1112TIP3    H224752   1.969   1.160  16.362  1.3783 -1.3148 -0.1202
 1113TIP3   OH224753   2.149   4.645   5.467 -0.3736 -0.5274 -0.3001
 1113TIP3    H124754   2.190   4.576   5.519 -0.6038  0.0018  0.6188
 1113TIP3    H224755   2.101   4.697   5.531 -0.2443  0.4547 -0.9769
 1114TIP3   OH224756   2.306   5.452  11.798  0.3358  0.5127 -0.1751
 1114TIP3    H124757   2.277   5.538  11.766 -0.6523  1.0168  1.9003
 1114TIP3    H224758   2.241   5.391  11.764 -1.0970  1.1301  1.3127
 1115TIP3   OH224759   1.723   0.703   2.483  0.3748  0.2173  0.2926
 1115TIP3    H124760   1.771   0.667   2.557 -1.2418  3.4435  3.2329
 1115TIP3    H224761   1.633   0.712   2.515 -0.2974  2.2939 -1.8537
 1116TIP3   OH224762   3.145   1.330  12.293 -0.0615 -0.3029  0.8039
 1116TIP3    H124763   3.058   1.312  12.257  1.1966 -2.0550 -1.6924
 1116TIP3    H224764   3.188   1.245  12.296  2.7263  0.8234 -1.5042
 1117TIP3   OH224765   1.137   6.616   4.637 -0.2478 -0.9172  0.2480
 1117TIP3    H124766   1.204   6.632   4.703  1.6068  0.7472 -1.9012
 1117TIP3    H224767   1.151   6.525   4.611  0.7264 -0.8068  0.3465
 1118TIP3   OH224768   6.751   5.762  16.129 -0.2638  0.0093 -0.3157
 1118TIP3    H124769   6.813   5.721  16.070 -0.4675  0.0502 -0.5598
 1118TIP3    H224770   6.754   5.855  16.108  0.4639  0.1758  0.4866
 1119TIP3   OH224771   6.648   0.863   4.575  0.5577  0.3956  0.0699
 1119TIP3    H124772   6.699   0.789   4.608  0.2937 -0.3726 -1.1877
 1119TIP3    H224773   6.558   0.832   4.574  0.5883  0.2923 -1.5972
 1120TIP3   OH224774   2.933   2.846   2.851 -0.2921  0.7584  0.8018
 1120TIP3    H124775   3.019   2.809   2.868 -0.8023 -0.4508  0.9082
 1120TIP3    H224776   2.893   2.854   2.938 -0.9884 -0.5534  0.6426
 1121TIP3   OH224777   3.451   3.805  11.426 -0.0182  0.0711  0.3919
 1121TIP3    H124778   3.435   3.767  11.339  0.1172  1.1939 -0.1432
 1121TIP3    H224779   3.373   3.782  11.476 -0.3264 -0.1684 -0.1836
 1122TIP3   OH224780   5.873   0.806  14.643 -0.1266  0.1138 -0.1808
 1122TIP3    H124781   5.910   0.857  14.715 -0.1762 -0.1265  0.0171
 1122TIP3    H224782   5.885   0.861  14.566  1.0519 -0.1309 -0.1947
 1123TIP3   OH224783   5.535   4.782   5.040 -0.0747 -0.4545 -0.5203
 1123TIP3    H124784   5.615   4.733   5.061  1.3272  1.5258 -0.8997
 1123TIP3    H224785   5.469   4.744   5.098  1.8367 -0.2774  2.0030
 1124TIP3   OH224786   1.804   3.591  14.000 -0.3024 -0.2998  0.1790
 1124TIP3    H124787   1.833   3.670  14.046 -0.2634 -0.6329  0.7351
 1124TIP3    H224788   1.826   3.519  14.060 -0.7158 -0.6970 -0.1428
 1125TIP3   OH224789   2.195   5.761  12.629 -0.3223 -0.1611 -0.2225
 1125TIP3    H124790   2.109   5.788  12.597 -0.5700 -0.0871  0.4788
 1125TIP3    H224791   2.239   5.725  12.552 -0.9297 -0.0818 -0.6176
 1126TIP3   OH224792   1.679   6.395   3.064 -0.2782 -0.1864 -0.5230
 1126TIP3    H124793   1.594   6.351   3.065  0.2992 -1.3731 -1.1126
 1126TIP3    H224794   1.713   6.385   3.153 -1.0809  0.9885 -0.0670
 1127TIP3   OH224795   4.285   0.159  15.211 -0.2668 -0.6361 -0.5563
 1127TIP3    H124796   4.252   0.190  15.127 -1.3024  2.0061  0.7155
 1127TIP3    H224797   4.223   0.194  15.275  2.4616  0.6106  1.5936
 1128TIP3   OH224798   3.187   5.769   0.743 -0.2714 -0.5878  0.0226
 1128TIP3    H124799   3.267   5.760   0.795 -0.5430  1.3446  0.8487
 1128TIP3    H224800   3.149   5.852   0.771 -1.5502 -0.5059 -1.7639
 1129TIP3   OH224801   2.551   5.852   4.221  0.4709 -0.5316 -0.4036
 1129TIP3    H124802   2.471   5.904   4.223 -0.1186 -1.2585 -2.2429
 1129TIP3    H224803   2.609   5.894   4.284 -1.3053  0.0860  0.8940
 1130TIP3   OH224804   4.669   6.568   1.249 -0.3354 -0.2426  0.4793
 1130TIP3    H124805   4.749   6.584   1.199  0.1800 -1.3015  0.9238
 1130TIP3    H224806   4.694   6.587   1.340  0.0929 -2.6205  0.9308
 1131TIP3   OH224807   1.041   2.968   0.762 -0.2709 -0.6941  0.3610
 1131TIP3    H124808   1.026   2.885   0.716  0.3809 -0.0119 -1.1323
 1131TIP3    H224809   0.954   3.008   0.768 -0.4486 -1.0547  0.2482
 1132TIP3   OH224810   2.638   3.554   3.673 -0.7830 -0.1736  0.3786
 1132TIP3    H124811   2.728   3.580   3.658 -0.7466 -1.2946 -1.7262
 1132TIP3    H224812   2.608   3.610   3.745  1.5700  0.1772  1.1640
 1133TIP3   OH224813   5.778   6.222   3.108 -0.1251  0.8756  0.2718
 1133TIP3    H124814   5.725   6.201   3.185 -1.6244  2.8573 -0.1533
 1133TIP3    H224815   5.777   6.317   3.103 -1.5012  0.8205 -3.1107
 1134TIP3   OH224816   5.785   5.578  15.971 -0.1607  0.0025 -0.7053
 1134TIP3    H124817   5.870   5.590  16.013  0.1112  2.3714 -1.7464
 1134TIP3    H224818   5.804   5.529  15.891 -0.1698 -1.4822  0.1645
 1135TIP3   OH224819   0.120   4.870   6.132  0.3961 -0.1987  0.2287
 1135TIP3    H124820   0.029   4.844   6.147  0.8910 -1.9164  0.4694
 1135TIP3    H224821   0.157   4.881   6.220  0.5958 -0.2088  0.1472
 1136TIP3   OH224822   5.846   1.282  12.222  0.3465 -0.2385  0.2416
 1136TIP3    H124823   5.861   1.367  12.180  1.0860  0.3388  1.5963
 1136TIP3    H224824   5.758   1.287  12.257  0.1332 -0.3029 -0.2810
 1137TIP3   OH224825   0.202   5.300   2.534  0.4058  0.3238 -0.5221
 1137TIP3    H124826   0.245   5.327   2.453 -2.6969  0.4654 -2.3107
 1137TIP3    H224827   0.144   5.373   2.556 -0.7413 -0.7850  0.2833
 1138TIP3   OH224828   0.027   4.771  15.646  0.4132 -0.0712 -0.1119
 1138TIP3    H124829   0.117   4.760  15.676  0.4220  0.8399  0.2250
 1138TIP3    H224830   0.013   4.699  15.585  1.4380 -0.0883 -0.3403
 1139TIP3   OH224831   3.736   1.559  11.561  0.5302  0.8199  0.3961
 1139TIP3    H124832   3.820   1.596  11.536  0.2580  1.2269  0.0733
 1139TIP3    H224833   3.757   1.500  11.634  1.5666 -1.6449 -1.7256
 1140TIP3   OH224834   3.532   3.980   5.168 -0.8598  0.0617  0.2282
 1140TIP3    H124835   3.505   3.999   5.078 -0.9382  2.0289  0.6317
 1140TIP3    H224836   3.603   3.916   5.157 -1.2839 -0.2266 -1.1755
 1141TIP3   OH224837   0.178   1.081  16.105 -0.2460  0.1755 -0.5943
 1141TIP3    H124838   0.116   1.101  16.175  2.1339 -0.5175  1.8783
 1141TIP3    H224839   0.132   1.018  16.050 -1.4053 -1.1921  1.7885
 1142TIP3   OH224840   6.274   2.288  14.162  0.1088 -0.9104  0.0678
 1142TIP3    H124841   6.332   2.277  14.086 -0.6269  2.2030 -1.0796
 1142TIP3    H224842   6.192   2.320  14.126 -0.5430 -0.1137  2.0991
 1143TIP3   OH224843   5.775   6.470  15.904 -1.1300 -0.0142  0.1068
 1143TIP3    H124844   5.763   6.420  15.985  0.3552 -0.7901 -0.1132
 1143TIP3    H224845   5.868   6.491  15.902 -0.5783 -2.1592 -2.5741
 1144TIP3   OH224846   2.279   4.796  15.907 -0.1452 -0.1439 -0.5552
 1144TIP3    H124847   2.191   4.826  15.930 -0.7406 -1.5578 -0.8998
 1144TIP3    H224848   2.293   4.718  15.961  0.3831 -0.6665 -1.4148
 1145TIP3   OH224849   3.065   2.862  15.089  0.0710  0.8352 -0.6521
 1145TIP3    H124850   3.151   2.854  15.048  0.2425 -0.1220 -0.1349
 1145TIP3    H224851   3.073   2.814  15.172 -1.5558 -1.1647 -1.5677
 1146TIP3   OH224852   3.866   3.981  14.338 -0.1067 -0.2904 -0.3292
 1146TIP3    H124853   3.912   4.044  14.392  0.5488  0.1278 -1.3409
 1146TIP3    H224854   3.874   3.898  14.385  0.3062  0.0976  0.2911
 1147TIP3   OH224855   4.685   2.475   4.755 -0.2282  0.0007 -0.4981
 1147TIP3    H124856   4.643   2.523   4.826  0.9353  1.7271 -0.9219
 1147TIP3    H224857   4.677   2.532   4.678  0.4705 -0.8369 -1.2246
 1148TIP3   OH224858   6.135   4.327  11.667 -0.3844  0.3945 -0.1616
 1148TIP3    H124859   6.227   4.304  11.681 -0.2685 -0.3149 -1.8394
 1148TIP3    H224860   6.139   4.403  11.608 -0.8647  0.0551 -0.6385
 1149TIP3   OH224861   0.935   4.411  15.924 -0.1204  0.2519 -0.4320
 1149TIP3    H124862   0.987   4.347  15.876  0.2910  0.2897 -0.0385
 1149TIP3    H224863   0.912   4.366  16.006 -1.2891 -0.0213 -0.8830
 1150TIP3   OH224864   2.203   0.184   4.331 -0.6529  0.1202 -0.5305
 1150TIP3    H124865   2.132   0.216   4.387 -1.1274 -1.2099 -0.3409
 1150TIP3    H224866   2.238   0.263   4.290  0.9594  1.4452  2.9976
 1151TIP3   OH224867   4.942   0.420  11.052 -0.0201  0.1327 -0.1318
 1151TIP3    H124868   4.977   0.465  10.976 -1.2634 -1.3139 -1.6465
 1151TIP3    H224869   4.899   0.489  11.103  0.2192  1.0240 -1.1044
 1152TIP3   OH224870   1.676   5.368   3.175 -0.6470  0.0622  0.4870
 1152TIP3    H124871   1.649   5.450   3.216 -0.5643  1.5160 -2.1155
 1152TIP3    H224872   1.598   5.313   3.175 -0.4613 -0.3080  3.0934
 1153TIP3   OH224873   5.099   3.973  12.887  1.0305  0.0642 -0.1661
 1153TIP3    H124874   5.030   3.984  12.821  0.3647 -0.1651  0.4689
 1153TIP3    H224875   5.172   4.026  12.855  0.6423  0.1256 -0.9728
 1154TIP3   OH224876   2.959   4.672  10.362  0.0482 -0.3021  0.0115
 1154TIP3    H124877   2.937   4.595  10.415 -1.7965 -0.0091 -0.2475
 1154TIP3    H224878   2.942   4.746  10.419  0.3568 -0.0513 -0.2243
 1155TIP3   OH224879   2.540   2.883  15.026 -0.0012  0.3356  0.4567
 1155TIP3    H124880   2.475   2.818  15.053  0.7259 -0.1106  1.1668
 1155TIP3    H224881   2.615   2.867  15.083  2.4770 -1.9980 -3.0718
 1156TIP3   OH224882   0.994   1.645   2.412  0.4511  0.2028  0.0566
 1156TIP3    H124883   1.039   1.565   2.388 -2.0985 -1.1721 -0.5276
 1156TIP3    H224884   1.002   1.649   2.508 -0.6378 -1.6538  0.2858
 1157TIP3   OH224885   0.382   1.097  14.649 -0.2289  0.5341  0.4635
 1157TIP3    H124886   0.408   1.039  14.577  1.0089 -0.6002  1.7420
 1157TIP3    H224887   0.325   1.162  14.608  0.3722 -0.0910 -1.5177
 1158TIP3   OH224888   5.749   5.717  12.218 -0.5669 -0.2244 -0.0414
 1158TIP3    H124889   5.825   5.764  12.251  0.6672 -1.7288 -0.6248
 1158TIP3    H224890   5.727   5.761  12.135 -0.7428  0.5905  0.4247
 1159TIP3   OH224891   1.239   5.468  10.978  0.1969 -0.0274  0.3982
 1159TIP3    H124892   1.149   5.501  10.967 -0.8236 -2.8934 -0.8005
 1159TIP3    H224893   1.233   5.375  10.957  3.2988 -0.5423  1.3184
 1160TIP3   OH224894   6.242   6.322   1.840  0.1460  0.3491 -0.3658
 1160TIP3    H124895   6.222   6.378   1.916 -0.5645  0.0908 -0.3551
 1160TIP3    H224896   6.337   6.312   1.842  0.1929  0.8395  0.1446
 1161TIP3   OH224897   2.431   2.151  16.934  0.1951  1.2469  0.0111
 1161TIP3    H124898   2.445   2.157  17.029  1.1145 -0.6100  0.0299
 1161TIP3    H224899   2.337   2.135  16.925  0.4567 -1.2663  0.8420
 1162TIP3   OH224900   3.536   6.256   0.058 -0.1410 -0.1548  0.0688
 1162TIP3    H124901   3.629   6.272   0.072 -0.2780  2.2421 -1.2827
 1162TIP3    H224902   3.524   6.264  -0.036 -1.6031 -1.2888  0.1216
 1163TIP3   OH224903   6.781   4.310  13.265 -0.2309  0.1457  0.1548
 1163TIP3    H124904   6.836   4.252  13.214 -0.9594 -0.9759  0.5883
 1163TIP3    H224905   6.691   4.285  13.241 -0.5713  2.0021 -0.6234
 1164TIP3   OH224906   5.814   2.968   1.499  0.0011  0.1182 -0.3768
 1164TIP3    H124907   5.841   3.004   1.583  2.1612  0.6516 -1.2458
 1164TIP3    H224908   5.719   2.954   1.508  0.2383 -0.2716  2.2673
 1165TIP3   OH224909   6.475   6.254  15.415  0.0930  0.2785 -0.3742
 1165TIP3    H124910   6.414   6.315  15.454  0.8156  1.0502 -0.4261
 1165TIP3    H224911   6.447   6.246  15.323  0.7359  1.5081 -0.6902
 1166TIP3   OH224912   1.333   1.571   1.374  0.5810  0.0490  0.2315
 1166TIP3    H124913   1.354   1.575   1.280 -1.1889  0.3596 -0.1900
 1166TIP3    H224914   1.237   1.579   1.377  0.5243 -0.9208  2.0167
 1167TIP3   OH224915   1.073   0.328  16.702  0.0664 -0.0280 -0.1649
 1167TIP3    H124916   1.047   0.402  16.758 -0.1305 -1.5744  1.8828
 1167TIP3    H224917   1.132   0.367  16.637  2.0812  1.5753  2.4025
 1168TIP3   OH224918   3.700   2.081   0.128  0.1871  0.2587  0.3970
 1168TIP3    H124919   3.739   2.034   0.201 -1.3000  0.3758  1.3205
 1168TIP3    H224920   3.676   2.166   0.164 -2.1932 -0.3077  0.3359
 1169TIP3   OH224921   5.811   0.959   0.444 -0.2301  0.2947  0.4124
 1169TIP3    H124922   5.834   1.035   0.391 -0.9741 -1.2449 -2.3527
 1169TIP3    H224923   5.822   0.885   0.385 -1.0493 -1.6084  2.4972
 1170TIP3   OH224924   5.512   0.778  13.498  0.4297 -0.0607 -0.1813
 1170TIP3    H124925   5.501   0.720  13.423 -0.2777  0.8002 -0.7726
 1170TIP3    H224926   5.436   0.760  13.554  1.2619 -1.1194  0.6388
 1171TIP3   OH224927   3.500   0.094  10.600  0.8444  0.5495 -0.0885
 1171TIP3    H124928   3.545   0.050  10.527 -0.2294 -2.1748  0.7351
 1171TIP3    H224929   3.562   0.090  10.672  1.0241  1.0741 -0.2148
 1172TIP3   OH224930   3.110   1.094   6.431 -0.0011  0.7027 -0.6105
 1172TIP3    H124931   3.124   1.143   6.350 -0.4461 -1.6664 -2.2116
 1172TIP3    H224932   3.020   1.062   6.425  1.2938 -3.3163 -1.4990
 1173TIP3   OH224933   3.569   4.856   1.142  0.2301  0.2622 -0.1201
 1173TIP3    H124934   3.554   4.880   1.234 -0.1770  0.4917 -0.2413
 1173TIP3    H224935   3.654   4.894   1.121 -0.2003  1.2406 -0.1807
 1174TIP3   OH224936   4.708   4.529   2.644 -0.4488  0.6685  0.0995
 1174TIP3    H124937   4.790   4.502   2.602 -0.2458 -0.3389  1.0905
 1174TIP3    H224938   4.696   4.467   2.716 -2.2304  0.6229 -0.1831
 1175TIP3   OH224939   0.788   5.467   3.541  0.7030  0.1923 -0.0053
 1175TIP3    H124940   0.785   5.371   3.538  1.2027 -0.0049  2.9432
 1175TIP3    H224941   0.879   5.489   3.524  0.6422  0.1273 -0.4163
 1176TIP3   OH224942   3.628   5.275  12.445  0.6505 -0.0441 -0.1830
 1176TIP3    H124943   3.679   5.194  12.449  2.0437  0.8247  0.9228
 1176TIP3    H224944   3.550   5.252  12.395  2.1344 -1.4465 -2.0196
 1177TIP3   OH224945   6.554   6.337   1.941 -0.1247  0.3407 -0.5030
 1177TIP3    H124946   6.527   6.313   2.030  1.8055 -1.3302 -0.2873
 1177TIP3    H224947   6.596   6.422   1.951  2.2274 -0.8446  0.7202
 1178TIP3   OH224948   5.532   5.684   3.588 -0.6612  0.1351 -0.1861
 1178TIP3    H124949   5.463   5.750   3.592 -1.0500 -0.1515 -1.5702
 1178TIP3    H224950   5.518   5.630   3.666 -1.1324  0.9051  0.2790
 1179TIP3   OH224951   1.018   5.813   2.827  0.1512  0.1196  0.3100
 1179TIP3    H124952   1.085   5.858   2.879  0.4231 -0.8916  0.8431
 1179TIP3    H224953   0.993   5.737   2.879 -1.4142  0.4649  0.1208
 1180TIP3   OH224954   6.397   0.843   1.540 -0.3049 -0.2676 -0.3886
 1180TIP3    H124955   6.378   0.749   1.539 -0.1852 -0.2973 -1.8836
 1180TIP3    H224956   6.366   0.875   1.455  0.2938  0.9203 -0.1848
 1181TIP3   OH224957   2.717   4.947  16.976  0.1819  0.1004  0.1559
 1181TIP3    H124958   2.649   4.999  17.018  0.9985  0.5550  0.9644
 1181TIP3    H224959   2.743   4.997  16.899  1.6130  1.4450  1.4145
 1182TIP3   OH224960   4.684   2.978   3.118  0.0014 -0.3231  0.2102
 1182TIP3    H124961   4.735   2.916   3.065 -0.0364  0.9300 -1.3883
 1182TIP3    H224962   4.724   2.975   3.204  0.5842 -1.8736 -0.0810
 1183TIP3   OH224963   0.185   5.889  12.963 -0.3454 -0.3092  0.0191
 1183TIP3    H124964   0.182   5.965  12.905 -0.3124  0.4073  0.9418
 1183TIP3    H224965   0.094   5.873  12.986 -0.1490  1.7620  2.7306
 1184TIP3   OH224966   4.292   5.662   5.287  0.4470 -0.4837 -0.2602
 1184TIP3    H124967   4.257   5.615   5.363  0.6391  1.9068  1.4045
 1184TIP3    H224968   4.384   5.677   5.308  0.2620  1.0816 -0.4297
 1185TIP3   OH224969   2.928   2.429   5.434  0.0850 -0.0492 -0.1205
 1185TIP3    H124970   2.884   2.358   5.387  0.0812 -0.5516  0.6144
 1185TIP3    H224971   2.923   2.403   5.526  1.3397  0.2018  0.0397
 1186TIP3   OH224972   4.712   5.550  11.149 -0.1998  0.1470  0.0429
 1186TIP3    H124973   4.708   5.501  11.066  1.7046 -1.9967  1.1072
 1186TIP3    H224974   4.627   5.594  11.155 -1.9073 -2.6995 -1.2375
 1187TIP3   OH224975   4.239   6.762  16.171  0.1227  0.0464  0.5700
 1187TIP3    H124976   4.330   6.771  16.147 -0.0585 -0.4525 -0.3323
 1187TIP3    H224977   4.238   6.689  16.234 -0.0985 -2.7338 -2.4226
 1188TIP3   OH224978   0.147   5.909  12.621  0.2163 -0.0966 -0.9518
 1188TIP3    H124979   0.187   5.827  12.649  1.8906  1.2476  0.9084
 1188TIP3    H224980   0.112   5.948  12.701  0.0615  1.3047 -1.6614
 1189TIP3   OH224981   4.809   2.786   0.870 -0.4273  0.3251  0.2427
 1189TIP3    H124982   4.889   2.820   0.829  0.3227 -0.3740  1.0806
 1189TIP3    H224983   4.740   2.808   0.808 -0.1942  4.1930  1.0753
 1190TIP3   OH224984   6.449   2.206  16.689  0.4959 -0.1918  0.0353
 1190TIP3    H124985   6.535   2.203  16.730  0.5967  1.1250 -0.0496
 1190TIP3    H224986   6.454   2.279  16.627 -1.4036  1.5502  1.7760
 1191TIP3   OH224987   5.283   5.428  12.133 -0.6933  0.0977 -0.4660
 1191TIP3    H124988   5.351   5.365  12.156 -1.1028 -0.8081 -1.6197
 1191TIP3    H224989   5.329   5.496  12.084 -0.5908 -0.5396 -1.2926
 1192TIP3   OH224990   3.437   6.128   4.726  0.3474 -0.3774  0.3370
 1192TIP3    H124991   3.419   6.161   4.638 -0.2357 -1.5512 -0.0048
 1192TIP3    H224992   3.367   6.165   4.780  0.5172  0.0835  0.2435
 1193TIP3   OH224993   0.367   2.427  16.948  0.5379  0.1363  0.4918
 1193TIP3    H124994   0.394   2.453  17.036 -1.4671 -0.5970  1.3829
 1193TIP3    H224995   0.280   2.388  16.960  0.9543 -1.6038 -1.5761
 1194TIP3   OH224996   3.484   2.913   1.708  0.0136 -0.1865 -0.9419
 1194TIP3    H124997   3.473   2.826   1.669 -1.3928  0.6766 -2.5810
 1194TIP3    H224998   3.524   2.966   1.640  0.6445  0.5251 -0.0402
 1195TIP3   OH224999   5.121   5.980  16.728  0.1707  0.1263  0.7094
 1195TIP3    H125000   5.088   6.062  16.692  2.5175  1.6812  1.8285
 1195TIP3    H225001   5.184   5.949  16.663 -1.9575 -1.8696 -0.5713
 1196TIP3   OH225002   0.249   3.046  13.785  0.3347 -0.5116  0.3393
 1196TIP3    H125003   0.310   2.974  13.767 -0.1170 -0.5540 -1.1508
 1196TIP3    H225004   0.171   3.025  13.734  0.0602  0.8560  0.1599
 1197TIP3   OH225005   4.082   2.008  13.333  0.0279 -0.0952  0.0391
 1197TIP3    H125006   4.031   2.038  13.408  1.6127 -2.1357  2.0766
 1197TIP3    H225007   4.116   2.088  13.293 -2.5899  1.1541  0.1358
 1198TIP3   OH225008   3.066   5.240   4.069  0.0433  0.5495 -0.6990
 1198TIP3    H125009   3.054   5.310   4.134  2.9125  1.6945 -1.2451
 1198TIP3    H225010   3.135   5.185   4.105 -1.7011 -1.7404 -0.6063
 1199TIP3   OH225011   2.902   2.912   4.651  0.2872  0.3149  0.0417
 1199TIP3    H125012   2.856   2.833   4.621 -0.7039  0.1325  1.9089
 1199TIP3    H225013   2.993   2.896   4.627  0.1612 -1.5470  0.6107
 1200TIP3   OH225014   0.841   5.419   5.422  0.3372  0.1366 -0.1265
 1200TIP3    H125015   0.899   5.354   5.383  1.9347  0.8392  0.9767
 1200TIP3    H225016   0.884   5.503   5.404 -1.1476  0.8249 -0.6183
 1201TIP3   OH225017   4.207   2.814  16.265 -0.0497 -0.3009  0.1514
 1201TIP3    H125018   4.182   2.763  16.342 -1.1910  0.2840  0.1866
 1201TIP3    H225019   4.130   2.813  16.208  1.5103 -2.7127 -2.1425
 1202TIP3   OH225020   0.083   1.234  12.040  0.1608  0.1892 -0.1477
 1202TIP3    H125021   0.007   1.268  11.992 -0.2524  0.6269  0.8049
 1202TIP3    H225022   0.117   1.310  12.087 -0.9845 -0.7242  2.3255
 1203TIP3   OH225023   0.395   5.238  15.038 -0.7092  0.1480  0.5229
 1203TIP3    H125024   0.412   5.158  14.989 -1.4054 -0.5619  1.3996
 1203TIP3    H225025   0.313   5.272  15.003 -0.8068  0.0552  0.6565
 1204TIP3   OH225026   0.259   4.968  15.760  0.0502 -0.4689 -0.7911
 1204TIP3    H125027   0.349   5.000  15.752 -0.0142 -0.0980 -0.1435
 1204TIP3    H225028   0.242   4.968  15.855 -1.5116  1.9658 -0.9806
 1205TIP3   OH225029   0.407   0.085  14.938 -0.2069 -0.1476  0.3659
 1205TIP3    H125030   0.468   0.103  14.866 -0.5370  0.1269  0.1468
 1205TIP3    H225031   0.387  -0.008  14.929 -0.0443 -0.1735  0.2598
 1206TIP3   OH225032   0.181   1.364  16.387 -0.1333 -0.2109  0.4810
 1206TIP3    H125033   0.250   1.364  16.321 -0.0823  0.0617  0.5325
 1206TIP3    H225034   0.209   1.430  16.451 -1.6661  1.7887 -0.7892
 1207TIP3   OH225035   2.032   5.824   2.744 -0.2509  0.4106 -0.0163
 1207TIP3    H125036   2.068   5.758   2.803 -0.8517  1.1762  1.2483
 1207TIP3    H225037   1.947   5.788   2.717  0.5946 -0.5603 -1.5540
 1208TIP3   OH225038   2.090   1.400  15.338 -0.4077  0.5567 -0.6345
 1208TIP3    H125039   2.024   1.467  15.318  1.1128  2.5806  0.6174
 1208TIP3    H225040   2.167   1.427  15.288  0.4142  0.0942  0.3496
 1209TIP3   OH225041   1.817   4.801   5.615  0.2082 -0.3452  0.7595
 1209TIP3    H125042   1.733   4.846   5.622 -0.0971 -0.4806 -1.2462
 1209TIP3    H225043   1.828   4.757   5.699 -2.8033 -2.1399  0.3615
 1210TIP3   OH225044   6.421   0.566  12.472 -0.3930  0.8710 -0.0297
 1210TIP3    H125045   6.512   0.545  12.495 -1.1990 -1.5499  1.2916
 1210TIP3    H225046   6.378   0.580  12.556 -1.4443  1.2134 -0.6091
 1211TIP3   OH225047   3.205   4.137   2.365 -0.6613  0.1808 -0.1650
 1211TIP3    H125048   3.265   4.183   2.306 -3.8046  1.1491 -2.8963
 1211TIP3    H225049   3.217   4.044   2.343 -0.9271  0.4473 -1.5077
 1212TIP3   OH225050   3.394   1.260  13.099  0.1360 -0.7744 -0.1661
 1212TIP3    H125051   3.310   1.286  13.137  0.1134  1.1757 -1.4020
 1212TIP3    H225052   3.459   1.307  13.150  0.3234 -0.6956 -0.4725
 1213TIP3   OH225053   5.215   4.391  14.920 -0.1025  0.5821  0.1323
 1213TIP3    H125054   5.274   4.318  14.939  2.4718  2.6497  0.5782
 1213TIP3    H225055   5.162   4.360  14.847  1.8432 -1.2483 -0.6085
 1214TIP3   OH225056   6.430   4.535  14.785  0.1185 -0.0766 -0.2191
 1214TIP3    H125057   6.456   4.512  14.695  1.0688 -1.1977  0.3158
 1214TIP3    H225058   6.390   4.455  14.819  0.4960  0.0797  0.6123
 1215TIP3   OH225059   4.627   4.766   4.601  0.5719  0.1915  0.1592
 1215TIP3    H125060   4.694   4.762   4.669 -0.8913  1.3598  1.7308
 1215TIP3    H225061   4.556   4.712   4.633 -0.0739  0.6210 -0.5159
 1216TIP3   OH225062   0.270   1.533   2.443 -0.3299 -0.9820  0.9188
 1216TIP3    H125063   0.244   1.444   2.467  0.1403 -1.5611 -0.5856
 1216TIP3    H225064   0.187   1.581   2.436 -0.6865 -1.6293  0.5688
 1217TIP3   OH225065   2.281   6.560  11.316 -0.1406  0.2774  0.1388
 1217TIP3    H125066   2.214   6.587  11.254  0.0472 -0.5101 -0.4159
 1217TIP3    H225067   2.250   6.592  11.401 -1.1295  0.0581 -0.1355
 1218TIP3   OH225068   0.560   4.370   4.655  0.0304 -0.5763  0.0696
 1218TIP3    H125069   0.590   4.424   4.582  2.6450  0.3521  1.6954
 1218TIP3    H225070   0.559   4.430   4.730 -0.3220 -2.0081  1.2637
 1219TIP3   OH225071   1.772   4.517   2.124  0.1519  0.3900 -0.3214
 1219TIP3    H125072   1.756   4.455   2.195  1.3791 -1.1309 -1.2948
 1219TIP3    H225073   1.691   4.518   2.074 -0.7412  1.5114  1.0586
 1220TIP3   OH225074   3.858   4.869  13.745  0.2886 -0.1612 -0.3146
 1220TIP3    H125075   3.865   4.867  13.650 -0.1615 -0.6543 -0.3418
 1220TIP3    H225076   3.773   4.829  13.764  0.2786  0.1257  0.2855
 1221TIP3   OH225077   2.538   2.486  13.216 -0.4481  0.0144 -0.6605
 1221TIP3    H125078   2.542   2.572  13.175 -1.7296  0.4697  0.1053
 1221TIP3    H225079   2.453   2.451  13.191 -1.3883  0.4163  1.7072
 1222TIP3   OH225080   0.913   4.503   3.257 -0.1358  0.2571  0.0277
 1222TIP3    H125081   0.822   4.505   3.286 -0.0739 -0.4179  0.2919
 1222TIP3    H225082   0.947   4.420   3.291 -0.1140 -0.6835 -2.0874
 1223TIP3   OH225083   6.517   1.447   5.208  0.0035 -0.2560  0.0291
 1223TIP3    H125084   6.579   1.521   5.207 -0.4048  0.1234  1.0246
 1223TIP3    H225085   6.477   1.452   5.295  0.4748 -2.0763  0.3883
 1224TIP3   OH225086   6.411   6.723   2.081 -0.0227 -0.0645 -0.0165
 1224TIP3    H125087   6.345   6.792   2.076  0.2634  0.1410 -1.9912
 1224TIP3    H225088   6.367   6.651   2.126 -1.6070  0.0941 -1.2027
 1225TIP3   OH225089   3.939   2.809   4.912 -0.5194  0.0225  0.2638
 1225TIP3    H125090   3.858   2.857   4.929  0.3789  1.0271  2.0776
 1225TIP3    H225091   4.000   2.876   4.881 -0.2502 -0.6308 -0.6373
 1226TIP3   OH225092   5.864   2.499   5.218  0.0466  0.3905 -0.2604
 1226TIP3    H125093   5.785   2.503   5.165  0.5605 -0.4534 -1.1010
 1226TIP3    H225094   5.842   2.440   5.290  0.2056 -0.6041 -1.0137
 1227TIP3   OH225095   5.279   5.359   2.250  0.0145 -0.1027  0.7680
 1227TIP3    H125096   5.275   5.335   2.342  1.4675 -0.6474  0.7095
 1227TIP3    H225097   5.371   5.349   2.226 -0.2973  0.2381 -0.6864
 1228TIP3   OH225098   6.656   3.120   5.254  0.1008 -0.2594  0.1785
 1228TIP3    H125099   6.608   3.131   5.172 -1.1611 -0.6364  0.8494
 1228TIP3    H225100   6.681   3.209   5.279 -0.0554 -0.0824 -0.2882
 1229TIP3   OH225101   4.414   0.415  16.799 -0.0162 -0.0258  0.0615
 1229TIP3    H125102   4.446   0.342  16.745 -0.9708  0.3614 -1.0780
 1229TIP3    H225103   4.324   0.391  16.821  0.0169  0.3186  0.5723
 1230TIP3   OH225104   5.430   4.810   5.594 -0.4551 -0.2866 -0.0911
 1230TIP3    H125105   5.467   4.797   5.681 -0.3307 -3.4925 -0.5114
 1230TIP3    H225106   5.499   4.854   5.545 -0.2935  0.9871  1.2123
 1231TIP3   OH225107   0.154   6.138   3.410 -0.4920 -0.2996 -0.1872
 1231TIP3    H125108   0.132   6.123   3.318  0.4017 -1.8716 -0.1813
 1231TIP3    H225109   0.249   6.152   3.409 -0.5208 -0.0543  0.4624
 1232TIP3   OH225110   2.994   1.652  12.809 -0.3836  0.1417  0.2224
 1232TIP3    H125111   2.939   1.585  12.769 -1.6162  1.3579 -0.2319
 1232TIP3    H225112   3.043   1.606  12.877 -2.0538 -1.0047  0.7135
 1233TIP3   OH225113   3.207   0.366  14.355 -0.0117  0.0058 -0.3840
 1233TIP3    H125114   3.216   0.455  14.390  1.3441 -0.5849  0.8628
 1233TIP3    H225115   3.265   0.313  14.409 -0.9476 -1.6924 -0.9863
 1234TIP3   OH225116   2.669   2.622  15.802 -0.0406 -0.1623  0.0443
 1234TIP3    H125117   2.682   2.569  15.723 -1.8067 -0.5521 -0.0251
 1234TIP3    H225118   2.747   2.677  15.807  1.2242 -1.7863 -0.6404
 1235TIP3   OH225119   4.454   4.558  12.318  0.1165  0.2040  0.6778
 1235TIP3    H125120   4.410   4.484  12.277 -0.4123 -0.2649  2.0376
 1235TIP3    H225121   4.401   4.579  12.395  0.1557  2.1133  0.2476
 1236TIP3   OH225122   4.911   5.255  10.667 -0.3856 -0.2185 -0.2333
 1236TIP3    H125123   4.837   5.195  10.658  1.4363 -2.5031 -1.1280
 1236TIP3    H225124   4.989   5.200  10.654  1.6181  1.6438  2.5624
 1237TIP3   OH225125   1.304   4.403   2.364  0.4408  0.0193 -0.2265
 1237TIP3    H125126   1.256   4.486   2.353  0.7820  0.0076 -2.2437
 1237TIP3    H225127   1.236   4.338   2.380  0.0026  0.4261 -0.3974
 1238TIP3   OH225128   6.054   4.708  14.441 -0.6788  0.3249  0.0876
 1238TIP3    H125129   5.967   4.690  14.404 -0.3308  0.5253 -0.8446
 1238TIP3    H225130   6.101   4.753  14.371  0.5280 -0.6997  0.2107
 1239TIP3   OH225131   5.090   1.370   5.631 -0.0513 -0.6198  0.2227
 1239TIP3    H125132   5.103   1.290   5.682 -0.9823 -0.2116  1.1490
 1239TIP3    H225133   5.031   1.423   5.685 -0.3058  0.2361 -0.8639
 1240TIP3   OH225134   3.197   0.354  12.111 -0.0881 -0.6215 -0.2649
 1240TIP3    H125135   3.240   0.410  12.175 -0.4828 -0.7902  0.1507
 1240TIP3    H225136   3.266   0.294  12.081  0.4302  0.3107 -0.9832
 1241TIP3   OH225137   6.738   6.390  16.582 -0.0739  0.2641  0.6635
 1241TIP3    H125138   6.833   6.390  16.600 -0.0302 -1.8931  0.6800
 1241TIP3    H225139   6.732   6.402  16.487  0.2005  0.7719  0.7080
 1242TIP3   OH225140   5.897   2.334  16.462  0.7133 -0.0624 -0.2549
 1242TIP3    H125141   5.966   2.352  16.526  0.3224  2.2815 -0.4068
 1242TIP3    H225142   5.816   2.358  16.507  0.2470 -0.2733 -0.9775
 1243TIP3   OH225143   6.712   0.421   0.339 -0.2050  0.1194 -0.3114
 1243TIP3    H125144   6.756   0.483   0.396  0.2083 -0.7348  0.3309
 1243TIP3    H225145   6.769   0.343   0.340 -1.1758 -0.6100 -0.3248
 1244TIP3   OH225146   2.412   2.333   5.339  0.5551 -0.2748 -0.1486
 1244TIP3    H125147   2.352   2.397   5.299  2.3016  1.3410 -0.2933
 1244TIP3    H225148   2.390   2.334   5.432  0.3349  0.2806 -0.2022
 1245TIP3   OH225149   5.052   2.482   4.295  0.3851  0.4457  0.8034
 1245TIP3    H125150   5.082   2.571   4.275 -0.3800  0.9288  1.7294
 1245TIP3    H225151   4.956   2.487   4.290  0.3252 -0.2553  1.1265
 1246TIP3   OH225152   6.397   3.004  15.569  0.1579  0.1683  0.3248
 1246TIP3    H125153   6.381   2.936  15.635 -2.9707  0.4231 -0.0372
 1246TIP3    H225154   6.347   2.976  15.493 -1.6738  3.0148  0.3345
 1247TIP3   OH225155   1.887   1.456  15.978  0.1878  0.0150 -0.2895
 1247TIP3    H125156   1.906   1.496  16.063  2.1415 -0.9919 -0.1812
 1247TIP3    H225157   1.972   1.424  15.948 -0.6424 -0.5534 -2.1662
 1248TIP3   OH225158   4.544   5.749  15.832  0.2071  0.0957 -0.4149
 1248TIP3    H125159   4.502   5.664  15.850  0.1197  0.0917 -0.6336
 1248TIP3    H225160   4.638   5.730  15.834  0.2112  0.1837  0.4683
 1249TIP3   OH225161   5.803   0.430   2.572 -0.7344  0.0115  0.1680
 1249TIP3    H125162   5.889   0.448   2.609 -1.7032  0.4135  2.4225
 1249TIP3    H225163   5.788   0.337   2.590  0.2049 -0.7539 -2.5394
 1250TIP3   OH225164   3.142   5.755  14.757 -0.8799 -0.6403 -0.3628
 1250TIP3    H125165   3.104   5.674  14.721 -1.0265 -0.4595 -0.6188
 1250TIP3    H225166   3.141   5.742  14.852 -2.1602 -0.3922 -0.3174
 1251TIP3   OH225167   3.932   5.471   0.522  0.5971 -0.4541  0.0430
 1251TIP3    H125168   3.990   5.399   0.496 -0.3078 -1.3502  0.3922
 1251TIP3    H225169   3.888   5.497   0.441  1.3659  0.1264 -0.1936
 1252TIP3   OH225170   5.349   4.388  12.100 -0.2490  0.5367  0.0244
 1252TIP3    H125171   5.301   4.355  12.024  0.5637  0.7143 -0.5707
 1252TIP3    H225172   5.373   4.478  12.077 -0.9935  1.0006  0.9625
 1253TIP3   OH225173   0.606   0.531  10.666 -0.0045  0.4431  0.4605
 1253TIP3    H125174   0.655   0.541  10.585 -0.1214 -0.2683  0.2958
 1253TIP3    H225175   0.657   0.468  10.718 -1.2417 -1.1371 -0.1456
 1254TIP3   OH225176   1.120   3.293  13.744  0.3837  0.1075 -0.0919
 1254TIP3    H125177   1.041   3.286  13.690 -0.7636  0.1065  1.5286
 1254TIP3    H225178   1.146   3.385  13.735 -0.3106  0.3210  0.0667
 1255TIP3   OH225179   2.619   0.391  11.425  0.0948 -0.4791 -0.4087
 1255TIP3    H125180   2.637   0.328  11.356 -0.7735 -1.4374  0.2086
 1255TIP3    H225181   2.692   0.453  11.421  0.7161 -1.2436 -1.3347
 1256TIP3   OH225182   2.132   4.547   3.405 -0.1996  0.5132  0.2856
 1256TIP3    H125183   2.044   4.558   3.368 -1.2937 -0.9060  2.2818
 1256TIP3    H225184   2.168   4.471   3.360  0.0321  1.0663 -0.4972
 1257TIP3   OH225185   3.111   5.956  14.278 -0.1923  0.1127  0.3558
 1257TIP3    H125186   3.134   5.974  14.369  1.4736  0.4085 -0.0835
 1257TIP3    H225187   3.099   5.861  14.274 -0.7698  0.1530  0.9715
 1258TIP3   OH225188   1.103   6.250  14.179 -0.3308  0.0747 -0.2338
 1258TIP3    H125189   1.064   6.249  14.092  1.3042  0.2741 -1.0012
 1258TIP3    H225190   1.168   6.179  14.177 -0.8187 -0.4590  1.1058
 1259TIP3   OH225191   3.350   2.661   1.632  0.5148  0.2744 -0.0650
 1259TIP3    H125192   3.356   2.573   1.669  1.7897  0.7899  1.0650
 1259TIP3    H225193   3.262   2.667   1.597  0.6430 -1.7166 -0.8635
 1260TIP3   OH225194   5.951   0.939   3.107  1.1584  0.1828  0.2913
 1260TIP3    H125195   6.020   0.922   3.170  0.4027 -1.1034  0.8210
 1260TIP3    H225196   5.979   0.892   3.028  1.2481  0.2879  0.2608
 1261TIP3   OH225197   0.390   3.238  17.085 -0.0951  0.8179  0.9958
 1261TIP3    H125198   0.474   3.251  17.041 -0.6140 -1.5586 -0.9069
 1261TIP3    H225199   0.393   3.147  17.115 -2.6616 -0.0180 -0.9173
 1262TIP3   OH225200   1.628   6.014  16.851 -0.0449  0.1886 -0.4294
 1262TIP3    H125201   1.619   5.925  16.886  2.0242 -0.0825 -0.5048
 1262TIP3    H225202   1.587   6.070  16.917 -1.2162 -0.7889 -0.2981
 1263TIP3   OH225203   3.164   4.893   4.296  0.1511  0.3547 -0.0611
 1263TIP3    H125204   3.221   4.817   4.284  1.4215  1.2161  0.3044
 1263TIP3    H225205   3.216   4.967   4.265 -1.3661  1.0008 -1.1883
 1264TIP3   OH225206   4.426   6.077  13.416  0.0630 -0.3579 -0.1297
 1264TIP3    H125207   4.504   6.042  13.373  0.8715  1.4440 -0.2392
 1264TIP3    H225208   4.408   6.016  13.487  1.8180 -0.6419  0.1172
 1265TIP3   OH225209   1.151   1.672  16.150  0.1393 -0.1722 -0.1829
 1265TIP3    H125210   1.209   1.670  16.226 -2.5536  2.2860  2.1342
 1265TIP3    H225211   1.180   1.747  16.099  2.1620 -2.0159 -1.9554
 1266TIP3   OH225212   4.495   3.580   3.684  0.0179 -0.0460 -0.8400
 1266TIP3    H125213   4.484   3.660   3.734  0.7938 -0.1813 -0.4391
 1266TIP3    H225214   4.429   3.520   3.720  0.1498  0.0648 -0.4100
 1267TIP3   OH225215   3.923   6.359  11.835  0.6250 -0.4670 -0.2862
 1267TIP3    H125216   3.860   6.290  11.816  0.9323 -0.4586 -1.4344
 1267TIP3    H225217   3.889   6.436  11.790  0.5672 -0.0036  0.5348
 1268TIP3   OH225218   6.288   2.989  13.813  0.1778 -0.1158  0.0763
 1268TIP3    H125219   6.290   3.069  13.759  1.2339 -1.0578 -1.3534
 1268TIP3    H225220   6.377   2.954  13.806 -0.5376 -1.9553 -0.1716
 1269TIP3   OH225221   3.248   0.135  16.969  0.1281  0.2357 -0.1111
 1269TIP3    H125222   3.229   0.095  17.054 -1.2987  0.0179 -0.5172
 1269TIP3    H225223   3.184   0.096  16.909  2.1987 -0.9381 -1.6949
 1270TIP3   OH225224   2.499   3.173  13.463  0.0684 -0.1235  0.2726
 1270TIP3    H125225   2.573   3.172  13.524  0.5026 -2.0355 -0.2353
 1270TIP3    H225226   2.523   3.238  13.398  0.0371  1.2523  1.5679
 1271TIP3   OH225227   0.048   2.756  13.814  0.6363 -0.6635 -0.2294
 1271TIP3    H125228   0.002   2.791  13.890 -0.5415 -1.4254 -0.5704
 1271TIP3    H225229   0.038   2.661  13.821  1.9186 -0.8446 -0.4762
 1272TIP3   OH225230   2.587   2.512  11.452  0.4443  0.1845 -0.1256
 1272TIP3    H125231   2.511   2.570  11.449 -0.0528 -0.4622 -0.0636
 1272TIP3    H225232   2.636   2.533  11.373 -0.3278 -0.1130 -0.6919
 1273TIP3   OH225233   5.495   2.256   3.056 -0.0526  0.4453  0.3721
 1273TIP3    H125234   5.446   2.334   3.083  1.3552  1.4369  0.2077
 1273TIP3    H225235   5.465   2.237   2.968 -0.8207  0.4484  0.6282
 1274TIP3   OH225236   2.065   1.982  16.299 -0.1359 -0.3168  0.0632
 1274TIP3    H125237   2.070   2.070  16.262  0.1076  0.5780  2.0956
 1274TIP3    H225238   2.137   1.934  16.259  2.2254  1.5889  1.7985
 1275TIP3   OH225239   5.313   1.252   0.526  0.1725 -0.2716 -0.2145
 1275TIP3    H125240   5.327   1.214   0.613 -1.2564 -1.0711 -0.3165
 1275TIP3    H225241   5.399   1.287   0.502  0.4003  0.8153  1.9079
 1276TIP3   OH225242   0.633   1.701  17.046  0.1823  0.0819 -0.0887
 1276TIP3    H125243   0.624   1.678  16.954  0.1463  4.1961 -1.3137
 1276TIP3    H225244   0.727   1.704  17.061  0.1938 -0.1597 -0.1073
 1277TIP3   OH225245   4.636   1.593  14.373 -0.0438  0.0928  0.4450
 1277TIP3    H125246   4.558   1.615  14.323  0.8889  1.5149 -0.4910
 1277TIP3    H225247   4.688   1.674  14.373 -0.2699  0.4385  4.3410
 1278TIP3   OH225248   0.870   3.476   5.643 -0.1442  0.2177 -0.1172
 1278TIP3    H125249   0.846   3.389   5.610 -1.2668 -0.3831  2.0559
 1278TIP3    H225250   0.806   3.535   5.603 -0.1484 -0.1364 -0.6494
 1279TIP3   OH225251   3.742   0.756   6.034 -0.1291 -0.0323  0.7937
 1279TIP3    H125252   3.705   0.685   6.086 -1.8832  0.2324 -0.0080
 1279TIP3    H225253   3.706   0.836   6.074  0.8323  0.3436  0.9334
 1280TIP3   OH225254   6.124   0.088   4.287 -0.0867  0.4620 -0.1408
 1280TIP3    H125255   6.062   0.121   4.222  0.0259  1.1987  0.1251
 1280TIP3    H225256   6.087   0.004   4.315 -0.4072  0.3922 -0.7671
 1281TIP3   OH225257   5.223   5.278  12.399 -0.2803 -0.5972  0.2641
 1281TIP3    H125258   5.266   5.348  12.349  0.3636  0.3542  2.0510
 1281TIP3    H225259   5.169   5.232  12.335  1.5953 -0.3517 -1.5998
 1282TIP3   OH225260   6.766   4.804   5.832  0.3163  0.1294  0.4209
 1282TIP3    H125261   6.853   4.837   5.852  1.3624 -1.4265 -1.2332
 1282TIP3    H225262   6.720   4.805   5.916  2.5853 -0.9401  1.7684
 1283TIP3   OH225263   0.549   3.350   5.425  0.1673  0.1170 -0.1707
 1283TIP3    H125264   0.622   3.387   5.375  0.5102 -1.1265 -0.6422
 1283TIP3    H225265   0.492   3.310   5.359  0.1557 -0.7506  0.3409
 1284TIP3   OH225266   4.236   6.086  11.240  0.1745  0.1384 -0.2001
 1284TIP3    H125267   4.155   6.096  11.190 -0.0044  2.1889  0.4358
 1284TIP3    H225268   4.212   6.027  11.312 -0.9039  1.0509  0.2218
 1285TIP3   OH225269   2.103   3.591   4.560 -0.0287 -0.6438 -0.2052
 1285TIP3    H125270   2.154   3.520   4.601 -0.0975 -0.7518 -0.3066
 1285TIP3    H225271   2.014   3.579   4.593  0.1682  0.0263  0.6079
 1286TIP3   OH225272   3.232   2.778   6.343  0.0527  0.1472 -0.3325
 1286TIP3    H125273   3.163   2.765   6.409  1.8081 -0.1657  1.5209
 1286TIP3    H225274   3.241   2.873   6.337 -1.0510  0.2164 -1.1769
 1287TIP3   OH225275   0.714   3.500  14.678 -0.0251  0.0739  0.2991
 1287TIP3    H125276   0.714   3.592  14.704  1.0535 -0.0622  0.8536
 1287TIP3    H225277   0.722   3.451  14.760  1.1455 -0.4420 -0.0879
 1288TIP3   OH225278   4.115   6.229  12.490 -0.3141  0.2874 -0.1534
 1288TIP3    H125279   4.049   6.170  12.527 -0.6576  1.9018  2.0097
 1288TIP3    H225280   4.089   6.316  12.519  1.5231  1.2450 -1.1781
 1289TIP3   OH225281   3.988   3.512   2.123 -0.0204  0.1542  0.1638
 1289TIP3    H125282   3.896   3.540   2.130  0.6756  3.6415 -2.0872
 1289TIP3    H225283   4.025   3.532   2.209 -1.0198  0.0484  0.6443
 1290TIP3   OH225284   6.295   2.861  13.481  0.6921  0.2066  0.3556
 1290TIP3    H125285   6.337   2.881  13.397  1.7958  0.9834  1.0679
 1290TIP3    H225286   6.349   2.791  13.518 -0.1054 -0.5076  0.2013
 1291TIP3   OH225287   4.868   2.384   2.458 -0.9219  0.0472 -0.7538
 1291TIP3    H125288   4.878   2.385   2.363 -0.6216 -1.0075 -0.7392
 1291TIP3    H225289   4.931   2.319   2.489 -0.2563  1.1447  0.2685
 1292TIP3   OH225290   3.891   6.249   6.142 -0.1852  0.2679 -0.2384
 1292TIP3    H125291   3.887   6.247   6.238 -0.8616 -0.9024 -0.2730
 1292TIP3    H225292   3.847   6.331   6.118  2.3678  2.0139  0.5013
 1293TIP3   OH225293   5.976   1.147  12.007 -0.5135  0.1245 -0.0139
 1293TIP3    H125294   6.068   1.154  12.034 -0.8989 -1.7331  1.9912
 1293TIP3    H225295   5.927   1.188  12.078 -1.2583  1.9197 -1.4853
 1294TIP3   OH225296   1.905   1.830  16.124  0.6914 -0.0489  0.1336
 1294TIP3    H125297   1.896   1.745  16.167  0.7571  0.8618  2.0482
 1294TIP3    H225298   1.975   1.873  16.171 -0.4297  1.6986  0.2897
 1295TIP3   OH225299   2.067   2.787  12.849 -0.5892 -1.0167 -0.1947
 1295TIP3    H125300   2.102   2.857  12.903  0.0702 -0.8190 -0.8619
 1295TIP3    H225301   1.981   2.768  12.887 -1.4899  1.2403 -0.9532
 1296TIP3   OH225302   6.087   6.608  12.613 -0.4213 -0.0142  0.3487
 1296TIP3    H125303   6.156   6.553  12.576 -0.1570 -1.2354  2.5039
 1296TIP3    H225304   6.011   6.550  12.619 -0.7487  0.4517  0.7770
 1297TIP3   OH225305   4.373   3.058  16.012  1.1408 -0.4900 -0.4247
 1297TIP3    H125306   4.326   3.026  15.935  2.0856  0.6899 -1.5344
 1297TIP3    H225307   4.406   2.979  16.054  2.7406 -1.0942 -2.6396
 1298TIP3   OH225308   5.679   3.973   3.017 -0.2768  0.0214 -0.1661
 1298TIP3    H125309   5.721   3.890   2.997 -0.4611  0.1999 -1.3594
 1298TIP3    H225310   5.752   4.033   3.035 -0.0382  0.1495 -1.5109
 1299TIP3   OH225311   3.968   2.852  16.142  0.3631  0.1226  0.3845
 1299TIP3    H125312   3.911   2.777  16.160 -1.1307  0.7751 -1.3206
 1299TIP3    H225313   3.914   2.929  16.160  1.0352  0.7680 -0.2647
 1300TIP3   OH225314   4.524   2.077  16.251  0.1887 -0.5951 -0.4472
 1300TIP3    H125315   4.520   2.019  16.327 -0.8200  0.2310  0.1611
 1300TIP3    H225316   4.439   2.122  16.251  1.1755  1.3516 -0.5265
 1301TIP3   OH225317   2.784   0.718  11.183  0.0260  0.1201 -0.7604
 1301TIP3    H125318   2.770   0.708  11.089 -1.8944 -0.6159 -0.4452
 1301TIP3    H225319   2.736   0.645  11.222  0.5175  0.6022  0.8136
 1302TIP3   OH225320   1.922   3.696  14.650 -0.1646  0.1614 -0.1251
 1302TIP3    H125321   2.016   3.680  14.640  0.2491  1.4485  1.3093
 1302TIP3    H225322   1.887   3.613  14.681  0.7176  0.0096  0.5078
 1303TIP3   OH225323   3.223   6.740   0.840  0.7798  0.0106  0.1239
 1303TIP3    H125324   3.167   6.665   0.821  1.3732 -0.7087  1.1300
 1303TIP3    H225325   3.299   6.729   0.782  0.6893  0.0443 -0.0012
 1304TIP3   OH225326   0.175   3.795  12.541 -0.0983 -0.1980  0.0928
 1304TIP3    H125327   0.204   3.872  12.492 -2.1842 -0.2141 -1.2570
 1304TIP3    H225328   0.169   3.826  12.632  1.7788  0.4049  0.0670
 1305TIP3   OH225329   6.628   2.447   3.564  0.4006 -0.2812  0.1230
 1305TIP3    H125330   6.569   2.519   3.541  0.0755 -0.7731 -0.6161
 1305TIP3    H225331   6.596   2.373   3.513  1.7339 -0.5327 -0.3803
 1306TIP3   OH225332   3.516   2.078  12.139  0.1798  0.1145  0.5844
 1306TIP3    H125333   3.578   2.037  12.079 -1.1957  2.1763 -2.4358
 1306TIP3    H225334   3.465   2.004  12.174  0.7832 -1.1642 -1.0918
 1307TIP3   OH225335   5.894   3.384  12.259 -0.1826  0.0760 -0.0673
 1307TIP3    H125336   5.816   3.341  12.224 -0.3625  0.5938 -0.3055
 1307TIP3    H225337   5.882   3.476  12.238 -0.3692  0.4324  1.4875
 1308TIP3   OH225338   5.119   1.598   1.299  0.1985  0.4234  0.2008
 1308TIP3    H125339   5.124   1.554   1.384 -0.1262 -1.0229 -0.4858
 1308TIP3    H225340   5.112   1.691   1.320 -2.5831 -0.0430  1.8766
 1309TIP3   OH225341   3.938   2.290  11.728 -0.0363  0.0073 -0.0283
 1309TIP3    H125342   3.916   2.198  11.742  1.2211 -0.5756 -1.5495
 1309TIP3    H225343   3.907   2.308  11.639  0.9854  0.6250 -0.2732
 1310TIP3   OH225344   3.496   4.789  11.355 -0.3163  0.2457 -0.0420
 1310TIP3    H125345   3.449   4.719  11.309 -1.3510  1.4129 -0.8228
 1310TIP3    H225346   3.522   4.849  11.285 -0.5397  1.2722  0.7404
 1311TIP3   OH225347   2.844   5.871  15.835 -0.1120  0.0488  0.0779
 1311TIP3    H125348   2.768   5.834  15.791  0.6995  0.1421 -1.4365
 1311TIP3    H225349   2.918   5.843  15.783  0.7378  1.6467  0.3662
 1312TIP3   OH225350   3.760   4.418  11.187  0.0416 -0.2685  0.5834
 1312TIP3    H125351   3.685   4.380  11.232  1.2051 -0.6766  2.2925
 1312TIP3    H225352   3.766   4.369  11.105 -1.8479  0.1487  0.1465
 1313TIP3   OH225353   6.360   4.532  15.663 -0.1691 -0.0626 -0.2314
 1313TIP3    H125354   6.344   4.618  15.624  2.2507  0.5880  0.0906
 1313TIP3    H225355   6.405   4.483  15.596 -0.9435 -0.8817 -0.1698
 1314TIP3   OH225356   2.828   3.605  14.832 -0.4021  0.1945 -0.2725
 1314TIP3    H125357   2.829   3.629  14.740  1.4586 -0.4582 -0.4575
 1314TIP3    H225358   2.823   3.689  14.879 -0.7895  0.5521 -0.9387
 1315TIP3   OH225359   1.221   3.524   4.148 -0.0223  0.2070  0.2200
 1315TIP3    H125360   1.303   3.563   4.177 -0.5570  2.2221 -0.7558
 1315TIP3    H225361   1.153   3.575   4.192 -0.7649 -0.4301 -0.1615
 1316TIP3   OH225362   5.437   5.270  16.211  0.7400 -0.0305  0.1066
 1316TIP3    H125363   5.349   5.297  16.241  0.4868 -0.3299 -0.3601
 1316TIP3    H225364   5.454   5.188  16.258  0.1170 -0.7861 -0.9388
 1317TIP3   OH225365   0.095   3.266  12.628 -0.0349  0.2674 -0.6832
 1317TIP3    H125366   0.032   3.202  12.597 -0.4114 -0.3171  1.1854
 1317TIP3    H225367   0.078   3.344  12.575 -1.5130 -0.2570 -1.0223
 1318TIP3   OH225368   6.008   2.972  16.560 -0.7656  0.1623  0.0608
 1318TIP3    H125369   6.010   3.057  16.604 -0.3693  0.5920 -0.7558
 1318TIP3    H225370   5.944   2.983  16.490 -0.7882 -0.2442  0.0139
 1319TIP3   OH225371   3.149   3.096   2.001  0.0451  0.3110 -0.1015
 1319TIP3    H125372   3.061   3.072   2.030  0.1735 -1.2559 -0.8905
 1319TIP3    H225373   3.188   3.013   1.971  1.3861  1.1626 -0.8135
 1320TIP3   OH225374   0.430   1.841   2.010  0.6652 -1.0275  0.3726
 1320TIP3    H125375   0.473   1.784   2.073  1.9036  1.9752  2.4505
 1320TIP3    H225376   0.425   1.926   2.053  0.7741  1.0189 -3.2328
 1321TIP3   OH225377   0.129   2.017   1.457  0.2732 -0.0852 -0.2953
 1321TIP3    H125378   0.048   2.063   1.435  0.1003  0.3831  1.2035
 1321TIP3    H225379   0.195   2.057   1.401  0.0694  1.8559  0.7641
 1322TIP3   OH225380   5.722   5.530  11.418  0.2043 -0.4865  0.8343
 1322TIP3    H125381   5.745   5.439  11.404 -0.4029 -0.5249 -0.0060
 1322TIP3    H225382   5.626   5.531  11.418  0.2033  0.1825  0.5592
 1323TIP3   OH225383   0.902   4.921   1.512 -0.4075  0.3256  0.2507
 1323TIP3    H125384   0.976   4.957   1.464 -1.0700  2.3481  0.6809
 1323TIP3    H225385   0.827   4.973   1.485 -1.6545 -1.4298  0.1182
 1324TIP3   OH225386   3.023   5.826   5.944  0.3465 -0.1565  0.1713
 1324TIP3    H125387   3.044   5.736   5.965  1.1491  0.3074  1.4826
 1324TIP3    H225388   3.086   5.878   5.994 -0.1624  1.1338 -0.4706
 1325TIP3   OH225389   0.679   4.243  12.215 -0.0634  0.0336  0.0893
 1325TIP3    H125390   0.707   4.333  12.231 -0.1369  0.0456  0.1503
 1325TIP3    H225391   0.587   4.250  12.192  0.4412  0.2037 -2.0941
 1326TIP3   OH225392   6.207   4.077   5.736 -0.4487  0.4088  0.0279
 1326TIP3    H125393   6.144   4.149   5.745  0.4972  1.3102 -0.3748
 1326TIP3    H225394   6.292   4.120   5.734  0.0738 -0.6059 -1.4905
 1327TIP3   OH225395   4.825   5.692  13.342 -0.1927 -0.2046 -0.3279
 1327TIP3    H125396   4.803   5.600  13.353 -0.0293 -0.1402  0.5667
 1327TIP3    H225397   4.746   5.731  13.305  0.1072 -0.8954 -1.7930
 1328TIP3   OH225398   6.577   4.486   4.629  0.0511  0.6864  0.2854
 1328TIP3    H125399   6.662   4.451   4.655 -0.8789 -1.6412  0.3769
 1328TIP3    H225400   6.587   4.506   4.536  0.7108  0.4475  0.2982
 1329TIP3   OH225401   0.752   3.980   5.504 -1.1130  0.2618 -0.0449
 1329TIP3    H125402   0.663   4.001   5.477 -0.7525  1.5059 -0.3361
 1329TIP3    H225403   0.806   4.002   5.429 -0.3472  1.5295  0.8326
 1330TIP3   OH225404   1.450   6.178   5.700 -0.4194  0.7945  0.1891
 1330TIP3    H125405   1.410   6.259   5.667  1.4652  0.9882 -1.8685
 1330TIP3    H225406   1.544   6.197   5.703  0.0257 -1.1626  0.1187
 1331TIP3   OH225407   3.000   2.125   4.156 -0.1702  0.5570 -0.1779
 1331TIP3    H125408   3.012   2.133   4.062 -1.2779 -0.6989 -0.4622
 1331TIP3    H225409   2.966   2.037   4.168 -2.2320  1.4626  1.1609
 1332TIP3   OH225410   2.198   1.162  14.612  0.2204  0.5990  0.2092
 1332TIP3    H125411   2.251   1.240  14.628 -1.0193  1.1529  1.8829
 1332TIP3    H225412   2.244   1.091  14.657 -1.0099  1.3280  2.8253
 1333TIP3   OH225413   4.663   5.438  16.257  0.1634  0.8317  0.3618
 1333TIP3    H125414   4.666   5.516  16.313  0.6114  0.1233  1.3680
 1333TIP3    H225415   4.571   5.412  16.257  0.2128  0.6367  1.0727
 1334TIP3   OH225416   2.550   6.097   1.576 -0.1189 -0.2117  0.6914
 1334TIP3    H125417   2.511   6.066   1.657 -1.6579 -0.9916 -0.3035
 1334TIP3    H225418   2.560   6.192   1.590 -1.7604 -0.0803  1.2712
 1335TIP3   OH225419   6.193   3.639  11.433 -0.1003  0.4347 -0.0741
 1335TIP3    H125420   6.178   3.546  11.415  0.1418  0.4629 -0.4341
 1335TIP3    H225421   6.134   3.685  11.373  1.9175  0.5620 -2.0805
 1336TIP3   OH225422   2.220   4.393  15.689  0.0349  0.6001  0.2763
 1336TIP3    H125423   2.283   4.457  15.723 -1.4130  1.5322  1.3223
 1336TIP3    H225424   2.274   4.326  15.647  1.6933  1.5461  0.8115
 1337TIP3   OH225425   0.479   5.077   5.480  0.6546  0.4347  0.7221
 1337TIP3    H125426   0.517   5.163   5.468  0.6830  0.2790 -0.3568
 1337TIP3    H225427   0.543   5.016   5.444  0.7218 -0.0618  1.6483
 1338TIP3   OH225428   1.636   2.566  15.506 -0.0385  0.1088  0.2313
 1338TIP3    H125429   1.699   2.512  15.459  1.5376  0.8427  1.3864
 1338TIP3    H225430   1.670   2.656  15.497 -2.3587  0.9189 -1.2996
 1339TIP3   OH225431   6.082   2.131  11.012 -0.4151  0.7571  0.1386
 1339TIP3    H125432   6.099   2.110  10.920 -0.9002 -0.4143  0.2928
 1339TIP3    H225433   6.111   2.053  11.059 -1.6449  0.6895  0.8277
 1340TIP3   OH225434   1.875   4.094  12.647  0.3704 -0.2576 -0.2873
 1340TIP3    H125435   1.838   4.119  12.732 -0.8368  0.0239 -0.8753
 1340TIP3    H225436   1.900   4.003  12.657  0.7643 -0.0697  0.5404
 1341TIP3   OH225437   0.528   3.536  12.139  0.2940 -0.2433  0.5430
 1341TIP3    H125438   0.548   3.621  12.100  0.1186 -1.0311 -1.3915
 1341TIP3    H225439   0.613   3.498  12.160  0.5737 -0.7719 -1.3467
 1342TIP3   OH225440   0.188   5.473  16.562  0.2805 -0.0859  0.1138
 1342TIP3    H125441   0.240   5.471  16.482  0.8032  0.5419  0.4286
 1342TIP3    H225442   0.233   5.413  16.621  1.3058  1.2900  0.7702
 1343TIP3   OH225443   4.673   0.984  14.233  0.4669 -0.0466 -0.4716
 1343TIP3    H125444   4.591   1.012  14.273 -0.0733  0.1560 -1.7066
 1343TIP3    H225445   4.673   1.024  14.146 -0.1777 -3.4970 -2.2312
 1344TIP3   OH225446   5.506   4.215  13.217 -0.2903  0.0019 -0.4875
 1344TIP3    H125447   5.427   4.268  13.229 -0.3595 -0.4053  1.0929
 1344TIP3    H225448   5.574   4.263  13.266 -0.5804 -1.7993  1.8620
 1345TIP3   OH225449   3.295   6.051  15.608  0.3833 -0.2032  0.3782
 1345TIP3    H125450   3.212   6.070  15.652 -0.0205 -0.2981 -0.3374
 1345TIP3    H225451   3.358   6.041  15.680  0.2136  1.8789  0.8844
 1346TIP3   OH225452   0.752   5.544   1.428  0.0184  0.5418 -0.0879
 1346TIP3    H125453   0.805   5.613   1.468 -0.6241  1.0795 -0.1420
 1346TIP3    H225454   0.703   5.589   1.359 -1.2650  0.2825  0.6231
 1347TIP3   OH225455   3.275   2.776  15.770 -0.0821  0.0277 -0.2346
 1347TIP3    H125456   3.254   2.684  15.760 -0.5956  0.1992 -0.7811
 1347TIP3    H225457   3.358   2.787  15.722  1.3864 -0.6637  1.9995
 1348TIP3   OH225458   0.141   4.951  12.674 -0.2674 -0.0035 -0.3179
 1348TIP3    H125459   0.061   4.995  12.644  0.3932  0.4320 -1.5473
 1348TIP3    H225460   0.209   4.983  12.614  0.9099 -0.0480  0.9440
 1349TIP3   OH225461   0.802   1.644  10.934 -0.1662 -0.2373 -0.5166
 1349TIP3    H125462   0.802   1.549  10.938 -0.8721 -0.2565 -0.8033
 1349TIP3    H225463   0.757   1.672  11.013  3.5007  0.0188  1.6978
 1350TIP3   OH225464   2.479   5.376  10.618  0.3605  0.7657  0.5207
 1350TIP3    H125465   2.391   5.368  10.653  0.8532 -0.0476  1.6073
 1350TIP3    H225466   2.524   5.296  10.644  0.8899  0.2889 -1.6213
 1351TIP3   OH225467   0.829   0.591  11.589  0.0704  0.1493 -0.4835
 1351TIP3    H125468   0.846   0.514  11.535  1.3070  0.4709 -0.5861
 1351TIP3    H225469   0.802   0.658  11.526  2.4498  0.8047 -0.8761
 1352TIP3   OH225470   2.657   6.555   2.793 -0.0157 -0.5109  1.0171
 1352TIP3    H125471   2.611   6.639   2.798 -0.5558 -0.6353 -0.8300
 1352TIP3    H225472   2.749   6.577   2.802 -0.1710  0.2717  0.7772
 1353TIP3   OH225473   5.281   0.894   2.916  0.1224 -0.0574  0.5720
 1353TIP3    H125474   5.283   0.937   3.002  1.3624 -1.0119  1.0478
 1353TIP3    H225475   5.195   0.918   2.880 -0.1915  0.8374  1.8182
 1354TIP3   OH225476   1.989   1.282  11.502 -0.5192  0.2406 -0.0374
 1354TIP3    H125477   1.908   1.258  11.456 -1.3201 -0.3212  1.5864
 1354TIP3    H225478   1.991   1.377  11.499 -0.4695  0.2198 -1.3389
 1355TIP3   OH225479   4.795   6.752  14.260  0.1049 -0.1394  0.1005
 1355TIP3    H125480   4.793   6.807  14.338  1.2436  2.1173 -1.3365
 1355TIP3    H225481   4.863   6.687  14.277  0.1586  0.1695  1.0811
 1356TIP3   OH225482   5.655   0.700  12.313  0.2735  0.0761 -0.1362
 1356TIP3    H125483   5.618   0.620  12.275 -0.7736  0.5071 -0.0766
 1356TIP3    H225484   5.588   0.767  12.296  1.0765  0.9089 -0.0709
 1357TIP3   OH225485   1.860   5.815   4.140 -0.1019  0.1656 -0.7608
 1357TIP3    H125486   1.892   5.816   4.230 -1.3001 -1.3292 -0.2974
 1357TIP3    H225487   1.766   5.803   4.147 -0.5220  2.1350 -2.1849
 1358TIP3   OH225488   2.465   0.791   0.801 -0.3911 -0.4516  0.3281
 1358TIP3    H125489   2.417   0.764   0.880  0.7397 -2.5456  0.3654
 1358TIP3    H225490   2.542   0.837   0.835 -0.2233 -0.8060  0.4358
 1359TIP3   OH225491   3.840   2.370   0.099  0.1845 -0.2269  0.0417
 1359TIP3    H125492   3.876   2.453   0.131  3.2874 -0.3364 -2.6186
 1359TIP3    H225493   3.900   2.304   0.135  0.1856 -0.8833 -1.1323
 1360TIP3   OH225494   5.434   6.244  12.461 -0.1304  0.6173 -0.4881
 1360TIP3    H125495   5.423   6.220  12.368 -1.9041  0.3379 -0.2437
 1360TIP3    H225496   5.345   6.247  12.495  0.5597 -0.8823  1.6202
 1361TIP3   OH225497   6.628   2.790  15.267  0.5579  0.3860 -0.5511
 1361TIP3    H125498   6.650   2.720  15.205 -0.0723 -0.7708  0.5075
 1361TIP3    H225499   6.539   2.816  15.244 -0.4418 -1.4135  1.0629
 1362TIP3   OH225500   1.379   1.073   1.974 -0.1970 -0.2032 -0.4410
 1362TIP3    H125501   1.420   1.112   1.897 -1.2262  0.2421 -0.7801
 1362TIP3    H225502   1.424   1.114   2.048  0.9700 -0.8129 -0.7764
 1363TIP3   OH225503   2.563   4.590   3.674  0.1129  0.1078  0.0477
 1363TIP3    H125504   2.652   4.562   3.697 -0.6069 -1.7457  0.7550
 1363TIP3    H225505   2.575   4.644   3.596  1.8640 -0.1027  0.1221
 1364TIP3   OH225506   1.721   0.163  11.180  0.1699 -0.4107 -0.6824
 1364TIP3    H125507   1.642   0.112  11.196 -0.3355 -0.6967 -3.6152
 1364TIP3    H225508   1.766   0.164  11.265 -1.6745 -2.4492  0.4272
 1365TIP3   OH225509   5.415   1.269  11.515  0.4603 -0.3803 -0.0335
 1365TIP3    H125510   5.356   1.250  11.442 -0.4972  0.7325  0.4163
 1365TIP3    H225511   5.427   1.185  11.559  0.4310 -0.9155 -1.0097
 1366TIP3   OH225512   6.117   2.015   5.846  0.1121  0.4417 -0.0237
 1366TIP3    H125513   6.181   1.989   5.912  0.4433 -1.8665 -1.1704
 1366TIP3    H225514   6.053   1.944   5.843 -0.7848  1.2380 -1.0802
 1367TIP3   OH225515   2.426   4.180   5.902  0.3024 -0.1079 -0.1196
 1367TIP3    H125516   2.467   4.236   5.968  0.2108 -0.0172 -0.1384
 1367TIP3    H225517   2.332   4.192   5.915  0.2797 -0.4151  0.0073
 1368TIP3   OH225518   0.098   6.579   1.235 -0.5290  0.2027 -0.2512
 1368TIP3    H125519   0.152   6.658   1.230 -2.7275  1.7337 -1.9792
 1368TIP3    H225520   0.008   6.611   1.230 -1.5865 -2.3342  0.8523
 1369TIP3   OH225521   3.569   2.910   2.230  0.1295  0.1760  0.5987
 1369TIP3    H125522   3.495   2.920   2.290 -1.2907  0.1503 -1.0705
 1369TIP3    H225523   3.634   2.861   2.280 -1.3264 -0.5795  1.8295
 1370TIP3   OH225524   0.455   1.483  14.644  0.2983  0.3236 -0.5015
 1370TIP3    H125525   0.411   1.562  14.673  1.6342  1.1247 -0.5605
 1370TIP3    H225526   0.548   1.504  14.651  0.6865 -1.3840 -0.1454
 1371TIP3   OH225527   2.683   3.245  14.242 -0.7106  0.2965 -0.4089
 1371TIP3    H125528   2.773   3.244  14.210  0.8657  3.5384  3.1038
 1371TIP3    H225529   2.658   3.153  14.245  3.6793 -1.1323  1.1341
 1372TIP3   OH225530   1.921   1.431  16.722 -0.1399 -0.0370  0.1605
 1372TIP3    H125531   1.993   1.384  16.764  0.5801 -0.7719 -1.7913
 1372TIP3    H225532   1.896   1.498  16.786  2.6725  0.6696  0.6622
 1373TIP3   OH225533   3.492   2.177   5.564 -0.1437  0.2881 -0.0884
 1373TIP3    H125534   3.586   2.166   5.551  0.0113 -0.1215  1.2133
 1373TIP3    H225535   3.481   2.270   5.582 -0.0780  0.4516 -0.8770
 1374TIP3   OH225536   3.657   6.773  12.702  0.6305 -0.5028 -0.1137
 1374TIP3    H125537   3.709   6.809  12.773  0.2152 -0.4134  0.1514
 1374TIP3    H225538   3.566   6.793  12.727  0.3495 -2.1278  0.2830
 1375TIP3   OH225539   1.188   4.869   4.469 -0.2704  0.1033  0.3759
 1375TIP3    H125540   1.119   4.877   4.534 -0.2714 -0.3049  0.4306
 1375TIP3    H225541   1.143   4.872   4.385 -0.4953 -1.2835  0.4242
 1376TIP3   OH225542   3.533   3.388   0.777  1.1431  0.3573 -0.0063
 1376TIP3    H125543   3.610   3.379   0.720  1.1192  0.0254  0.0088
 1376TIP3    H225544   3.547   3.470   0.823  1.7060  0.0883  0.3190
 1377TIP3   OH225545   2.655   5.144   4.090  0.2151  0.2757  0.2357
 1377TIP3    H125546   2.648   5.063   4.040  1.2980  1.4182 -1.9092
 1377TIP3    H225547   2.689   5.117   4.175  0.8066 -1.4872 -0.5163
 1378TIP3   OH225548   5.676   4.216   4.049 -0.2735  0.1265  0.0061
 1378TIP3    H125549   5.755   4.238   4.097 -1.5337  0.6120  1.9738
 1378TIP3    H225550   5.692   4.128   4.015  0.9839  0.1099  0.5897
 1379TIP3   OH225551   5.057   0.317  11.600 -0.6769  0.3634  0.1322
 1379TIP3    H125552   5.126   0.252  11.608  0.6013  1.8111  1.6499
 1379TIP3    H225553   5.077   0.365  11.520 -0.9688 -0.3673 -0.3806
 1380TIP3   OH225554   2.475   2.555   2.519 -0.0886 -1.0023  0.3937
 1380TIP3    H125555   2.484   2.493   2.591  0.8849 -0.8835  0.3857
 1380TIP3    H225556   2.398   2.608   2.542  0.1082 -1.0817  1.2500
 1381TIP3   OH225557   2.902   3.859  16.311 -0.0503 -0.6897  0.2038
 1381TIP3    H125558   2.987   3.886  16.276 -0.4522 -0.7414 -0.8692
 1381TIP3    H225559   2.839   3.916  16.267 -0.6378 -1.2204  0.3383
 1382TIP3   OH225560   2.539   0.873  12.212 -0.2508 -0.1108  0.0746
 1382TIP3    H125561   2.519   0.875  12.306  2.4449 -1.4908  0.7802
 1382TIP3    H225562   2.609   0.808  12.204  0.6769  1.0770 -2.6642
 1383TIP3   OH225563   3.360   4.136   3.685  0.2030  0.4722  0.4513
 1383TIP3    H125564   3.354   4.077   3.760 -1.4248  1.0737  0.8281
 1383TIP3    H225565   3.426   4.200   3.710  1.2371 -0.5517  0.4610
 1384TIP3   OH225566   5.673   6.730   4.793 -0.1075  0.2150  0.3471
 1384TIP3    H125567   5.622   6.767   4.865 -0.7307 -0.5758  0.3327
 1384TIP3    H225568   5.608   6.713   4.724  0.5748  1.6037 -0.6958
 1385TIP3   OH225569   3.084   3.360   1.379  0.2156 -0.1817 -0.2303
 1385TIP3    H125570   3.060   3.450   1.356 -0.7270 -0.2914  0.2642
 1385TIP3    H225571   3.047   3.307   1.308 -0.7170 -0.3144  0.3299
 1386TIP3   OH225572   6.318   5.367  13.051 -0.2385 -0.1020  0.5256
 1386TIP3    H125573   6.337   5.298  13.115  1.9029  0.5339  0.6238
 1386TIP3    H225574   6.398   5.375  12.999 -0.3696  2.3869  0.6006
 1387TIP3   OH225575   4.184   5.447   3.437 -0.3113 -0.2922  0.4126
 1387TIP3    H125576   4.235   5.369   3.461  1.1855  0.4684 -0.1428
 1387TIP3    H225577   4.160   5.432   3.345  3.5382  1.5825 -1.1131
 1388TIP3   OH225578   3.930   3.357  16.508 -0.1806  0.2284 -0.0627
 1388TIP3    H125579   3.845   3.387  16.539  0.1154  1.1805 -0.1563
 1388TIP3    H225580   3.991   3.425  16.536  0.6138 -0.6369  0.3392
 1389TIP3   OH225581   4.976   2.636  13.539 -0.0691 -0.7519  0.0019
 1389TIP3    H125582   4.962   2.625  13.445 -0.3085  0.8276 -0.1826
 1389TIP3    H225583   5.065   2.671  13.546 -0.4521  0.2199  0.2512
 1390TIP3   OH225584   6.110   6.265   4.312 -0.2387  0.5169 -0.1055
 1390TIP3    H125585   6.186   6.212   4.288 -0.6727  0.5152 -1.5655
 1390TIP3    H225586   6.132   6.353   4.281 -0.9176  0.4628 -0.7728
 1391TIP3   OH225587   4.611   5.382  11.699  0.4044  0.4502  0.3614
 1391TIP3    H125588   4.670   5.357  11.770 -0.2950 -0.1136  0.7595
 1391TIP3    H225589   4.628   5.317  11.630  1.4033  1.2638 -0.1842
 1392TIP3   OH225590   1.110   3.174  14.346 -0.1241  0.1972 -0.4041
 1392TIP3    H125591   1.046   3.232  14.387 -0.8866 -0.7437 -0.2488
 1392TIP3    H225592   1.119   3.100  14.407  0.0142 -0.3865 -1.1159
 1393TIP3   OH225593   6.628   2.069   0.597 -0.1793 -0.1157 -0.1269
 1393TIP3    H125594   6.554   2.035   0.547 -0.9916  0.6519  0.5184
 1393TIP3    H225595   6.603   2.159   0.618 -1.2592 -1.2076  4.1410
 1394TIP3   OH225596   0.547   5.839   2.191 -0.0631  0.1369 -0.0248
 1394TIP3    H125597   0.631   5.854   2.235  0.0797  1.1458 -0.5950
 1394TIP3    H225598   0.487   5.813   2.261  0.8545 -1.1703  0.2997
 1395TIP3   OH225599   1.242   0.403   2.402  0.6493  1.1475 -0.2717
 1395TIP3    H125600   1.258   0.427   2.493 -0.8008  2.3285 -0.2913
 1395TIP3    H225601   1.319   0.352   2.377  1.0136  0.6640  1.6477
 1396TIP3   OH225602   4.198   4.865  11.704 -0.1823 -0.1522  0.7910
 1396TIP3    H125603   4.109   4.848  11.673 -0.3671  2.2813 -0.1789
 1396TIP3    H225604   4.245   4.783  11.686 -1.9104 -1.0590  0.1759
 1397TIP3   OH225605   4.538   4.073  14.574 -0.2621  0.0696 -0.1214
 1397TIP3    H125606   4.451   4.062  14.612  0.0988 -0.5568  0.5681
 1397TIP3    H225607   4.598   4.062  14.648  0.4905 -1.6914 -0.9146
 1398TIP3   OH225608   1.342   5.824   1.159 -0.7655 -0.3608  0.2772
 1398TIP3    H125609   1.327   5.751   1.099  1.1871 -0.2935 -0.3672
 1398TIP3    H225610   1.436   5.840   1.155 -1.1647  2.5442 -0.0066
 1399TIP3   OH225611   6.128   5.224   4.714 -0.3178 -0.1109  0.8809
 1399TIP3    H125612   6.042   5.216   4.756  0.4807  2.4611  3.3108
 1399TIP3    H225613   6.171   5.140   4.730 -2.1488 -1.3230 -0.0768
 1400TIP3   OH225614   0.571   4.594   6.526 -0.3725  0.4575  0.7178
 1400TIP3    H125615   0.608   4.609   6.439  2.4623  1.2453  1.9436
 1400TIP3    H225616   0.559   4.499   6.531  2.1013  0.0707  0.3954
 1401TIP3   OH225617   5.295   1.649   3.224 -0.2870  0.3944 -0.2517
 1401TIP3    H125618   5.210   1.665   3.184 -0.2171 -2.2095 -1.6471
 1401TIP3    H225619   5.292   1.558   3.254  1.0083  1.1147  2.4262
 1402TIP3   OH225620   3.225   0.026  15.870 -0.5365  0.3400 -0.6055
 1402TIP3    H125621   3.196  -0.061  15.842  0.8044 -0.4880  0.4659
 1402TIP3    H225622   3.315   0.032  15.840  0.3364  0.1633  1.7804
 1403TIP3   OH225623   0.867   4.750  10.763 -0.1856 -0.4969  0.1269
 1403TIP3    H125624   0.793   4.689  10.770 -1.0348  0.4533 -0.2737
 1403TIP3    H225625   0.837   4.817  10.702  0.4688  0.6686  1.0275
 1404TIP3   OH225626   4.285   0.170   2.372  0.0580 -0.3089  0.1926
 1404TIP3    H125627   4.327   0.090   2.339 -0.1720  0.0926 -1.1169
 1404TIP3    H225628   4.194   0.145   2.385  0.4281 -0.8595  1.9301
 1405TIP3   OH225629   4.166   4.324   1.017  0.2291 -0.5067  0.2502
 1405TIP3    H125630   4.224   4.250   1.003  1.3217  0.5592 -1.2110
 1405TIP3    H225631   4.128   4.342   0.931 -0.8758 -0.0591  0.8085
 1406TIP3   OH225632   5.424   5.867   4.153  0.4292  0.4139  0.3992
 1406TIP3    H125633   5.374   5.815   4.090  0.6567 -1.5185  1.7125
 1406TIP3    H225634   5.358   5.921   4.197 -0.5259 -1.7214  1.7410
 1407TIP3   OH225635   2.574   1.841   5.025  0.1787  0.1432 -0.2296
 1407TIP3    H125636   2.664   1.871   5.017  0.5360 -0.6579  0.5590
 1407TIP3    H225637   2.554   1.799   4.941  0.4054  0.6685 -0.5458
 1408TIP3   OH225638   0.865   0.768   1.503 -0.2257 -0.2304 -0.6366
 1408TIP3    H125639   0.844   0.859   1.525 -0.1987 -0.4271  0.2711
 1408TIP3    H225640   0.957   0.770   1.478 -0.2667  0.0137 -0.7781
 1409TIP3   OH225641   0.751   3.260  11.416  0.1174  0.0413 -0.3416
 1409TIP3    H125642   0.746   3.351  11.444 -0.9802 -0.1176  0.0432
 1409TIP3    H225643   0.809   3.261  11.340  0.5929  0.9660  0.0156
 1410TIP3   OH225644   5.325   3.254   2.719 -0.1892 -0.0184  0.3537
 1410TIP3    H125645   5.250   3.205   2.754 -0.1634  0.4226  1.0576
 1410TIP3    H225646   5.314   3.251   2.624 -1.0833  0.0112  0.4489
 1411TIP3   OH225647   1.679   2.063   6.011  0.6301  0.1602  0.3470
 1411TIP3    H125648   1.646   2.016   6.088  0.0499  0.8332  0.5092
 1411TIP3    H225649   1.721   2.141   6.046  0.9569  0.1355  0.0220
 1412TIP3   OH225650   5.281   4.157  10.311 -0.1458 -0.1916  0.2099
 1412TIP3    H125651   5.332   4.101  10.369 -0.9851 -0.8203  0.3540
 1412TIP3    H225652   5.335   4.235  10.299 -0.1259  0.1424  2.1904
 1413TIP3   OH225653   1.146   5.533   3.977 -0.0713 -0.2218  0.5297
 1413TIP3    H125654   1.074   5.559   4.036 -0.3856 -1.5480  0.7508
 1413TIP3    H225655   1.225   5.568   4.019 -0.5586  1.3211  0.2436
 1414TIP3   OH225656   2.541   5.056  13.046  0.0965  0.0177 -0.1461
 1414TIP3    H125657   2.505   5.091  12.965  0.8261 -1.7530 -1.2811
 1414TIP3    H225658   2.569   4.968  13.024  1.2531 -0.1519  1.7808
 1415TIP3   OH225659   3.762   5.868  10.658 -0.1975  0.0609 -0.2689
 1415TIP3    H125660   3.709   5.919  10.597  1.0259  1.8431  0.0550
 1415TIP3    H225661   3.723   5.781  10.658 -1.8949  0.7721 -1.4840
 1416TIP3   OH225662   3.108   5.514  15.241 -0.4186  0.0274 -0.3810
 1416TIP3    H125663   3.072   5.560  15.317  0.9001  0.9653 -0.2797
 1416TIP3    H225664   3.168   5.450  15.277  1.0084  1.1847 -0.6280
 1417TIP3   OH225665   2.672   4.856   5.623  0.2205  0.0540 -0.0859
 1417TIP3    H125666   2.742   4.795   5.600  1.0952  0.0320  2.3002
 1417TIP3    H225667   2.718   4.931   5.662 -0.8262  2.2164 -2.6836
 1418TIP3   OH225668   3.182   1.942  14.172  0.1820  0.1137  0.4761
 1418TIP3    H125669   3.252   1.977  14.226  0.3526  0.4200  0.0571
 1418TIP3    H225670   3.226   1.886  14.108 -0.0298 -0.3543  0.7330
 1419TIP3   OH225671   6.470   3.299  10.952 -0.2134 -0.5903 -0.8170
 1419TIP3    H125672   6.418   3.349  10.889  0.2620  0.1275 -0.6551
 1419TIP3    H225673   6.554   3.285  10.908  0.9261  1.7786  0.3996
 1420TIP3   OH225674   5.131   4.687   4.791 -0.3136  0.2357  0.4035
 1420TIP3    H125675   5.037   4.692   4.807 -0.1579 -0.6072  1.7245
 1420TIP3    H225676   5.171   4.719   4.872  0.5300 -2.2130  1.0553
 1421TIP3   OH225677   2.808   1.399  13.404  0.7732 -0.6392  0.2073
 1421TIP3    H125678   2.790   1.332  13.469 -1.9233 -1.2125 -1.0089
 1421TIP3    H225679   2.800   1.354  13.320 -0.9012  1.0918 -0.6300
 1422TIP3   OH225680   6.318   4.624  12.196  0.0204 -0.2462 -0.2943
 1422TIP3    H125681   6.257   4.662  12.132  2.2497  0.4969 -2.0905
 1422TIP3    H225682   6.312   4.683  12.271 -0.7345  0.3741 -0.8139
 1423TIP3   OH225683   4.639   1.995   3.610 -0.0534 -0.3101  0.3660
 1423TIP3    H125684   4.565   1.973   3.666 -2.1426 -0.0773 -2.0914
 1423TIP3    H225685   4.692   2.054   3.662 -3.9412  3.1947  0.8897
 1424TIP3   OH225686   2.752   3.339   1.348 -0.2009 -0.0843  0.3826
 1424TIP3    H125687   2.795   3.260   1.381 -1.3297 -0.4841  0.9616
 1424TIP3    H225688   2.750   3.327   1.253  1.4804  0.2326  0.2825
 1425TIP3   OH225689   5.449   0.925  15.271  0.1132  0.0400  0.6998
 1425TIP3    H125690   5.367   0.941  15.226  0.0390  1.4613  1.2991
 1425TIP3    H225691   5.492   0.856  15.219 -1.0453 -0.0929 -0.1115
 1426TIP3   OH225692   3.935   2.117  11.414  0.7036 -0.1953  0.4155
 1426TIP3    H125693   3.936   2.046  11.350  0.8232  0.3560 -0.2055
 1426TIP3    H225694   3.856   2.167  11.393  1.2543  0.5555  0.0484
 1427TIP3   OH225695   5.645   3.011  13.559 -0.6166  0.5133 -0.2903
 1427TIP3    H125696   5.734   3.029  13.590 -0.4954  2.5586 -1.6339
 1427TIP3    H225697   5.589   3.041  13.631 -0.2981 -2.8263  1.5290
 1428TIP3   OH225698   6.039   2.340   3.820 -0.0169  0.1223  0.2545
 1428TIP3    H125699   6.103   2.407   3.843 -0.6355  1.1786 -0.9750
 1428TIP3    H225700   6.084   2.287   3.754  0.0909 -0.0281  0.4463
 1429TIP3   OH225701   5.234   2.350  11.793  0.0112 -0.2909 -0.6211
 1429TIP3    H125702   5.148   2.389  11.777 -0.3157 -0.5936  0.2968
 1429TIP3    H225703   5.258   2.308  11.710 -1.5672 -1.7680 -0.3983
 1430TIP3   OH225704   6.511   0.055  13.013  0.1665  0.1622  0.0697
 1430TIP3    H125705   6.425   0.065  13.054 -1.4676 -0.8895 -2.7934
 1430TIP3    H225706   6.556  -0.010  13.068 -1.5164 -0.4999  0.7536
 1431TIP3   OH225707   5.035   1.164  13.863  0.6072  0.1894  0.4762
 1431TIP3    H125708   5.029   1.254  13.830 -3.4489  0.1548  0.5977
 1431TIP3    H225709   5.038   1.110  13.785  0.6579  0.3786  0.3457
 1432TIP3   OH225710   5.936   2.540  13.461 -0.1648  0.2138 -0.3835
 1432TIP3    H125711   5.992   2.467  13.489  1.2001  1.0490 -0.8396
 1432TIP3    H225712   5.974   2.617  13.504 -0.6013  0.8859 -1.1783
 1433TIP3   OH225713   5.094   4.953  14.307 -0.0431 -0.1465  0.1822
 1433TIP3    H125714   5.148   4.925  14.233  0.9393  1.0777  0.4069
 1433TIP3    H225715   5.022   4.889  14.310  0.1880 -0.5167 -1.4865
 1434TIP3   OH225716   0.478   5.605   0.287 -0.0623  0.3732 -0.2141
 1434TIP3    H125717   0.465   5.604   0.382  0.3196 -1.0878 -0.1602
 1434TIP3    H225718   0.525   5.687   0.270 -1.6511  1.5166  0.6200
 1435TIP3   OH225719   1.644   4.253  15.911  0.1723  0.0235  0.1847
 1435TIP3    H125720   1.718   4.200  15.941 -1.2182 -0.9450  2.1672
 1435TIP3    H225721   1.628   4.314  15.984 -1.5848 -0.4826  0.2790
 1436TIP3   OH225722   1.205   0.081   5.056  0.1761 -0.3054  0.4108
 1436TIP3    H125723   1.194   0.132   5.136  0.5063  0.5679 -0.0813
 1436TIP3    H225724   1.154   0.128   4.990  0.0715 -0.9023  0.0586
 1437TIP3   OH225725   2.311   2.962  10.900  0.1376  0.0324 -0.2437
 1437TIP3    H125726   2.332   2.965  10.994 -0.8471 -0.3886  0.0042
 1437TIP3    H225727   2.380   3.013  10.859  0.3132  0.6549  0.7692
 1438TIP3   OH225728   1.068   6.203   1.054  0.1638 -0.4364 -0.0406
 1438TIP3    H125729   1.159   6.230   1.065  0.6359 -2.0550  0.2469
 1438TIP3    H225730   1.054   6.202   0.959  1.1898 -2.4233 -0.2115
 1439TIP3   OH225731   2.215   0.426  16.414  0.3295 -0.1543  0.7363
 1439TIP3    H125732   2.141   0.456  16.468  1.3215  2.3686  0.8203
 1439TIP3    H225733   2.253   0.354  16.465 -2.9925 -2.7698 -0.1287
 1440TIP3   OH225734   0.637   3.654  15.407 -0.3737  0.2432 -0.2894
 1440TIP3    H125735   0.575   3.652  15.480  1.2861  0.9329  1.2054
 1440TIP3    H225736   0.594   3.708  15.341 -0.6981  2.1605  1.3938
 1441TIP3   OH225737   6.064   0.451   2.651  0.1608  0.2979 -0.3820
 1441TIP3    H125738   6.063   0.455   2.746  0.0675  0.7592 -0.3957
 1441TIP3    H225739   6.151   0.482   2.627  0.7469 -1.3015 -0.4058
 1442TIP3   OH225740   5.348   3.339   4.841  0.6720  0.2368  0.5048
 1442TIP3    H125741   5.349   3.403   4.913 -1.4419  0.3351  0.4839
 1442TIP3    H225742   5.433   3.295   4.848  1.2945  1.5660  1.8605
 1443TIP3   OH225743   2.267   5.528  13.699  0.1635 -0.2806 -0.2024
 1443TIP3    H125744   2.278   5.501  13.608 -1.1256 -1.8587  0.0452
 1443TIP3    H225745   2.290   5.450  13.750 -0.5720  0.0821  0.7286
 1444TIP3   OH225746   6.704   6.667  14.662 -0.6437 -0.2611 -0.5818
 1444TIP3    H125747   6.655   6.731  14.714  2.3170  2.1406 -0.4853
 1444TIP3    H225748   6.695   6.698  14.571  3.3050  2.4472 -0.2860
 1445TIP3   OH225749   2.016   3.853  16.627  0.5261  0.3381  0.0539
 1445TIP3    H125750   2.074   3.867  16.552 -0.6240  0.1891 -0.9064
 1445TIP3    H225751   1.931   3.889  16.598 -0.4703 -1.5260  0.4847
 1446TIP3   OH225752   0.324   0.008   2.712 -0.0213 -0.5965  0.5371
 1446TIP3    H125753   0.234  -0.022   2.725 -0.1023 -1.1080 -1.0125
 1446TIP3    H225754   0.336   0.006   2.617  2.1928 -2.1723  0.7927
 1447TIP3   OH225755   5.013   0.927   1.191  0.2366 -0.1716  0.6413
 1447TIP3    H125756   4.962   0.873   1.131  0.3036 -0.3685  0.7569
 1447TIP3    H225757   5.016   1.013   1.150  0.1854 -0.2745  0.4190
 1448TIP3   OH225758   2.940   3.998   2.614  0.3276 -0.5368 -0.1774
 1448TIP3    H125759   2.882   3.938   2.660  0.7497 -0.2319  0.7606
 1448TIP3    H225760   2.884   4.070   2.587 -0.0046 -0.9191 -0.5382
 1449TIP3   OH225761   2.691   0.937   3.878  0.1619 -0.1046 -0.0876
 1449TIP3    H125762   2.654   0.997   3.942 -0.6220 -0.4670 -0.1925
 1449TIP3    H225763   2.676   0.979   3.794  4.1958  2.0733  0.0051
 1450TIP3   OH225764   2.064   3.478   2.828  0.0943 -0.0155  0.5978
 1450TIP3    H125765   2.134   3.519   2.778 -0.7323  0.3839 -0.2499
 1450TIP3    H225766   2.074   3.384   2.812 -0.4843  0.1378 -0.7775
 1451TIP3   OH225767   0.432   6.201  14.697  0.2526  0.4941 -0.3635
 1451TIP3    H125768   0.473   6.215  14.612 -0.0788  0.1645 -0.5819
 1451TIP3    H225769   0.498   6.153  14.748  0.2905  0.3093 -0.5847
 1452TIP3   OH225770   5.139   0.085  13.138  0.2282  0.0150 -0.3694
 1452TIP3    H125771   5.212   0.086  13.200 -1.5120 -0.2145  1.8148
 1452TIP3    H225772   5.101  -0.003  13.149 -1.3346  0.6812 -0.2130
 1453TIP3   OH225773   2.171   4.382   0.941  0.2535 -0.3805 -0.1061
 1453TIP3    H125774   2.260   4.365   0.971  0.4070  0.0730 -0.2858
 1453TIP3    H225775   2.161   4.477   0.951 -0.5725 -0.5603  0.8886
 1454TIP3   OH225776   3.971   3.383   1.016 -0.2726 -0.0197 -0.0737
 1454TIP3    H125777   3.953   3.289   1.007 -1.4805  0.1343  0.6325
 1454TIP3    H225778   3.931   3.408   1.099  1.5950  0.7648  0.6639
 1455TIP3   OH225779   6.776   5.374  11.661  0.0021  0.1729 -0.1656
 1455TIP3    H125780   6.747   5.440  11.598  0.0991  0.9608  0.5847
 1455TIP3    H225781   6.772   5.291  11.614  1.4615  0.8984 -1.6542
 1456TIP3   OH225782   3.061   6.531   0.800  0.6994  0.0953  0.8075
 1456TIP3    H125783   3.073   6.462   0.866  0.7381 -1.9894 -1.2653
 1456TIP3    H225784   2.967   6.531   0.783  0.5842  1.1582  1.3569
 1457TIP3   OH225785   3.512   5.976   4.952 -0.0385  0.6484  0.5134
 1457TIP3    H125786   3.421   5.946   4.956  0.4387 -1.0511 -0.5232
 1457TIP3    H225787   3.512   6.044   4.884 -0.4038  0.1217 -0.0205
 1458TIP3   OH225788   2.444   1.258  14.397 -0.0998  0.0625 -0.0355
 1458TIP3    H125789   2.496   1.240  14.319 -0.5110  0.1878 -0.3384
 1458TIP3    H225790   2.404   1.173  14.419  0.0271  0.0240  0.0491
 1459TIP3   OH225791   1.225   4.289  15.133 -0.3977 -0.0514  0.4286
 1459TIP3    H125792   1.192   4.230  15.200  0.0156  0.0671  0.7457
 1459TIP3    H225793   1.204   4.377  15.166  1.3861  0.0939  1.3026
 1460TIP3   OH225794   4.730   5.428  15.522 -0.0298 -0.3202  0.2778
 1460TIP3    H125795   4.704   5.417  15.614 -0.6681 -2.4695 -0.1038
 1460TIP3    H225796   4.648   5.426  15.474  0.2214  1.8045 -0.2990
 1461TIP3   OH225797   2.810   6.423  11.148 -0.2153 -0.0277 -0.7318
 1461TIP3    H125798   2.719   6.433  11.123 -0.5701 -0.1508  0.4440
 1461TIP3    H225799   2.860   6.459  11.074 -1.2468  2.0792 -0.4702
 1462TIP3   OH225800   2.230   2.051   3.672  0.1383 -0.0427  0.4980
 1462TIP3    H125801   2.264   1.970   3.634  0.4147  0.2651  0.0745
 1462TIP3    H225802   2.136   2.050   3.650  0.1856 -0.1371  0.2939
 1463TIP3   OH225803   5.739   2.266   2.953 -0.5382 -0.2543 -0.3183
 1463TIP3    H125804   5.659   2.300   2.991 -1.1159 -0.9092 -0.9276
 1463TIP3    H225805   5.799   2.258   3.027 -1.7998 -1.9783  0.5933
 1464TIP3   OH225806   2.474   5.036   2.258  0.0176  0.4422  0.2500
 1464TIP3    H125807   2.495   5.099   2.326 -1.3458  1.5679 -0.3268
 1464TIP3    H225808   2.380   5.022   2.266  0.2761 -1.4990  0.3189
 1465TIP3   OH225809   1.248   5.473   5.825  0.3710  0.3298 -0.2132
 1465TIP3    H125810   1.219   5.396   5.874 -1.4741  1.1663  0.1142
 1465TIP3    H225811   1.270   5.538   5.891  1.6977  0.1951 -0.4920
 1466TIP3   OH225812   0.863   1.408   5.925 -0.0077 -0.3725  0.2274
 1466TIP3    H125813   0.840   1.316   5.934  0.6438 -0.5809 -0.2008
 1466TIP3    H225814   0.787   1.455   5.960 -0.5427 -1.0606  0.0224
 1467TIP3   OH225815   3.843   1.393   4.984  0.2707 -0.1651 -0.4347
 1467TIP3    H125816   3.804   1.312   5.018 -2.0043  1.2643  0.5351
 1467TIP3    H225817   3.892   1.428   5.059  0.1735  0.0217 -0.4606
 1468TIP3   OH225818   5.156   4.809   5.581  0.7734 -0.1479 -0.0548
 1468TIP3    H125819   5.235   4.822   5.632  0.5292  1.0993  0.0246
 1468TIP3    H225820   5.142   4.714   5.582  0.4939 -0.1457  2.6297
 1469TIP3   OH225821   0.572   4.943  16.660 -0.2493  0.3390  0.8154
 1469TIP3    H125822   0.610   5.030  16.673  0.1972  1.0464 -3.7666
 1469TIP3    H225823   0.479   4.954  16.682 -0.0534  1.7209  1.0497
 1470TIP3   OH225824   6.387   5.869   1.089  0.2347 -0.1798  0.2973
 1470TIP3    H125825   6.365   5.836   1.002  2.8027  1.4466 -1.0911
 1470TIP3    H225826   6.346   5.955   1.093  0.0275 -0.2958  0.7778
 1471TIP3   OH225827   6.728   1.937  11.104 -0.4771  0.3301 -0.2304
 1471TIP3    H125828   6.682   1.922  11.187  0.4551 -1.2000  0.0483
 1471TIP3    H225829   6.809   1.981  11.130 -0.8968  1.2942 -0.5183
 1472TIP3   OH225830   5.825   4.151   2.179  0.0038  0.1299 -0.2642
 1472TIP3    H125831   5.820   4.059   2.151 -0.7416 -0.2416  1.0208
 1472TIP3    H225832   5.839   4.199   2.098  3.5341 -1.3393 -0.7036
 1473TIP3   OH225833   5.540   4.035  14.370 -0.3809  0.4294  0.5896
 1473TIP3    H125834   5.563   3.942  14.382  0.7970  0.3118 -1.8711
 1473TIP3    H225835   5.447   4.039  14.388 -0.4250 -1.2200  0.9232
 1474TIP3   OH225836   2.445   4.250   0.599 -0.5975  0.0261 -0.4988
 1474TIP3    H125837   2.531   4.271   0.561 -0.4081  0.0075 -0.0846
 1474TIP3    H225838   2.389   4.234   0.523 -0.6714  1.6953 -0.8472
 1475TIP3   OH225839   5.226   4.533  17.041 -0.4252  0.3195  0.0675
 1475TIP3    H125840   5.150   4.582  17.075  0.6648  1.5488  0.8196
 1475TIP3    H225841   5.290   4.537  17.112  0.4091 -0.5771 -0.6161
 1476TIP3   OH225842   1.167   6.232  16.048  0.1250 -0.5152  0.2327
 1476TIP3    H125843   1.095   6.202  15.993  1.5858 -2.0871 -0.9254
 1476TIP3    H225844   1.211   6.300  15.996  1.0450 -1.4575 -0.2584
 1477TIP3   OH225845   2.457   4.454  12.435  0.4647 -0.2182 -0.0290
 1477TIP3    H125846   2.549   4.477  12.417  0.4432  0.9532  1.1849
 1477TIP3    H225847   2.432   4.398  12.362  2.3264 -1.0715 -0.0782
 1478TIP3   OH225848   6.057   6.660   4.462 -0.4984 -0.3646 -0.3807
 1478TIP3    H125849   5.962   6.674   4.460 -0.3507  0.6701 -2.4610
 1478TIP3    H225850   6.093   6.741   4.498 -0.3786 -0.6610  0.1748
 1479TIP3   OH225851   0.583   5.468  13.073  0.1945  0.1363  0.1036
 1479TIP3    H125852   0.637   5.529  13.023 -2.2348  1.5826 -0.9189
 1479TIP3    H225853   0.551   5.405  13.008 -0.3551  0.0456  0.4584
 1480TIP3   OH225854   3.788   4.190   2.424 -0.5160  0.5842  0.3445
 1480TIP3    H125855   3.801   4.146   2.508  0.9073  0.0641 -0.1283
 1480TIP3    H225856   3.708   4.241   2.436 -1.4707 -1.0409  1.3767
 1481TIP3   OH225857   0.622   1.711  12.047 -0.5976  0.2107  0.1489
 1481TIP3    H125858   0.569   1.790  12.043  0.5597  1.1044  1.6133
 1481TIP3    H225859   0.704   1.739  12.087  0.2155 -1.5398 -0.2055
 1482TIP3   OH225860   3.288   5.677   6.483 -0.0510 -0.1406 -0.4243
 1482TIP3    H125861   3.364   5.673   6.425  0.7258 -2.6160  0.6365
 1482TIP3    H225862   3.227   5.611   6.448 -0.7310  0.2178  0.0561
 1483TIP3   OH225863   1.775   4.970  12.011  0.4174 -0.2121  0.0575
 1483TIP3    H125864   1.750   5.052  12.053 -0.7864 -1.1993  1.3673
 1483TIP3    H225865   1.696   4.941  11.965  1.3456  0.2022 -1.8986
 1484TIP3   OH225866   5.197   0.012   0.708  0.2227 -1.0082  0.5033
 1484TIP3    H125867   5.160   0.049   0.628 -0.1645 -0.1576  1.0548
 1484TIP3    H225868   5.157  -0.074   0.715 -1.0699 -0.4271  0.6543
 1485TIP3   OH225869   2.683   3.920  11.862 -0.4596  0.2534  0.1025
 1485TIP3    H125870   2.719   3.930  11.773  1.5448 -0.6144  0.7491
 1485TIP3    H225871   2.712   3.999  11.907  1.4505 -0.8120  0.8469
 1486TIP3   OH225872   0.844   3.172   1.294 -0.0049 -0.4453 -0.2664
 1486TIP3    H125873   0.922   3.171   1.349 -0.8626 -0.7753  0.9966
 1486TIP3    H225874   0.867   3.119   1.217  1.7869  1.4152 -1.0930
 1487TIP3   OH225875   1.833   3.094  13.963 -0.1284 -0.4552  0.4840
 1487TIP3    H125876   1.761   3.070  14.021 -0.5762  1.1455  0.6186
 1487TIP3    H225877   1.803   3.173  13.918  1.5354  0.2437  0.5447
 1488TIP3   OH225878   1.364   1.014  16.293  0.4458  0.2650  0.0858
 1488TIP3    H125879   1.365   0.924  16.325 -0.3702  0.8052  1.7488
 1488TIP3    H225880   1.451   1.027  16.256  0.5508 -1.2079 -0.2817
 1489TIP3   OH225881   2.594   5.909  13.281 -0.1141  0.1976 -0.2894
 1489TIP3    H125882   2.682   5.880  13.259  0.1201  0.6374  0.0454
 1489TIP3    H225883   2.607   5.990  13.330 -0.7987  1.5825 -2.2795
 1490TIP3   OH225884   4.876   1.611  16.914  0.2658 -0.4579 -0.6507
 1490TIP3    H125885   4.801   1.553  16.905 -0.9482  0.5076  1.9560
 1490TIP3    H225886   4.851   1.690  16.865 -0.3271 -0.2695 -0.0730
 1491TIP3   OH225887   6.012   5.083   5.674 -0.0941 -0.7080  0.3127
 1491TIP3    H125888   6.055   5.004   5.643 -0.9298 -0.9007 -0.3707
 1491TIP3    H225889   5.998   5.136   5.595 -1.9723 -1.0754  0.3541
 1492TIP3   OH225890   0.174   5.203  11.406  0.4136  0.0201 -0.4567
 1492TIP3    H125891   0.190   5.143  11.334  1.8794 -0.7170  0.4163
 1492TIP3    H225892   0.081   5.223  11.401  0.4623 -0.0559 -2.4856
 1493TIP3   OH225893   0.559   5.910  16.153  0.0220  0.4457  0.3937
 1493TIP3    H125894   0.556   5.978  16.086 -0.6508  2.1055  2.0080
 1493TIP3    H225895   0.467   5.896  16.177  0.1306 -1.2369 -0.0747
 1494TIP3   OH225896   4.979   4.472   3.569  0.2146 -0.3555  0.5277
 1494TIP3    H125897   5.050   4.531   3.546  0.1462 -0.2501  0.5850
 1494TIP3    H225898   5.017   4.413   3.634  0.4787 -0.8106 -0.0288
 1495TIP3   OH225899   0.014   1.955  10.273  0.5298  0.0173  0.0438
 1495TIP3    H125900  -0.028   1.886  10.325  0.8241 -0.8425 -0.8425
 1495TIP3    H225901   0.107   1.935  10.277  0.6977  0.8293  0.4242
 1496TIP3   OH225902   3.431   2.461   5.609 -0.1403 -0.0318 -0.7701
 1496TIP3    H125903   3.429   2.551   5.577 -2.4797  0.4420  0.4560
 1496TIP3    H225904   3.478   2.467   5.693  2.1529 -0.5103 -1.9464
 1497TIP3   OH225905   3.975   0.332   1.542 -0.1416  0.1054  0.0324
 1497TIP3    H125906   4.024   0.415   1.537 -1.4539  0.8838 -0.3258
 1497TIP3    H225907   4.042   0.264   1.532  1.0181  1.1013  0.7696
 1498TIP3   OH225908   2.517   3.127  13.917  0.2628 -1.2632 -0.4471
 1498TIP3    H125909   2.434   3.164  13.887  1.2960 -0.3137 -2.2981
 1498TIP3    H225910   2.533   3.169  14.001  1.0499  2.1666 -2.1382
 1499TIP3   OH225911   2.737   3.319  15.410  0.0569 -0.1677 -0.4452
 1499TIP3    H125912   2.744   3.375  15.333  2.4323  1.0541  0.5616
 1499TIP3    H225913   2.803   3.251  15.397  0.7756  0.3004  0.6858
 1500TIP3   OH225914   1.893   2.395   4.746  0.2816  0.3794 -0.6545
 1500TIP3    H125915   1.854   2.331   4.687  1.1085 -1.7499  0.9642
 1500TIP3    H225916   1.988   2.379   4.739  0.3800 -0.4708  1.7161
 1501TIP3   OH225917   0.821   6.170   5.659  0.0244  0.5489  0.2877
 1501TIP3    H125918   0.891   6.212   5.610 -0.0573 -0.3593 -0.6521
 1501TIP3    H225919   0.854   6.082   5.678 -0.7565  0.1880  0.0266
 1502TIP3   OH225920   6.778   5.166   1.458 -0.1545  0.1754  0.4922
 1502TIP3    H125921   6.782   5.221   1.380  0.0365  0.8206  0.9497
 1502TIP3    H225922   6.753   5.080   1.426  0.6352  0.2605 -0.3746
 1503TIP3   OH225923   5.641   0.801   1.884 -0.1163  0.0996  0.5949
 1503TIP3    H125924   5.555   0.790   1.925 -0.2462 -0.5778  0.1571
 1503TIP3    H225925   5.642   0.738   1.812 -0.8338  2.8443 -2.0095
 1504TIP3   OH225926   2.491   4.815   1.286 -0.0602 -0.3178  0.3156
 1504TIP3    H125927   2.498   4.778   1.374  0.3389  0.0489  0.4419
 1504TIP3    H225928   2.570   4.784   1.241 -1.3061 -2.3174 -0.6215
 1505TIP3   OH225929   2.512   4.344  15.630  0.3183  0.2767  0.0485
 1505TIP3    H125930   2.493   4.434  15.602 -0.2348  0.1358 -0.0287
 1505TIP3    H225931   2.595   4.352  15.679 -0.4402  1.0662  1.2776
 1506TIP3   OH225932   0.544   6.680  16.088  0.0000  0.0824 -0.5482
 1506TIP3    H125933   0.527   6.662  16.180 -2.4316 -0.7085 -1.0794
 1506TIP3    H225934   0.605   6.612  16.060  0.4049  0.0647  0.3575
 1507TIP3   OH225935   3.519   1.472   3.926  0.2955  0.0764  0.0021
 1507TIP3    H125936   3.477   1.485   4.012  0.0294 -1.5331  0.1559
 1507TIP3    H225937   3.594   1.416   3.945  0.1977 -0.3416 -0.8124
 1508TIP3   OH225938   5.163   5.829   4.623 -0.0390  0.3012  0.2300
 1508TIP3    H125939   5.120   5.846   4.707  1.9459 -0.7754  1.5241
 1508TIP3    H225940   5.249   5.793   4.646  0.5772 -0.0140 -2.2676
 1509TIP3   OH225941   1.162   1.085  14.429  0.4005  0.0778  0.0325
 1509TIP3    H125942   1.239   1.036  14.459  1.6214  1.8575 -0.0924
 1509TIP3    H225943   1.090   1.023  14.439  2.1242 -2.4851 -2.0569
 1510TIP3   OH225944   0.067   0.165  16.756  0.2795  0.4501  0.1980
 1510TIP3    H125945   0.143   0.174  16.813  0.2508  1.6744  0.0769
 1510TIP3    H225946   0.093   0.209  16.675  0.3654 -1.3556 -0.8007
 1511TIP3   OH225947   3.778   2.922   3.978 -0.0891 -0.3959 -0.3416
 1511TIP3    H125948   3.736   2.843   4.012  2.2003 -2.4072 -1.9449
 1511TIP3    H225949   3.812   2.967   4.056 -2.2640 -0.3807  0.6734
 1512TIP3   OH225950   1.059   0.273   4.912  0.3815 -0.1605 -0.5284
 1512TIP3    H125951   1.043   0.211   4.841 -2.5421  0.4329 -0.5042
 1512TIP3    H225952   1.103   0.347   4.870  0.1145 -0.4897 -1.4016
 1513TIP3   OH225953   1.727   4.976  16.155 -0.1752 -0.2444  0.4568
 1513TIP3    H125954   1.719   4.917  16.080  2.2503 -1.4957  1.0858
 1513TIP3    H225955   1.743   4.919  16.230 -0.8715  1.0658  1.6634
 1514TIP3   OH225956   1.978   1.425   0.336 -0.3547  0.2858 -0.0648
 1514TIP3    H125957   1.986   1.334   0.363  2.0670  0.6337  0.6106
 1514TIP3    H225958   1.975   1.474   0.419 -3.2663  0.8036 -0.3614
 1515TIP3   OH225959   4.649   2.663  17.040 -0.1132 -0.6631  0.2426
 1515TIP3    H125960   4.685   2.748  17.016 -1.3031  0.1307  1.1268
 1515TIP3    H225961   4.725   2.606  17.053  0.6721 -0.4355 -2.6700
 1516TIP3   OH225962   3.298   3.850  11.973  0.0706 -0.6498  0.3224
 1516TIP3    H125963   3.379   3.800  11.979  0.3770 -0.5497 -1.9831
 1516TIP3    H225964   3.259   3.823  11.890 -1.7037  0.1354  0.8408
 1517TIP3   OH225965   4.305   2.577  14.003  0.0739  0.4129  0.6955
 1517TIP3    H125966   4.365   2.507  14.031 -0.3939  0.0888  0.9019
 1517TIP3    H225967   4.300   2.636  14.079 -0.7092 -0.1369  1.0858
 1518TIP3   OH225968   3.207   4.537   3.305 -0.6352  0.1906 -0.0528
 1518TIP3    H125969   3.178   4.586   3.228 -0.6464 -0.4410 -0.4555
 1518TIP3    H225970   3.247   4.604   3.361 -2.7821  1.0905  0.5072
 1519TIP3   OH225971   0.615   5.109  10.750  0.3037  0.0286 -0.3055
 1519TIP3    H125972   0.552   5.039  10.763 -0.4016  0.9513  1.5929
 1519TIP3    H225973   0.676   5.100  10.823  0.2607  1.3086 -0.0870
 1520TIP3   OH225974   3.179   5.462  15.631  0.1160 -0.4519  0.5163
 1520TIP3    H125975   3.217   5.375  15.642 -0.4891 -0.8823 -0.6188
 1520TIP3    H225976   3.202   5.488  15.542  0.7894  0.8219  1.0316
 1521TIP3   OH225977   5.514   6.218   2.148  0.3256 -0.4116 -0.5932
 1521TIP3    H125978   5.429   6.193   2.111  0.9046 -1.6657 -1.1244
 1521TIP3    H225979   5.527   6.156   2.220 -0.0278  0.9550  0.7041
 1522TIP3   OH225980   0.737   1.970  12.781  0.1183 -0.1503  0.0401
 1522TIP3    H125981   0.676   2.036  12.748 -0.3098  0.0471  1.2058
 1522TIP3    H225982   0.683   1.891  12.793  0.4647 -0.4962 -0.5785
 1523TIP3   OH225983   5.847   4.939  16.318  0.1030 -0.0618  1.0367
 1523TIP3    H125984   5.919   4.969  16.373  2.9583 -2.2759 -1.1780
 1523TIP3    H225985   5.866   4.976  16.232  1.1717 -4.0475 -0.6293
 1524TIP3   OH225986   3.779   3.063   1.738 -0.2844  0.1061  0.1076
 1524TIP3    H125987   3.826   3.147   1.743  0.2642 -0.2474  2.8148
 1524TIP3    H225988   3.691   3.083   1.769 -0.1141 -0.3088  0.8875
 1525TIP3   OH225989   0.676   0.047  14.392  0.4410 -0.4039  0.1911
 1525TIP3    H125990   0.718  -0.013  14.330  0.3806  0.4194 -0.6632
 1525TIP3    H225991   0.583   0.028  14.384  0.1646  1.4172 -1.9054
 1526TIP3   OH225992   3.226   2.147  15.296  0.3854  0.4152  0.3638
 1526TIP3    H125993   3.133   2.126  15.303  0.0954  1.1885 -0.8585
 1526TIP3    H225994   3.254   2.105  15.215  1.2744 -0.3395  1.0389
 1527TIP3   OH225995   6.654   3.483   1.552  0.4178 -0.1086 -0.3014
 1527TIP3    H125996   6.679   3.392   1.543  0.3100 -0.0057 -1.9971
 1527TIP3    H225997   6.624   3.492   1.643 -2.5350 -2.5154 -0.8866
 1528TIP3   OH225998   1.813   2.333  11.713  0.2794 -0.8717 -0.0960
 1528TIP3    H125999   1.830   2.398  11.782 -2.5251 -0.9201  0.7748
 1528TIP3    H226000   1.881   2.349  11.648  1.5199  0.8742  1.5154
 1529TIP3   OH226001   0.764   0.367   3.591  0.6995 -0.0680 -0.1950
 1529TIP3    H126002   0.790   0.305   3.660  0.8496  0.6379  0.3932
 1529TIP3    H226003   0.722   0.438   3.639  2.3301  1.2586 -0.6705
 1530TIP3   OH226004   3.429   6.721  11.874  0.0162  0.3425 -0.3685
 1530TIP3    H126005   3.384   6.637  11.884  0.5917  0.1960  1.2021
 1530TIP3    H226006   3.503   6.716  11.935  1.0555  1.3266 -1.4934
 1531TIP3   OH226007   2.543   4.509   1.262  0.2670 -0.3312  0.0115
 1531TIP3    H126008   2.623   4.561   1.265  0.1232 -0.0121 -1.2114
 1531TIP3    H226009   2.563   4.431   1.314  1.4335 -0.3513 -0.4356
 1532TIP3   OH226010   5.393   3.641   5.448 -0.1342  0.2213 -0.2181
 1532TIP3    H126011   5.384   3.673   5.538 -1.7024  0.6583 -0.5102
 1532TIP3    H226012   5.369   3.715   5.393 -1.0989 -0.6142 -0.9620
 1533TIP3   OH226013   2.089   6.655   3.316  0.1078 -0.1572  0.2819
 1533TIP3    H126014   2.060   6.580   3.264  0.3100  0.0754 -0.1665
 1533TIP3    H226015   2.169   6.684   3.273 -1.0720  1.6331 -0.8417
 1534TIP3   OH226016   2.578   2.743   6.492 -0.1450  0.2366 -0.2924
 1534TIP3    H126017   2.616   2.716   6.575 -1.2374  0.8708  0.4473
 1534TIP3    H226018   2.644   2.799   6.452  0.4979 -0.2867  0.0257
 1535TIP3   OH226019   1.615   1.724  14.149 -0.2431  0.1057 -0.3847
 1535TIP3    H126020   1.563   1.804  14.144 -0.8703 -0.3490 -1.7278
 1535TIP3    H226021   1.626   1.708  14.242 -1.2569  1.0154 -0.0902
 1536TIP3   OH226022   4.733   5.317   3.699 -0.7609  0.2284  0.3930
 1536TIP3    H126023   4.786   5.335   3.777 -0.8775 -0.5804  0.6739
 1536TIP3    H226024   4.797   5.292   3.632 -0.7457 -0.2083  0.5698
 1537TIP3   OH226025   2.991   5.385  16.027 -0.0090  0.7012 -0.0157
 1537TIP3    H126026   3.075   5.424  16.051  0.4650 -0.0881 -0.3386
 1537TIP3    H226027   2.951   5.360  16.110  2.8058 -4.5224  0.1741
 1538TIP3   OH226028   0.160   2.057   2.905  0.5345 -0.6601  0.6474
 1538TIP3    H126029   0.180   1.985   2.846 -0.9508 -0.0295 -0.6657
 1538TIP3    H226030   0.114   2.016   2.978  1.0084 -1.2198  0.6440
 1539TIP3   OH226031   2.734   5.582  16.405  0.0118 -0.5851 -0.0551
 1539TIP3    H126032   2.697   5.494  16.414 -0.3032 -0.4570 -0.0876
 1539TIP3    H226033   2.717   5.606  16.314 -2.2719  0.5503  0.5884
 1540TIP3   OH226034   3.620   2.578  16.459 -0.0944 -0.4310 -0.3590
 1540TIP3    H126035   3.655   2.646  16.517 -1.3393  1.6041 -1.8637
 1540TIP3    H226036   3.602   2.504  16.518 -0.1335  1.0701  1.6418
 1541TIP3   OH226037   1.711   0.500   0.242 -0.8517  0.0614  0.0831
 1541TIP3    H126038   1.698   0.407   0.224  2.5234 -0.6298  0.4534
 1541TIP3    H226039   1.785   0.524   0.186  0.5682  1.5714  2.4562
 1542TIP3   OH226040   0.026   4.469  14.445 -0.0362 -0.2143 -0.3153
 1542TIP3    H126041  -0.047   4.503  14.393 -2.1452 -0.1147  2.4693
 1542TIP3    H226042   0.057   4.544  14.495  1.2169 -0.5320 -0.5792
 1543TIP3   OH226043   2.862   5.994  13.550  0.3136  0.0559 -0.4885
 1543TIP3    H126044   2.795   6.039  13.498 -1.8675 -1.3203  0.9563
 1543TIP3    H226045   2.942   6.004  13.499 -0.9839  1.6963 -2.3856
 1544TIP3   OH226046   1.748   4.278   4.436 -0.5465 -0.6137 -0.0954
 1544TIP3    H126047   1.709   4.194   4.414  0.9993 -1.7783  1.3191
 1544TIP3    H226048   1.836   4.256   4.466 -0.8416  1.2410  2.4690
 1545TIP3   OH226049   3.260   2.671   3.762 -0.2905  0.2400 -0.3088
 1545TIP3    H126050   3.300   2.586   3.747 -0.5263  0.1273 -0.3046
 1545TIP3    H226051   3.256   2.712   3.676 -1.6438 -0.4059 -0.5896
 1546TIP3   OH226052   3.670   5.678  11.656 -0.1918  0.8534  0.3099
 1546TIP3    H126053   3.699   5.656  11.567 -0.9094  1.5101 -0.1026
 1546TIP3    H226054   3.749   5.708  11.700  0.2406  0.1945  0.0058
 1547TIP3   OH226055   4.658   2.917   4.302 -0.1287  0.5413 -0.2965
 1547TIP3    H126056   4.743   2.956   4.281  0.0359  0.1721 -0.3234
 1547TIP3    H226057   4.608   2.988   4.342 -0.4156  1.2550 -1.8289
 1548TIP3   OH226058   1.952   6.558  16.098  0.2833  0.4572 -0.6459
 1548TIP3    H126059   1.923   6.513  16.019  0.7326 -0.7594 -0.1398
 1548TIP3    H226060   1.871   6.579  16.145  0.0747 -0.1456 -0.7298
 1549TIP3   OH226061   0.758   0.591   0.861 -0.0958 -0.2886 -0.2541
 1549TIP3    H126062   0.788   0.625   0.946 -0.6017  0.9044 -0.5286
 1549TIP3    H226063   0.677   0.640   0.844 -1.0995 -1.9535 -0.4901
 1550TIP3   OH226064   4.612   5.758   2.179  0.2844 -0.1788  0.1132
 1550TIP3    H126065   4.674   5.803   2.123  0.5850 -1.1886 -0.3746
 1550TIP3    H226066   4.529   5.805   2.166  0.4425 -0.1708 -0.8773
 1551TIP3   OH226067   5.394   5.839  13.984 -0.0344 -0.0121 -0.4726
 1551TIP3    H126068   5.301   5.858  13.987 -1.0658 -3.9910 -0.9762
 1551TIP3    H226069   5.424   5.848  14.075 -0.7633  1.6615 -0.3696
 1552TIP3   OH226070   4.771   5.986   5.217 -0.0684  0.7227  0.6099
 1552TIP3    H126071   4.681   6.021   5.215 -0.0509  0.8055  1.0904
 1552TIP3    H226072   4.778   5.944   5.303 -0.2856 -1.0072 -0.1882
 1553TIP3   OH226073   1.853   4.480  16.030  0.0344  0.0058  0.0094
 1553TIP3    H126074   1.937   4.511  16.064  1.6322 -0.3381 -3.1800
 1553TIP3    H226075   1.808   4.559  16.001 -0.2280  0.0951  0.6516
 1554TIP3   OH226076   4.325   3.438   3.125  0.3540  0.1376  0.9256
 1554TIP3    H126077   4.331   3.483   3.041 -2.9500  0.0629  0.5155
 1554TIP3    H226078   4.313   3.508   3.189  0.1105  0.0804  0.9443
 1555TIP3   OH226079   3.878   1.472  16.052  0.0119 -0.2086  0.2394
 1555TIP3    H126080   3.805   1.524  16.087  1.0303  0.7541  0.9751
 1555TIP3    H226081   3.857   1.462  15.959 -1.4139 -0.5639  0.5689
 1556TIP3   OH226082   6.429   0.387   4.785 -0.2422  0.5527 -0.2106
 1556TIP3    H126083   6.514   0.344   4.787  0.1957  1.4156  1.0827
 1556TIP3    H226084   6.366   0.316   4.772  0.7242  0.0549 -2.6377
 1557TIP3   OH226085   2.520   0.048   0.199 -0.0206 -0.0493 -0.5296
 1557TIP3    H126086   2.606   0.076   0.229  0.6413  0.7533 -2.9284
 1557TIP3    H226087   2.538  -0.023   0.137 -1.1459 -0.3529 -0.5365
 1558TIP3   OH226088   4.727   4.650  15.371  0.0513 -0.8798  0.6022
 1558TIP3    H126089   4.804   4.608  15.409  1.4221  0.1666 -0.8436
 1558TIP3    H226090   4.733   4.742  15.398 -1.0211 -0.8939  0.9367
 1559TIP3   OH226091   3.292   5.606  11.789 -0.7199 -0.2618 -0.2477
 1559TIP3    H126092   3.316   5.657  11.866  0.6489 -0.5863 -0.4302
 1559TIP3    H226093   3.252   5.669  11.729 -0.8255  0.1915  0.2954
 1560TIP3   OH226094   5.214   0.163  16.995 -0.2220 -0.5027 -0.0145
 1560TIP3    H126095   5.221   0.186  16.902 -0.1621 -0.9540 -0.1212
 1560TIP3    H226096   5.295   0.117  17.015 -0.3893 -0.7177  0.1728
 1561TIP3   OH226097   6.594   5.730  17.191  0.2423 -0.1953 -0.6162
 1561TIP3    H126098   6.610   5.771  17.106 -2.6449  0.3266 -1.0312
 1561TIP3    H226099   6.671   5.752  17.244  0.6973  2.2215 -2.1273
 1562TIP3   OH226100   3.186   3.749  11.719 -0.7527  0.5901 -0.3072
 1562TIP3    H126101   3.126   3.700  11.775  0.8496  0.7339  1.6917
 1562TIP3    H226102   3.189   3.700  11.637 -2.4845 -0.1713  0.0517
 1563TIP3   OH226103   2.244   4.536   1.798  0.3288 -0.3870  0.5466
 1563TIP3    H126104   2.166   4.506   1.844  0.3573 -2.0821 -0.4203
 1563TIP3    H226105   2.248   4.482   1.719  2.1969  0.0215  0.3048
 1564TIP3   OH226106   1.175   6.307  12.077 -0.3791  0.2187  0.4497
 1564TIP3    H126107   1.185   6.283  11.984 -0.6575 -0.2646  0.5412
 1564TIP3    H226108   1.098   6.363  12.079  0.1381  0.9560  0.2678
 1565TIP3   OH226109   0.750   2.441  13.543 -0.9218  0.0937  0.2174
 1565TIP3    H126110   0.774   2.472  13.630 -0.3322 -0.6384  0.3267
 1565TIP3    H226111   0.688   2.506  13.510 -1.4746  0.1632  1.3511
 1566TIP3   OH226112   1.009   4.311   4.347 -0.0938 -0.2263  1.0861
 1566TIP3    H126113   0.948   4.350   4.284  0.0238 -0.8543  0.5686
 1566TIP3    H226114   0.968   4.323   4.432  1.0267  3.2719  1.3138
 1567TIP3   OH226115   0.192   4.071  13.720  0.1841 -0.5925 -0.1581
 1567TIP3    H126116   0.273   4.031  13.752  1.7168  1.7314 -0.8982
 1567TIP3    H226117   0.198   4.162  13.748 -1.8366 -0.1996 -0.8810
 1568TIP3   OH226118   5.324   4.559   2.865 -0.0109 -0.0832 -0.3578
 1568TIP3    H126119   5.408   4.604   2.874 -0.3692  0.2146  2.6466
 1568TIP3    H226120   5.259   4.628   2.870 -0.4889 -0.4872 -0.8299
 1569TIP3   OH226121   3.402   1.193  11.509  0.5936  0.2692 -0.0475
 1569TIP3    H126122   3.314   1.216  11.478 -0.1559 -2.9730 -0.7005
 1569TIP3    H226123   3.388   1.154  11.595  1.3859 -0.2368 -0.1366
 1570TIP3   OH226124   2.401   0.960   5.833  0.3117 -0.3532 -0.8334
 1570TIP3    H126125   2.330   1.011   5.873  0.0816 -1.1954 -0.1378
 1570TIP3    H226126   2.376   0.953   5.740  1.4432  2.6265 -1.4748
 1571TIP3   OH226127   6.188   2.276   2.613 -0.0166 -0.5953  0.4688
 1571TIP3    H126128   6.273   2.297   2.576  0.0610  1.3479  1.6238
 1571TIP3    H226129   6.163   2.354   2.662 -1.8203 -1.6546  1.3392
 1572TIP3   OH226130   2.324   2.604  12.493 -0.7968 -0.3151  0.4377
 1572TIP3    H126131   2.343   2.590  12.400  0.5631  1.4629  0.4085
 1572TIP3    H226132   2.256   2.540  12.513 -0.5295 -1.3001 -1.5695
 1573TIP3   OH226133   1.485   0.762  10.967  0.2099 -0.6228 -0.6890
 1573TIP3    H126134   1.557   0.769  11.030 -1.0867 -0.6607  0.8553
 1573TIP3    H226135   1.525   0.784  10.883  1.9465 -0.3162  0.1678
 1574TIP3   OH226136   0.692   0.466  12.965 -0.4918  0.5834 -0.0410
 1574TIP3    H126137   0.678   0.375  12.939  0.9196  0.2235  0.3519
 1574TIP3    H226138   0.737   0.460  13.049  2.1779  1.5485 -1.2831
 1575TIP3   OH226139   1.807   5.968   3.103 -0.3684  0.2140 -0.0255
 1575TIP3    H126140   1.808   5.873   3.112 -0.1880  0.0614 -1.5030
 1575TIP3    H226141   1.733   5.987   3.046 -1.3608  1.1109  1.4710
 1576TIP3   OH226142   4.653   0.937   2.965 -0.2851 -0.1532  0.2404
 1576TIP3    H126143   4.582   0.997   2.986  0.9009  0.7154  2.0143
 1576TIP3    H226144   4.705   0.983   2.898 -1.4745 -0.9102 -1.2696
 1577TIP3   OH226145   1.329   5.509   6.548 -0.4316  0.1449  0.0623
 1577TIP3    H126146   1.376   5.476   6.624 -0.5017 -0.3190 -0.0932
 1577TIP3    H226147   1.251   5.454   6.542 -0.1164 -0.2422 -0.7062
 1578TIP3   OH226148   4.701   1.963  13.102 -0.0192  0.5437 -0.3237
 1578TIP3    H126149   4.730   1.980  13.192 -0.1061 -3.4888  0.6586
 1578TIP3    H226150   4.606   1.955  13.109  0.1413 -2.1410 -0.1477
 1579TIP3   OH226151   1.700   5.246   1.356  0.3779  0.2598 -0.1044
 1579TIP3    H126152   1.643   5.172   1.333  0.2185  1.0270 -2.3800
 1579TIP3    H226153   1.643   5.322   1.353  0.7301  0.6128  1.4021
 1580TIP3   OH226154   2.703   2.423  11.207  0.4925  0.1855 -0.2097
 1580TIP3    H126155   2.748   2.341  11.226 -0.3815 -0.7454 -1.8782
 1580TIP3    H226156   2.773   2.484  11.183  1.0175 -0.8037 -1.3210
 1581TIP3   OH226157   2.805   1.902  13.522  0.0474 -0.3285 -0.4114
 1581TIP3    H126158   2.764   1.833  13.574  0.0676 -0.3059 -0.3649
 1581TIP3    H226159   2.777   1.885  13.432 -1.3568  0.5990 -0.1814
 1582TIP3   OH226160   6.670   0.435  12.715 -0.1838 -0.5120 -0.0153
 1582TIP3    H126161   6.657   0.385  12.634  0.1278 -1.0489  0.2600
 1582TIP3    H226162   6.629   0.381  12.783 -2.8383  1.1388 -0.1365
 1583TIP3   OH226163   0.831   2.080   3.827  0.2189  0.0484 -0.1985
 1583TIP3    H126164   0.905   2.033   3.865  1.2163  2.1625  0.6312
 1583TIP3    H226165   0.859   2.100   3.738 -1.2443 -2.9992 -1.4955
 1584TIP3   OH226166   5.239   3.928  16.399  0.2645  0.1650  0.4155
 1584TIP3    H126167   5.171   3.908  16.335  0.0495 -0.0822  0.7196
 1584TIP3    H226168   5.231   4.023  16.414 -0.6273 -0.0142  1.1427
 1585TIP3   OH226169   0.364   0.368   2.949  0.1477  0.7221  0.4432
 1585TIP3    H126170   0.418   0.348   3.025 -0.4884 -1.3369  0.4014
 1585TIP3    H226171   0.286   0.410   2.986  0.1713  0.4097  0.8597
 1586TIP3   OH226172   5.747   1.727  15.030  0.1348 -0.5245  0.2289
 1586TIP3    H126173   5.823   1.713  15.086  1.2664  0.6981 -0.9215
 1586TIP3    H226174   5.707   1.641  15.021  0.8279 -1.0199  1.6162
 1587TIP3   OH226175   4.685   5.069   4.150 -0.0613  0.1096  0.4168
 1587TIP3    H126176   4.653   4.979   4.149 -0.0252 -0.0062  2.7918
 1587TIP3    H226177   4.780   5.061   4.155 -0.0816  0.2449  1.1572
 1588TIP3   OH226178   2.772   4.596   5.522 -0.5246 -0.3743  0.1381
 1588TIP3    H126179   2.751   4.555   5.606  1.0637 -1.9522 -0.1605
 1588TIP3    H226180   2.868   4.608   5.525 -0.3687 -0.9478 -1.6446
 1589TIP3   OH226181   0.581   5.931  11.589 -0.2691  0.0951 -0.0557
 1589TIP3    H126182   0.669   5.912  11.555  0.7265  2.0270  1.2154
 1589TIP3    H226183   0.555   5.852  11.636  1.3177 -0.1043  0.5509
 1590TIP3   OH226184   2.338   6.709  16.107  0.2687 -0.4166  0.2402
 1590TIP3    H126185   2.319   6.659  16.028  1.0884  0.3215 -0.4395
 1590TIP3    H226186   2.410   6.661  16.149 -0.5523 -1.1295  0.8527
 1591TIP3   OH226187   4.742   1.194   0.891 -0.4186  0.2833 -0.1153
 1591TIP3    H126188   4.666   1.170   0.838 -0.6138  1.8637 -0.6085
 1591TIP3    H226189   4.799   1.241   0.831 -0.4354  1.7279  0.9384
 1592TIP3   OH226190   0.282   1.581   2.764  0.2957 -0.2549  0.1480
 1592TIP3    H126191   0.298   1.517   2.834 -1.1479 -0.4430  0.3371
 1592TIP3    H226192   0.236   1.532   2.697 -0.9521  0.5980  0.3530
 1593TIP3   OH226193   0.717   1.429  14.402 -0.5360 -0.1706  0.3206
 1593TIP3    H126194   0.715   1.441  14.497 -2.0401  0.6394  0.2102
 1593TIP3    H226195   0.795   1.477  14.374 -0.5658  0.3250  1.0518
 1594TIP3   OH226196   3.168   1.859  16.976 -0.0797  0.1535 -0.2327
 1594TIP3    H126197   3.118   1.784  16.945  0.7719 -0.8935  0.8505
 1594TIP3    H226198   3.133   1.933  16.926 -2.1051 -0.6605 -0.1208
 1595TIP3   OH226199   4.874   0.934  16.062 -0.0408 -0.7261 -0.8213
 1595TIP3    H126200   4.816   0.961  16.133  0.0771  1.8681 -1.6283
 1595TIP3    H226201   4.956   0.910  16.106 -0.6863 -1.4109  0.0609
 1596TIP3   OH226202   3.364   5.765  12.868 -0.0742  0.1406  0.2583
 1596TIP3    H126203   3.421   5.833  12.833  1.0340 -0.8986 -0.0125
 1596TIP3    H226204   3.275   5.798  12.852  0.4327  1.3407 -0.1996
 1597TIP3   OH226205   2.212   6.422  11.652 -0.1270 -0.3312 -0.2636
 1597TIP3    H126206   2.289   6.479  11.648  0.5057 -1.1305  0.1954
 1597TIP3    H226207   2.234   6.358  11.720 -0.2376 -1.9474 -1.7009
 1598TIP3   OH226208   2.369   5.461   1.671  0.5329 -0.0474 -0.4527
 1598TIP3    H126209   2.398   5.510   1.748  1.5790 -2.4095  0.7640
 1598TIP3    H226210   2.327   5.384   1.707 -2.5977  0.6527 -2.2869
 1599TIP3   OH226211   5.682   0.808   5.263  0.3586 -1.1126  0.2328
 1599TIP3    H126212   5.767   0.833   5.300  0.5522  0.1289 -0.9602
 1599TIP3    H226213   5.620   0.869   5.303  0.5677  0.2344 -1.3740
 1600TIP3   OH226214   0.545   1.903   4.333 -0.0767 -0.0858 -0.4625
 1600TIP3    H126215   0.558   1.810   4.354  0.5236  0.1338  0.2075
 1600TIP3    H226216   0.544   1.947   4.418 -1.7803  0.3759 -0.6816
 1601TIP3   OH226217   0.390   2.474  10.985  0.0763 -0.1837 -0.5009
 1601TIP3    H126218   0.304   2.503  10.954 -0.1621  1.4783  1.4969
 1601TIP3    H226219   0.449   2.493  10.912 -1.0114  0.0286 -1.3572
 1602TIP3   OH226220   2.744   6.085   2.504  0.4627 -0.1228  0.1874
 1602TIP3    H126221   2.816   6.022   2.502  0.1668 -0.5061  0.9247
 1602TIP3    H226222   2.766   6.145   2.575  1.4399  1.4934 -1.4091
 1603TIP3   OH226223   6.404   5.806   2.971 -0.1756 -0.2067 -0.9367
 1603TIP3    H126224   6.329   5.797   3.030  0.8862 -0.9258  0.3309
 1603TIP3    H226225   6.431   5.717   2.951  0.2841  0.0431 -1.4681
 1604TIP3   OH226226   1.215   1.472   4.411 -0.1464  0.3390  0.6559
 1604TIP3    H126227   1.201   1.485   4.505  1.1718  1.6170  0.7058
 1604TIP3    H226228   1.302   1.435   4.404  0.0490  0.8985 -0.0839
 1605TIP3   OH226229   0.744   0.335  14.970 -0.2099  0.2346 -0.0252
 1605TIP3    H126230   0.671   0.397  14.968  0.1919  0.6988 -0.7439
 1605TIP3    H226231   0.705   0.252  14.941 -0.0454  0.9487 -2.4639
 1606TIP3   OH226232   6.585   3.335  16.067  0.1109  0.1283 -0.2639
 1606TIP3    H126233   6.511   3.356  16.124  0.0286 -0.1686 -0.2593
 1606TIP3    H226234   6.572   3.243  16.045  1.4356 -0.4600  1.1928
 1607TIP3   OH226235   3.264   6.669  13.507 -0.0080 -0.1960  0.3062
 1607TIP3    H126236   3.247   6.575  13.515  1.0957 -0.3888  0.6499
 1607TIP3    H226237   3.294   6.696  13.594 -0.0303  0.4111  0.1325
 1608TIP3   OH226238   2.925   1.828   0.412  0.4124 -0.1935  0.0006
 1608TIP3    H126239   2.861   1.764   0.442  0.8401 -0.8183 -0.3931
 1608TIP3    H226240   2.879   1.912   0.415 -0.5093 -0.6656 -0.5529
 1609TIP3   OH226241   0.357   2.071   5.635 -0.2604  0.6616 -0.2561
 1609TIP3    H126242   0.402   2.145   5.595 -0.3012  1.3140  0.8542
 1609TIP3    H226243   0.427   2.008   5.655 -0.0960  0.8281 -0.3028
 1610TIP3   OH226244   6.571   0.162   4.738 -0.2647 -0.3870 -0.2596
 1610TIP3    H126245   6.605   0.074   4.756  0.7179 -0.2020 -1.1032
 1610TIP3    H226246   6.571   0.169   4.643 -3.9146 -0.8138 -0.4280
 1611TIP3   OH226247   1.670   3.715   1.541  0.3206  0.1659  0.3795
 1611TIP3    H126248   1.714   3.656   1.479  1.6406  1.1409  0.3538
 1611TIP3    H226249   1.578   3.693   1.533  0.8021 -2.1908  0.6782
 1612TIP3   OH226250   5.011   5.730  14.523  0.0139  0.6128 -0.1594
 1612TIP3    H126251   5.103   5.743  14.545  0.5271 -2.0569 -0.3644
 1612TIP3    H226252   5.012   5.702  14.431 -1.1427  1.7506 -0.5420
 1613TIP3   OH226253   0.464   1.227   3.587 -0.0473 -0.2493 -0.1325
 1613TIP3    H126254   0.528   1.265   3.647 -1.0712  0.4169  0.5579
 1613TIP3    H226255   0.474   1.132   3.597  2.3619 -0.2540 -1.6898
 1614TIP3   OH226256   5.296   6.460  14.333  0.4346 -0.5677  0.3444
 1614TIP3    H126257   5.271   6.417  14.251  1.3023 -1.9376  0.7439
 1614TIP3    H226258   5.386   6.490  14.317  0.8473 -1.4184  0.9743
 1615TIP3   OH226259   2.972   4.686  15.818  0.6054 -0.7979 -0.2737
 1615TIP3    H126260   3.047   4.735  15.852 -0.4759  0.9145 -0.2271
 1615TIP3    H226261   2.935   4.744  15.751 -1.0001 -1.3413  0.1099
 1616TIP3   OH226262   1.212   4.018  13.064  0.0012  0.2516 -0.1038
 1616TIP3    H126263   1.215   3.924  13.047 -0.8169  0.2496 -0.3104
 1616TIP3    H226264   1.163   4.025  13.147  1.6325  0.4077  0.8903
 1617TIP3   OH226265   3.034   3.700   2.112 -0.3670  0.5649 -0.0470
 1617TIP3    H126266   3.031   3.780   2.060 -1.6420  0.2811 -0.4418
 1617TIP3    H226267   2.974   3.640   2.067 -0.7774 -0.0043  1.2227
 1618TIP3   OH226268   1.575   4.127  11.963  0.0612  0.1643  0.1200
 1618TIP3    H126269   1.528   4.045  11.977  1.2732 -0.3718  1.2951
 1618TIP3    H226270   1.515   4.195  11.994 -0.8933 -0.2823 -0.7283
 1619TIP3   OH226271   2.680   2.099  15.534 -0.0663  0.1848  0.0217
 1619TIP3    H126272   2.765   2.065  15.561 -0.9075 -1.4182  0.8360
 1619TIP3    H226273   2.686   2.106  15.439  0.4114 -1.7151 -0.1403
 1620TIP3   OH226274   5.809   6.542  14.883 -0.1579  0.2202 -0.3841
 1620TIP3    H126275   5.805   6.581  14.796  0.7886  1.4806  0.0966
 1620TIP3    H226276   5.766   6.605  14.940  1.7338  0.8125  0.4743
 1621TIP3   OH226277   2.427   6.064  16.021 -0.2299  0.1047  0.2553
 1621TIP3    H126278   2.474   6.133  16.068  0.8146 -1.0049  0.9365
 1621TIP3    H226279   2.490   6.034  15.955 -1.2754  0.8784 -1.1316
 1622TIP3   OH226280   1.376   0.141   5.460 -0.0336 -0.1367  0.0598
 1622TIP3    H126281   1.295   0.091   5.451 -0.6431  0.5140  1.5811
 1622TIP3    H226282   1.354   0.229   5.429  0.1974 -0.0477  0.1445
 1623TIP3   OH226283   2.710   0.232   5.332  0.1523  0.2772 -0.0728
 1623TIP3    H126284   2.692   0.171   5.260 -0.2226  2.1000 -1.6011
 1623TIP3    H226285   2.798   0.209   5.361  0.0014 -1.0157 -0.5768
 1624TIP3   OH226286   5.420   2.588  11.838 -0.5512  0.2956  0.3291
 1624TIP3    H126287   5.366   2.519  11.800  0.2732  0.5733 -1.4596
 1624TIP3    H226288   5.504   2.580  11.793 -0.3044  2.1998  0.3631
 1625TIP3   OH226289   2.282   5.602   5.497 -0.1488  0.4240 -0.0812
 1625TIP3    H126290   2.294   5.656   5.418  0.1100 -0.0464 -0.3635
 1625TIP3    H226291   2.286   5.512   5.466 -0.4705  0.2357  0.4097
 1626TIP3   OH226292   5.656   5.627   3.105  0.0742 -0.1603  0.3281
 1626TIP3    H126293   5.580   5.576   3.078  1.1266 -1.1653 -0.8446
 1626TIP3    H226294   5.697   5.573   3.173  1.2412 -0.9694 -0.9792
 1627TIP3   OH226295   1.518   1.884   5.443 -0.2745 -0.2280 -0.3083
 1627TIP3    H126296   1.527   1.797   5.404  0.0581 -0.4624  0.2849
 1627TIP3    H226297   1.569   1.880   5.523 -1.0050  0.2280  0.1901
 1628TIP3   OH226298   2.027   3.209   2.810 -0.2693  0.2625 -0.4425
 1628TIP3    H126299   2.058   3.131   2.857  0.4574 -0.4627 -2.0382
 1628TIP3    H226300   1.932   3.208   2.822 -0.3965 -1.4898 -1.2706
 1629TIP3   OH226301   0.848   3.780  17.019  0.4346 -0.0076 -0.4723
 1629TIP3    H126302   0.792   3.755  16.946 -0.4174 -0.9670  0.4661
 1629TIP3    H226303   0.829   3.873  17.033 -1.1306 -0.3575 -0.0367
 1630TIP3   OH226304   3.933   1.734   5.144 -0.3725 -0.1491 -0.2992
 1630TIP3    H126305   3.844   1.769   5.133 -0.3059 -0.4215 -2.0892
 1630TIP3    H226306   3.920   1.653   5.194 -1.1489 -0.1957 -0.5554
 1631TIP3   OH226307   0.769   0.973   5.301 -0.0794 -0.4137 -0.0139
 1631TIP3    H126308   0.781   1.067   5.317  2.1180 -0.6002 -0.3256
 1631TIP3    H226309   0.709   0.970   5.226  0.5291  0.7796 -0.5880
 1632TIP3   OH226310   4.663   5.256   1.628  0.2266  0.2968 -0.3892
 1632TIP3    H126311   4.632   5.174   1.590 -0.3508  0.7446 -0.9033
 1632TIP3    H226312   4.758   5.254   1.617  0.1373  0.0822 -1.1821
 1633TIP3   OH226313   1.370   0.146   4.176  0.4245  0.0972 -0.0123
 1633TIP3    H126314   1.340   0.058   4.153  0.8105 -0.2086  0.6212
 1633TIP3    H226315   1.407   0.136   4.264 -0.3705  1.0840  0.4512
 1634TIP3   OH226316   4.173   0.995  12.440  0.2729  0.0024  0.4192
 1634TIP3    H126317   4.109   0.924  12.447  0.6693 -0.4362 -0.3183
 1634TIP3    H226318   4.123   1.075  12.457 -0.2873 -0.4041  0.7052
 1635TIP3   OH226319   2.372   0.222   3.116 -0.5197 -0.5577  0.1243
 1635TIP3    H126320   2.370   0.318   3.115 -1.1303 -0.5694 -0.8771
 1635TIP3    H226321   2.455   0.200   3.157 -0.5993  0.3950  0.8380
 1636TIP3   OH226322   5.323   4.036  15.701 -0.1374  0.3582 -0.3184
 1636TIP3    H126323   5.329   3.949  15.739 -1.4992  0.7673  0.9364
 1636TIP3    H226324   5.248   4.032  15.641  0.6045  0.3371 -1.2785
 1637TIP3   OH226325   0.473   3.676  16.303  0.2418  0.4674  0.0971
 1637TIP3    H126326   0.555   3.628  16.314 -0.2898 -0.5518 -0.2574
 1637TIP3    H226327   0.468   3.694  16.209 -0.2954 -0.1636 -0.0086
 1638TIP3   OH226328   6.106   4.831   4.582  0.3839 -0.3233 -0.3198
 1638TIP3    H126329   6.019   4.795   4.601  1.4511 -2.9495  0.0889
 1638TIP3    H226330   6.140   4.860   4.667  1.0006 -2.1023  0.0937
 1639TIP3   OH226331   6.734   4.937   1.688 -0.8188  0.3873  0.0184
 1639TIP3    H126332   6.693   4.852   1.706 -1.3634  0.7389  0.5030
 1639TIP3    H226333   6.742   4.940   1.593  3.0383 -1.9456  0.0873
 1640TIP3   OH226334   4.830   6.027  13.440 -0.0667 -0.2274 -0.3582
 1640TIP3    H126335   4.895   6.088  13.405  0.1301 -0.2258 -0.0024
 1640TIP3    H226336   4.757   6.032  13.379  0.3367 -0.3579 -0.8592
 1641TIP3   OH226337   0.881   6.084   2.816 -0.0825 -0.8065  0.1462
 1641TIP3    H126338   0.803   6.102   2.868 -2.1401 -0.3327 -2.8451
 1641TIP3    H226339   0.890   5.989   2.819  0.8817 -0.7031  2.6064
 1642TIP3   OH226340   2.099   0.288   3.393 -0.4339  0.2371 -0.0099
 1642TIP3    H126341   2.077   0.218   3.330  1.3722 -0.0282 -0.3842
 1642TIP3    H226342   2.193   0.281   3.404 -0.6888  0.2882  2.7707
 1643TIP3   OH226343   4.008   3.348  15.242 -0.1977  0.4873 -0.0462
 1643TIP3    H126344   4.027   3.439  15.266 -0.4694  1.0243 -1.7414
 1643TIP3    H226345   3.989   3.351  15.149  1.3120 -1.5487 -0.5026
 1644TIP3   OH226346   3.859   0.897   0.532  0.1413  0.4190  0.4194
 1644TIP3    H126347   3.828   0.982   0.565 -2.1684 -0.0639 -0.3428
 1644TIP3    H226348   3.785   0.862   0.481  1.7424 -1.1591 -0.9761
 1645TIP3   OH226349   0.087   2.301   2.459 -0.0667 -0.1771 -0.5770
 1645TIP3    H126350   0.056   2.234   2.520 -1.2581  1.8566  1.2071
 1645TIP3    H226351   0.018   2.367   2.460  1.7691  1.8621 -0.9280
 1646TIP3   OH226352   1.124   0.904   5.774 -0.1014 -0.3003  0.0808
 1646TIP3    H126353   1.065   0.928   5.846 -1.2129 -1.5444 -0.3529
 1646TIP3    H226354   1.102   0.965   5.704 -1.7870 -1.4439 -0.4791
 1647TIP3   OH226355   1.721   6.208   4.282  0.0801  0.2871  0.2145
 1647TIP3    H126356   1.668   6.128   4.281  0.6411 -0.1482 -2.4211
 1647TIP3    H226357   1.663   6.274   4.320 -1.4794 -0.7338 -0.2751
 1648TIP3   OH226358   0.140   2.252  12.078 -0.7154  0.0981 -0.1388
 1648TIP3    H126359   0.077   2.317  12.109 -2.5893 -1.6199 -0.2171
 1648TIP3    H226360   0.172   2.210  12.158  0.4606  1.0070 -0.0923
 1649TIP3   OH226361   4.953   5.056  14.903  0.0396  0.4990 -0.2559
 1649TIP3    H126362   4.878   5.017  14.948 -1.2576 -0.4926 -3.0429
 1649TIP3    H226363   5.021   4.988  14.907 -0.3040  0.1467 -0.4147
 1650TIP3   OH226364   2.351   2.725   2.955  0.0023  0.1908  0.2054
 1650TIP3    H126365   2.293   2.783   3.003 -1.1242  0.3527 -1.2831
 1650TIP3    H226366   2.294   2.679   2.893  1.2005 -0.9210 -0.1229
 1651TIP3   OH226367   1.841   6.063  11.358 -0.3673  0.0904  0.7375
 1651TIP3    H126368   1.860   5.998  11.426  2.7219  1.5346  1.4267
 1651TIP3    H226369   1.824   6.144  11.406  2.4464  1.2812 -0.0657
 1652TIP3   OH226370   1.447   0.961  11.558 -0.3462  0.1194 -0.1124
 1652TIP3    H126371   1.447   1.032  11.622 -0.4437  0.9741 -1.0183
 1652TIP3    H226372   1.376   0.983  11.498 -0.6151 -0.9555 -0.2018
 1653TIP3   OH226373   4.250   3.234  13.814 -0.3717 -0.8668 -0.0088
 1653TIP3    H126374   4.163   3.199  13.792  0.0645 -1.6005 -0.6000
 1653TIP3    H226375   4.275   3.189  13.894 -0.4077 -0.8634  0.0050
 1654TIP3   OH226376   1.135   0.080  16.952 -0.2308  0.5904  0.2115
 1654TIP3    H126377   1.158   0.138  17.025  0.2171  1.5000 -0.6140
 1654TIP3    H226378   1.219   0.059  16.911 -0.4244 -0.3671  0.2751
 1655TIP3   OH226379   1.077   5.476  16.173 -0.1042  0.3449  0.3799
 1655TIP3    H126380   1.171   5.462  16.178  0.4077  1.3070 -3.3934
 1655TIP3    H226381   1.068   5.570  16.157 -1.4374 -0.0632 -1.7492
 1656TIP3   OH226382   2.269   6.279  15.472 -0.6034 -0.4587 -0.1636
 1656TIP3    H126383   2.197   6.341  15.467  0.1534  0.4275 -0.3777
 1656TIP3    H226384   2.284   6.251  15.382  1.3131  1.7470 -0.6136
 1657TIP3   OH226385   0.726   3.941  13.603 -0.2409 -0.5591  0.1281
 1657TIP3    H126386   0.691   3.868  13.655  0.2688 -0.9187 -0.0289
 1657TIP3    H226387   0.781   3.899  13.537 -1.4347 -0.1537 -1.1643
 1658TIP3   OH226388   5.826   2.799  11.554  0.8370  0.0939  0.3149
 1658TIP3    H126389   5.800   2.776  11.465  0.1553  0.8802  0.3013
 1658TIP3    H226390   5.922   2.795  11.553  0.8518  0.4853 -0.5616
 1659TIP3   OH226391   4.906   3.983  14.996 -0.1759 -0.3052  0.0050
 1659TIP3    H126392   4.871   4.066  15.029  0.1972  0.5306 -1.5938
 1659TIP3    H226393   4.953   4.007  14.916  2.2122 -1.6774  0.8878
 1660TIP3   OH226394   1.408   3.883  14.430 -0.5314  0.2295 -0.1854
 1660TIP3    H126395   1.412   3.821  14.357 -1.2217  0.2129 -0.2126
 1660TIP3    H226396   1.468   3.953  14.404 -0.6594  0.1545 -0.7050
 1661TIP3   OH226397   5.541   3.579   4.741  0.1962 -0.0767  0.3234
 1661TIP3    H126398   5.482   3.540   4.805 -0.1631 -0.6649 -0.3486
 1661TIP3    H226399   5.519   3.673   4.742  2.7154  0.6840  3.7176
 1662TIP3   OH226400   0.136   2.113  17.121  0.0833  0.6015 -0.1342
 1662TIP3    H126401   0.079   2.168  17.173 -1.1536 -0.0661 -0.7460
 1662TIP3    H226402   0.077   2.055  17.073  1.2128  0.6959 -1.7142
 1663TIP3   OH226403   2.336   3.931  12.659 -0.3230 -0.1441  0.4265
 1663TIP3    H126404   2.385   4.013  12.657 -1.1528  0.3873  1.0675
 1663TIP3    H226405   2.263   3.946  12.599  0.9585 -1.4133 -1.5999
 1664TIP3   OH226406   4.787   1.830   1.284  0.1040  0.5630 -0.7053
 1664TIP3    H126407   4.856   1.886   1.319  1.3557 -1.6189  0.5657
 1664TIP3    H226408   4.806   1.824   1.190  2.5415 -1.0028 -0.2100
 1665TIP3   OH226409   4.810   2.677  12.614  0.1222 -0.2116 -0.1655
 1665TIP3    H126410   4.867   2.631  12.676  1.2586 -2.3036 -2.5445
 1665TIP3    H226411   4.866   2.743  12.573  0.8105 -1.8555 -2.0617
 1666TIP3   OH226412   6.107   5.601  17.040  0.5455 -0.3230 -0.7862
 1666TIP3    H126413   6.043   5.549  16.991 -0.2712 -0.1001  0.0339
 1666TIP3    H226414   6.178   5.539  17.059 -0.5239 -1.2422  0.4051
 1667TIP3   OH226415   0.783   5.217   3.405 -0.2122  0.3454  0.4534
 1667TIP3    H126416   0.870   5.208   3.366 -0.7400 -1.2325 -0.4597
 1667TIP3    H226417   0.723   5.217   3.330 -1.1521 -1.1305  1.1571
 1668TIP3   OH226418   0.764   1.591  15.372  0.2491 -0.2495 -0.0740
 1668TIP3    H126419   0.835   1.530  15.393 -0.4192 -0.4830  1.6773
 1668TIP3    H226420   0.712   1.545  15.306  0.2259 -1.2668  0.6198
 1669TIP3   OH226421   0.373   0.610  14.825  0.3585 -0.0459 -0.0313
 1669TIP3    H126422   0.385   0.702  14.849  4.1886 -0.0653 -1.1554
 1669TIP3    H226423   0.382   0.562  14.908 -2.1307  0.5122  0.6339
 1670TIP3   OH226424   3.978   5.691  14.275  0.1351 -0.2628 -0.7073
 1670TIP3    H126425   3.974   5.613  14.219 -0.0108 -0.1946 -0.7929
 1670TIP3    H226426   4.014   5.759  14.218 -1.2351  0.1514 -1.1201
 1671TIP3   OH226427   0.023   0.576   1.190 -0.1113  0.3199  0.1563
 1671TIP3    H126428   0.048   0.592   1.281 -0.0000 -1.8740  0.5705
 1671TIP3    H226429   0.105   0.561   1.145 -0.2847 -1.3200  0.3208
 1672TIP3   OH226430   2.875   0.898  12.196  0.6727 -0.1971 -0.0003
 1672TIP3    H126431   2.818   0.967  12.164  2.2171  0.2816 -1.9017
 1672TIP3    H226432   2.819   0.820  12.199 -0.1856  0.3172 -1.5092
 1673TIP3   OH226433   0.446   0.263   0.793 -0.2882 -0.3145 -0.0481
 1673TIP3    H126434   0.359   0.261   0.753 -0.0785 -0.2300 -0.5132
 1673TIP3    H226435   0.442   0.335   0.856 -0.2233  0.4066 -0.8480
 1674TIP3   OH226436   2.398   3.044   1.009 -0.7169  0.0579  0.3873
 1674TIP3    H126437   2.482   3.086   1.026 -1.4016  1.4741  0.4767
 1674TIP3    H226438   2.392   2.975   1.075  1.0649 -1.1759 -0.6536
 1675TIP3   OH226439   0.870   0.843   5.031 -0.7146 -0.1207 -0.3732
 1675TIP3    H126440   0.776   0.861   5.038 -0.6264 -0.3859  2.8220
 1675TIP3    H226441   0.909   0.929   5.012 -1.4372  0.4690  0.7154
 1676TIP3   OH226442   0.374   4.109   1.378  0.0904  0.2815  0.6895
 1676TIP3    H126443   0.302   4.102   1.315 -0.3592  0.1804  1.2048
 1676TIP3    H226444   0.338   4.158   1.451  0.9047  1.2460  0.4604
 1677TIP3   OH226445   2.040   3.654  12.290  0.1768 -0.2411 -0.0627
 1677TIP3    H126446   1.998   3.645  12.204  0.9247 -1.6550 -0.3151
 1677TIP3    H226447   2.011   3.577  12.339  0.1481  0.3035  0.7974
 1678TIP3   OH226448   3.149   1.802   3.526  0.6471  0.2418  0.5535
 1678TIP3    H126449   3.193   1.775   3.445  0.7007  0.0786  0.6360
 1678TIP3    H226450   3.061   1.827   3.497  1.3965  2.5433  0.0847
 1679TIP3   OH226451   6.272   5.928   5.645  0.3235  0.3816  0.7146
 1679TIP3    H126452   6.201   5.925   5.581  0.4068  0.4211  0.6203
 1679TIP3    H226453   6.228   5.927   5.730  0.2569 -1.0681  0.6771
 1680TIP3   OH226454   3.377   4.301  12.294  0.0435  0.4576  0.4554
 1680TIP3    H126455   3.429   4.259  12.225  1.0421  0.2529  1.3017
 1680TIP3    H226456   3.349   4.384  12.255  2.8428  1.6103  0.6380
 1681TIP3   OH226457   5.885   0.153   5.425  0.0366  0.2370  0.1254
 1681TIP3    H126458   5.969   0.141   5.468 -0.5386 -1.3594  0.8808
 1681TIP3    H226459   5.902   0.137   5.332  0.7603  0.9802  0.1271
 1682TIP3   OH226460   3.541   4.107   3.405 -0.3676 -0.4612 -0.2505
 1682TIP3    H126461   3.556   4.072   3.317  1.3702 -0.5857  0.0481
 1682TIP3    H226462   3.468   4.167   3.395  0.1085 -0.1015 -1.8933
 1683TIP3   OH226463   4.133   1.608  15.424 -0.2972 -0.0269  0.1737
 1683TIP3    H126464   4.088   1.639  15.345  0.2716  0.1710 -0.0727
 1683TIP3    H226465   4.162   1.520  15.402  0.1915  0.1691  0.0274
 1684TIP3   OH226466   6.661   1.935   1.168  0.4185 -0.2464  0.0003
 1684TIP3    H126467   6.649   1.895   1.082 -0.2186  0.6222 -0.3323
 1684TIP3    H226468   6.694   2.023   1.150  0.0505  0.0325  0.6258
 1685TIP3   OH226469   3.768   2.854   0.372 -0.3226 -0.1959 -0.4724
 1685TIP3    H126470   3.736   2.764   0.374 -0.1462 -0.2801 -1.0946
 1685TIP3    H226471   3.862   2.847   0.386 -0.4301 -0.0296  0.3707
 1686TIP3   OH226472   4.449   1.245  16.203 -0.2869  0.1008  0.0277
 1686TIP3    H126473   4.473   1.191  16.128  2.2174 -0.9046  1.4171
 1686TIP3    H226474   4.370   1.203  16.238  1.1161 -2.3129  0.5808
 1687TIP3   OH226475   2.974   5.637  11.904 -0.2147  0.0214 -0.0502
 1687TIP3    H126476   3.028   5.611  11.979 -1.1825 -2.9435 -0.2421
 1687TIP3    H226477   2.888   5.599  11.922 -0.1684 -1.9268 -3.1326
 1688TIP3   OH226478   2.713   0.326  15.058  0.0915 -0.4321 -0.5309
 1688TIP3    H126479   2.674   0.406  15.023 -0.7477  0.0442  1.3344
 1688TIP3    H226480   2.667   0.255  15.013 -0.3474  0.1369 -0.9911
 1689TIP3   OH226481   5.414   2.556   0.855 -0.2687 -0.2501 -0.2914
 1689TIP3    H126482   5.478   2.584   0.789  1.2267 -4.0106 -0.6667
 1689TIP3    H226483   5.341   2.617   0.844  0.9916  0.8871 -3.6550
 1690TIP3   OH226484   5.136   0.201   3.185 -0.2197 -0.3159  0.2985
 1690TIP3    H126485   5.145   0.188   3.090  0.4156  0.8998  0.1664
 1690TIP3    H226486   5.193   0.135   3.224  2.3833  1.4300 -0.2971
 1691TIP3   OH226487   0.910   6.297  15.125 -0.3990 -0.2405  0.4994
 1691TIP3    H126488   0.868   6.330  15.045 -1.2827  0.3476  1.1831
 1691TIP3    H226489   0.877   6.354  15.194 -0.5042 -1.4104  1.4415
 1692TIP3   OH226490   2.387   4.751  13.821 -0.0442 -0.0745 -0.4792
 1692TIP3    H126491   2.447   4.807  13.772  0.1524  0.7329  0.6381
 1692TIP3    H226492   2.410   4.766  13.913 -0.4727 -1.4535 -0.1199
 1693TIP3   OH226493   3.582   1.511   5.370 -0.5122  0.1008 -0.1812
 1693TIP3    H126494   3.536   1.480   5.447  0.3264  1.5859  0.9842
 1693TIP3    H226495   3.620   1.595   5.397  1.6546 -0.3695 -1.4959
 1694TIP3   OH226496   1.476   2.593   0.528 -0.4264  0.0761  0.0483
 1694TIP3    H126497   1.387   2.627   0.519 -0.7996 -0.4677  1.4943
 1694TIP3    H226498   1.530   2.670   0.547 -0.5560  0.4095 -0.8539
 1695TIP3   OH226499   1.164   5.288   0.489 -0.1260 -0.2537 -0.3442
 1695TIP3    H126500   1.090   5.346   0.472 -2.4755 -2.6919  0.8811
 1695TIP3    H226501   1.134   5.201   0.461  3.0053 -1.0839 -1.5412
 1696TIP3   OH226502   2.632   0.827  13.098  0.1535 -0.5979 -0.2103
 1696TIP3    H126503   2.539   0.812  13.115 -0.3633 -1.7060 -3.3505
 1696TIP3    H226504   2.641   0.922  13.097 -1.3353 -0.4291 -1.3559
 1697TIP3   OH226505   0.753   6.744  13.739 -0.3586  0.5545 -0.2454
 1697TIP3    H126506   0.721   6.664  13.696  1.4710  0.4475 -1.5331
 1697TIP3    H226507   0.689   6.762  13.807 -0.6364 -2.2619  0.3606
 1698TIP3   OH226508   2.700   2.426  13.605  0.3169  0.4290  0.2956
 1698TIP3    H126509   2.631   2.479  13.565  1.8888  1.1442 -1.6260
 1698TIP3    H226510   2.755   2.399  13.532  0.9311 -1.9034  1.5166
 1699TIP3   OH226511   3.219   0.815   1.512 -0.1852  0.8759  0.1248
 1699TIP3    H126512   3.294   0.786   1.459  0.2448  0.6877  0.8251
 1699TIP3    H226513   3.147   0.820   1.450  0.2694  0.4770 -0.4495
 1700TIP3   OH226514   3.636   1.823   3.619 -0.1566 -0.0358 -0.0572
 1700TIP3    H126515   3.649   1.891   3.553 -0.0914 -2.3527 -2.5960
 1700TIP3    H226516   3.600   1.869   3.694 -0.2573  2.7602 -1.6903
 1701TIP3   OH226517   1.143   4.346   4.621  0.3597  0.3458 -0.6095
 1701TIP3    H126518   1.173   4.432   4.591 -0.2216  0.7894  0.0480
 1701TIP3    H226519   1.090   4.365   4.699 -1.3998 -0.4295 -1.5624
 1702TIP3   OH226520   1.510   2.865   2.675  0.4945  0.5995 -0.1169
 1702TIP3    H126521   1.450   2.938   2.662  0.0760 -0.0342 -1.9921
 1702TIP3    H226522   1.583   2.902   2.725  0.1673  2.2361 -0.8079
 1703TIP3   OH226523   0.952   5.233  15.890  0.2767  0.7419  0.6089
 1703TIP3    H126524   1.013   5.159  15.882 -1.3808 -0.5695 -1.2407
 1703TIP3    H226525   0.898   5.211  15.966 -0.4259 -0.1902 -0.1280
 1704TIP3   OH226526   5.613   6.261  11.522  0.2545 -0.7868  0.7304
 1704TIP3    H126527   5.659   6.204  11.459 -1.0778 -0.7316 -0.3403
 1704TIP3    H226528   5.548   6.205  11.563  0.0722 -0.4495  0.9086
 1705TIP3   OH226529   4.754   5.925  12.761  0.0114  0.0925 -0.3799
 1705TIP3    H126530   4.692   5.882  12.821  0.2924  1.5822  1.0462
 1705TIP3    H226531   4.729   5.893  12.674 -2.1927 -0.0475  0.2388
 1706TIP3   OH226532   6.606   2.594   4.125 -0.6946  0.1747 -0.1051
 1706TIP3    H126533   6.658   2.662   4.082 -2.0763  1.7349  0.5784
 1706TIP3    H226534   6.605   2.521   4.063  1.0029  0.6720 -0.7754
 1707TIP3   OH226535   3.599   1.355  11.426 -0.0099  0.2331 -0.7612
 1707TIP3    H126536   3.528   1.321  11.481  1.5691 -0.2874  1.0908
 1707TIP3    H226537   3.642   1.421  11.480  1.4517 -0.1003 -1.4549
 1708TIP3   OH226538   0.188   3.572  14.805  0.2310  0.1123 -0.1048
 1708TIP3    H126539   0.223   3.499  14.755 -0.0508 -0.7340  0.8899
 1708TIP3    H226540   0.219   3.557  14.895 -2.2064 -0.4225  0.7324
 1709TIP3   OH226541   6.256   1.623  14.957 -0.0225  0.5308  0.3955
 1709TIP3    H126542   6.289   1.657  14.874 -0.3233 -0.1796 -0.0163
 1709TIP3    H226543   6.328   1.571  14.992 -0.4286 -0.4294 -0.1613
 1710TIP3   OH226544   0.510   5.564  16.954  0.5818  0.0250 -0.1343
 1710TIP3    H126545   0.506   5.499  17.024  0.6813 -1.7611 -1.7223
 1710TIP3    H226546   0.419   5.585  16.935  0.4279 -1.5638 -1.2855
 1711TIP3   OH226547   5.506   2.224   2.055  0.1732  0.1134 -0.2719
 1711TIP3    H126548   5.578   2.163   2.071 -0.1291 -0.2228 -0.1754
 1711TIP3    H226549   5.545   2.295   2.004  0.7524  0.3182  0.4317
 1712TIP3   OH226550   2.402   5.158   0.401  0.7405  0.3732 -0.2870
 1712TIP3    H126551   2.403   5.206   0.484  3.7587  0.0339  0.0006
 1712TIP3    H226552   2.458   5.210   0.343 -1.0946  0.4515 -2.0834
 1713TIP3   OH226553   6.255   1.521  16.828  0.0172  0.1749 -0.2216
 1713TIP3    H126554   6.279   1.521  16.735  1.1911 -2.0246  0.0330
 1713TIP3    H226555   6.338   1.514  16.875 -0.5919  0.8351  1.0064
 1714TIP3   OH226556   1.053   6.725  15.238 -0.1426  0.0461  0.0299
 1714TIP3    H126557   1.106   6.652  15.270 -0.6117 -0.9870 -1.4604
 1714TIP3    H226558   1.084   6.800  15.288  1.5090 -0.8474  0.4330
 1715TIP3   OH226559   5.027   0.519  12.764 -0.3610 -0.2591  0.0728
 1715TIP3    H126560   5.108   0.477  12.791  0.0644  0.6377  0.2047
 1715TIP3    H226561   5.003   0.575  12.838 -1.1362 -0.5625  0.0630
 1716TIP3   OH226562   4.246   4.680   1.645  0.1514 -0.0770  0.3895
 1716TIP3    H126563   4.225   4.605   1.700  0.8857 -0.6427 -0.0879
 1716TIP3    H226564   4.341   4.676   1.635  0.1851  0.8548  0.2666
 1717TIP3   OH226565   4.984   6.748   4.550 -0.2472  0.3295 -0.1177
 1717TIP3    H126566   5.015   6.659   4.565 -0.6126  0.0381 -0.9872
 1717TIP3    H226567   4.888   6.740   4.548 -0.3637  1.0162  1.3686
 1718TIP3   OH226568   2.937   3.596  13.427  0.5395 -0.2779  0.0968
 1718TIP3    H126569   2.890   3.680  13.425  0.2185 -0.4513 -1.9850
 1718TIP3    H226570   3.015   3.611  13.374  0.3928 -1.3079 -0.4474
 1719TIP3   OH226571   1.186   0.492  12.686  0.2380  0.3430  0.2313
 1719TIP3    H126572   1.228   0.525  12.766 -0.9673  2.6875 -0.0009
 1719TIP3    H226573   1.169   0.571  12.634  3.1555 -1.2519 -3.5663
 1720TIP3   OH226574   4.361   6.195  14.219  0.5278  0.1722 -0.0151
 1720TIP3    H126575   4.266   6.207  14.217  0.5355  0.1784 -0.3072
 1720TIP3    H226576   4.379   6.133  14.149  0.3841 -2.3279  2.0127
 1721TIP3   OH226577   5.162   5.456   6.118  0.1751  0.0132  0.0948
 1721TIP3    H126578   5.080   5.497   6.146 -0.7679 -0.1349 -2.2818
 1721TIP3    H226579   5.230   5.516   6.151 -0.9211  0.8262  0.9831
 1722TIP3   OH226580   4.374   2.464  12.451  0.4612  0.3103 -0.0378
 1722TIP3    H126581   4.355   2.390  12.393  1.1937  1.4878 -1.8823
 1722TIP3    H226582   4.407   2.533  12.392  0.5646  1.8328  1.7038
 1723TIP3   OH226583   6.460   4.405  16.761 -0.0698 -0.8072 -0.3672
 1723TIP3    H126584   6.391   4.467  16.782  0.5108 -0.2832  0.0445
 1723TIP3    H226585   6.438   4.373  16.674 -1.5752 -1.6907  0.3022
 1724TIP3   OH226586   4.225   5.932   1.476  0.1594  0.2751  0.0850
 1724TIP3    H126587   4.249   5.843   1.448  0.6328  0.2690  0.5064
 1724TIP3    H226588   4.217   5.981   1.394  0.3192 -0.0472 -0.1289
 1725TIP3   OH226589   2.281   0.872   1.597 -0.0113 -0.0449  0.0654
 1725TIP3    H126590   2.341   0.798   1.601  0.1308 -0.2220 -2.9300
 1725TIP3    H226591   2.194   0.832   1.601  0.0338 -0.0800  1.0932
 1726TIP3   OH226592   2.245   0.544   4.578  0.5716  0.2743  0.4177
 1726TIP3    H126593   2.277   0.612   4.636  1.3746 -0.5726  0.9841
 1726TIP3    H226594   2.177   0.587   4.526  0.6138  1.3257  1.2101
 1727TIP3   OH226595   5.408   6.404  13.977  0.0045  0.4274  0.4713
 1727TIP3    H126596   5.486   6.455  14.001  0.6877  0.1808 -1.1151
 1727TIP3    H226597   5.377   6.443  13.896  0.4176 -1.4661 -0.6658
 1728TIP3   OH226598   0.141   0.557  13.587  0.1770 -0.3229  0.5309
 1728TIP3    H126599   0.100   0.593  13.508 -0.7364  1.1718  1.6369
 1728TIP3    H226600   0.210   0.499  13.554  0.2333  0.7374 -1.3580
 1729TIP3   OH226601   0.430   3.281   4.319  0.4783  0.5992 -0.3632
 1729TIP3    H126602   0.348   3.253   4.360  1.0780 -1.5067 -0.4597
 1729TIP3    H226603   0.447   3.368   4.356 -0.6943  0.1750  1.3186
 1730TIP3   OH226604   1.637   0.395   6.451 -0.0204  0.0132 -0.2309
 1730TIP3    H126605   1.643   0.419   6.359  0.5119  0.0105 -0.2003
 1730TIP3    H226606   1.641   0.299   6.452  0.9977  0.0411 -0.1462
 1731TIP3   OH226607   6.296   5.033  14.735 -0.1059 -0.3870 -0.3966
 1731TIP3    H126608   6.310   4.967  14.804 -0.5964  0.7014  0.7979
 1731TIP3    H226609   6.242   4.989  14.670  0.6867 -1.5667 -0.2837
 1732TIP3   OH226610   6.113   5.909   0.513 -0.5595  0.2161  0.0389
 1732TIP3    H126611   6.066   5.828   0.529 -0.0591  0.2825  2.1051
 1732TIP3    H226612   6.161   5.893   0.431  0.4587 -2.0344  0.9932
 1733TIP3   OH226613   4.649   2.807   2.772  0.0765 -0.0027  0.4763
 1733TIP3    H126614   4.691   2.851   2.697  1.5433 -0.5005  0.9759
 1733TIP3    H226615   4.596   2.738   2.732  0.4034  0.0927 -0.1352
 1734TIP3   OH226616   1.461   1.057   5.577 -0.9210 -0.0695  0.2929
 1734TIP3    H126617   1.418   1.081   5.659  0.8376 -0.5408  1.3984
 1734TIP3    H226618   1.545   1.102   5.580 -0.6757 -0.4019 -1.0970
 1735TIP3   OH226619   5.457   3.895  16.559  0.1811  0.0327 -0.3597
 1735TIP3    H126620   5.496   3.817  16.520  0.9500  1.1036 -1.8392
 1735TIP3    H226621   5.395   3.926  16.493 -1.1762 -0.0878  0.8060
 1736TIP3   OH226622   3.245   4.050   5.883 -0.0340 -0.0200 -0.0286
 1736TIP3    H126623   3.277   4.074   5.970 -0.9175 -0.7057  0.5049
 1736TIP3    H226624   3.294   3.970   5.861  0.6862  0.5255 -0.4798
 1737TIP3   OH226625   3.469   3.065  16.333 -0.2732 -0.3750 -0.1127
 1737TIP3    H126626   3.381   3.097  16.354  1.4318  3.4014  2.5655
 1737TIP3    H226627   3.494   3.114  16.255 -0.1466 -0.5596 -0.1888
 1738TIP3   OH226628   6.385   1.546  16.569  0.0388 -0.7555  0.3200
 1738TIP3    H126629   6.350   1.633  16.551  0.3270 -0.1197  2.5037
 1738TIP3    H226630   6.437   1.525  16.492  0.6725  1.3986  0.0801
 1739TIP3   OH226631   1.830   1.622   4.194 -0.4553  0.8169  0.1001
 1739TIP3    H126632   1.897   1.689   4.207 -0.0487  0.3871  0.2534
 1739TIP3    H226633   1.782   1.651   4.117 -0.0026  1.0573 -0.0977
 1740TIP3   OH226634   2.071   1.245  16.198 -0.3907 -0.0717  0.2831
 1740TIP3    H126635   2.099   1.282  16.115 -0.9425 -0.5494 -0.1218
 1740TIP3    H226636   2.099   1.153  16.194  0.5825  0.1656  1.0943
 1741TIP3   OH226637   5.511   3.042   3.682  1.0303 -0.2985  0.4546
 1741TIP3    H126638   5.456   3.025   3.759 -0.5969  0.1332 -0.5607
 1741TIP3    H226639   5.550   3.128   3.699 -0.8071  0.6731  0.0217
 1742TIP3   OH226640   3.096   6.768  13.327 -0.2428 -0.7414  0.6826
 1742TIP3    H126641   3.005   6.760  13.357 -0.6243 -1.3916 -0.5790
 1742TIP3    H226642   3.146   6.714  13.388 -0.6245 -0.0182  1.6617
 1743TIP3   OH226643   0.006   3.394  13.890 -0.9310  0.4801  0.1959
 1743TIP3    H126644  -0.050   3.452  13.943 -0.5736 -0.0052  1.1090
 1743TIP3    H226645  -0.021   3.306  13.914 -1.6167  0.2300 -1.3474
 1744TIP3   OH226646   3.743   4.579   1.099 -0.6088 -0.0807  0.1679
 1744TIP3    H126647   3.765   4.650   1.159 -0.2616  0.2759 -0.3724
 1744TIP3    H226648   3.779   4.500   1.140  2.9317  0.6132 -1.2647
 1745TIP3   OH226649   5.567   0.161  16.355  0.3440  0.4829  0.1928
 1745TIP3    H126650   5.556   0.215  16.433 -2.3265 -0.9674  0.9298
 1745TIP3    H226651   5.513   0.204  16.289  0.0102 -0.0305  0.1239
 1746TIP3   OH226652   4.321   0.738   3.812 -0.4565  0.0915  0.0084
 1746TIP3    H126653   4.331   0.804   3.880  0.9302 -1.2943  1.2219
 1746TIP3    H226654   4.356   0.658   3.851 -0.0508 -0.8602 -2.1665
 1747TIP3   OH226655   0.119   5.313   2.048 -0.3482  0.3438 -0.3675
 1747TIP3    H126656   0.043   5.317   1.989 -0.7597 -2.5553 -0.1849
 1747TIP3    H226657   0.160   5.229   2.027 -0.1337 -0.5046  2.9679
 1748TIP3   OH226658   2.181   6.307  12.204 -0.0744 -0.1676 -0.3955
 1748TIP3    H126659   2.154   6.228  12.252 -1.6638  0.3317 -0.4139
 1748TIP3    H226660   2.218   6.363  12.272 -1.5665  0.2008  0.1672
 1749TIP3   OH226661   6.432   3.482   2.617  0.6763 -0.0749  0.5825
 1749TIP3    H126662   6.512   3.458   2.662  0.6156  2.6185  2.3323
 1749TIP3    H226663   6.364   3.477   2.684 -0.2934 -0.5281 -0.4084
 1750TIP3   OH226664   4.741   3.177  15.909  0.1774  0.3818 -0.2029
 1750TIP3    H126665   4.780   3.234  15.842  2.9250 -3.2817 -2.0630
 1750TIP3    H226666   4.685   3.118  15.860 -0.3247 -0.3588  1.2300
 1751TIP3   OH226667   1.463   2.257  12.379 -0.0653 -0.2337 -0.5158
 1751TIP3    H126668   1.499   2.327  12.324  2.3740 -1.7354 -0.9750
 1751TIP3    H226669   1.405   2.209  12.320  0.9255 -0.5974 -1.2338
 1752TIP3   OH226670   5.560   3.944   3.551 -0.7603 -0.4221 -0.1194
 1752TIP3    H126671   5.552   4.040   3.550 -1.5576 -0.4510  1.3477
 1752TIP3    H226672   5.576   3.922   3.643  1.1305 -1.5962 -0.6725
 1753TIP3   OH226673   5.632   2.579   5.026 -0.0775  0.5060  0.6183
 1753TIP3    H126674   5.612   2.525   4.949  0.4853 -0.7398  1.3202
 1753TIP3    H226675   5.629   2.669   4.993 -1.2440  0.0797 -0.5386
 1754TIP3   OH226676   2.979   1.187   5.852  0.0213 -0.1720 -0.0900
 1754TIP3    H126677   3.049   1.125   5.875 -0.7658 -1.3447 -0.7388
 1754TIP3    H226678   2.928   1.140   5.786 -0.7055  1.1249 -0.4637
 1755TIP3   OH226679   4.846   1.229   1.670 -0.8135  0.7102 -0.2624
 1755TIP3    H126680   4.857   1.182   1.752  0.5744  1.5686  0.0762
 1755TIP3    H226681   4.752   1.250   1.667 -0.9076  0.5579  1.0409
 1756TIP3   OH226682   4.483   0.428  12.473 -0.1886  0.7448 -0.1071
 1756TIP3    H126683   4.462   0.479  12.552 -2.4793  1.4240 -1.0578
 1756TIP3    H226684   4.516   0.345  12.507 -1.0679  1.0344  1.5940
 1757TIP3   OH226685   4.840   5.892  11.453  0.7022  0.9150 -0.5385
 1757TIP3    H126686   4.773   5.958  11.437  0.1736  0.2464 -1.1565
 1757TIP3    H226687   4.909   5.911  11.389  0.0005  0.1474 -1.5569
 1758TIP3   OH226688   3.337   4.466   2.476  0.1603  0.1771  0.0387
 1758TIP3    H126689   3.344   4.547   2.528  0.2249 -0.5769  1.2507
 1758TIP3    H226690   3.317   4.398   2.541 -0.2740 -0.7222 -1.0097
 1759TIP3   OH226691   4.535   4.241  10.502 -0.3048 -0.0667  0.1506
 1759TIP3    H126692   4.601   4.175  10.519  0.0377  0.2027 -0.1203
 1759TIP3    H226693   4.543   4.260  10.408 -0.3790  0.3718  0.2292
 1760TIP3   OH226694   2.450   3.081   4.984  0.4299  0.0207  0.2925
 1760TIP3    H126695   2.454   3.176   4.997  1.0369 -0.1264  1.2466
 1760TIP3    H226696   2.362   3.056   5.012 -0.4434  0.5511 -1.8219
 1761TIP3   OH226697   2.943   2.496  14.298  0.3903  0.1445  0.3494
 1761TIP3    H126698   3.037   2.514  14.286  0.5425 -1.0886 -0.4413
 1761TIP3    H226699   2.916   2.454  14.216 -1.2858  2.0806 -0.1740
 1762TIP3   OH226700   2.516   0.746   4.139 -0.4268 -0.5731 -0.0773
 1762TIP3    H126701   2.609   0.766   4.152 -0.3278 -0.9896 -0.1472
 1762TIP3    H226702   2.473   0.832   4.143 -0.1838 -0.4938  1.1787
 1763TIP3   OH226703   3.303   0.783   3.642 -0.2043 -0.1185  0.7736
 1763TIP3    H126704   3.322   0.811   3.731  0.2705  0.1554  0.5922
 1763TIP3    H226705   3.367   0.714   3.625 -1.0274 -0.9675  1.0358
 1764TIP3   OH226706   4.097   2.335   2.176  0.5846 -0.5340  0.2514
 1764TIP3    H126707   4.091   2.359   2.084 -0.8081 -3.7560 -0.6155
 1764TIP3    H226708   4.154   2.259   2.178  0.5953 -0.5239  2.0866
 1765TIP3   OH226709   6.477   2.537   1.568  0.6743 -0.2217 -0.2144
 1765TIP3    H126710   6.456   2.551   1.476  1.9630  0.3183 -0.4514
 1765TIP3    H226711   6.454   2.445   1.585 -2.7316  0.5055 -0.1253
 1766TIP3   OH226712   0.229   3.477  14.067 -0.9158 -0.2504 -0.6073
 1766TIP3    H126713   0.147   3.512  14.034 -1.2612 -1.1794 -0.7727
 1766TIP3    H226714   0.229   3.385  14.040 -0.6338 -0.7225  0.8677
 1767TIP3   OH226715   5.389   0.545  10.687 -0.5164  0.2455 -0.3374
 1767TIP3    H126716   5.374   0.455  10.659  0.4702 -0.6520  1.8237
 1767TIP3    H226717   5.319   0.563  10.750 -0.3262  0.7460 -0.2633
 1768TIP3   OH226718   4.728   4.798   0.075 -0.2286 -0.1691 -0.1359
 1768TIP3    H126719   4.748   4.719   0.125  2.7097  0.8272  0.4950
 1768TIP3    H226720   4.682   4.855   0.137 -0.7786 -0.6939 -0.0530
 1769TIP3   OH226721   0.388   2.294  12.995  0.3049  0.3380 -0.1746
 1769TIP3    H126722   0.459   2.291  13.060 -0.1615  0.6788  0.3627
 1769TIP3    H226723   0.377   2.203  12.967  0.2596  0.1301  0.5029
 1770TIP3   OH226724   3.588   1.116   3.774  0.3576 -0.3767 -0.3279
 1770TIP3    H126725   3.663   1.063   3.748  0.4700 -0.3065 -0.1465
 1770TIP3    H226726   3.619   1.166   3.849  0.1434 -0.3129 -0.2820
 1771TIP3   OH226727   6.178   6.090   2.611  0.0065  0.0867 -0.0943
 1771TIP3    H126728   6.154   6.000   2.586 -2.3351  0.5716  0.1397
 1771TIP3    H226729   6.116   6.145   2.562 -1.7451  1.2984  3.1944
 1772TIP3   OH226730   2.005   3.891   1.283  0.2339 -1.0114 -0.4043
 1772TIP3    H126731   1.910   3.903   1.276  0.4654  0.4909 -1.9344
 1772TIP3    H226732   2.038   3.978   1.305  1.2381 -1.6159  0.5624
 1773TIP3   OH226733   0.050   1.698  16.855 -0.1269 -0.2202  0.1352
 1773TIP3    H126734  -0.043   1.688  16.832 -0.2468  0.9800  0.0145
 1773TIP3    H226735   0.084   1.609  16.856 -1.0428 -0.6043 -0.8175
 1774TIP3   OH226736   5.414   4.636  16.157 -0.3872  0.2243 -0.0135
 1774TIP3    H126737   5.456   4.551  16.142 -0.4469  0.2901 -0.5823
 1774TIP3    H226738   5.442   4.662  16.245 -2.1136 -1.4040  1.0911
 1775TIP3   OH226739   0.835   3.198  13.836  0.8948 -0.1730 -0.0546
 1775TIP3    H126740   0.855   3.290  13.822 -2.0398  0.5427 -0.2806
 1775TIP3    H226741   0.796   3.195  13.924 -2.1776 -0.4674 -1.2862
 1776TIP3   OH226742   6.106   0.918   3.468  0.3168 -0.1172 -0.6676
 1776TIP3    H126743   6.095   0.994   3.410  0.9248  1.6943  1.4802
 1776TIP3    H226744   6.191   0.931   3.510 -0.5915 -0.7248  1.4943
 1777TIP3   OH226745   2.927   6.470   2.563  0.3032  0.7658 -0.4901
 1777TIP3    H126746   2.863   6.437   2.626 -0.8773 -0.0179 -2.0129
 1777TIP3    H226747   2.884   6.546   2.523  0.5402  0.5613 -1.1470
 1778TIP3   OH226748   5.513   1.206  13.623  0.6898 -0.6190 -0.2398
 1778TIP3    H126749   5.454   1.143  13.666  0.4864 -0.1865  0.1193
 1778TIP3    H226750   5.568   1.240  13.694  0.1140  0.3586 -0.2507
 1779TIP3   OH226751   6.135   2.309  16.650  0.6346  0.1577 -0.2570
 1779TIP3    H126752   6.087   2.341  16.726  2.2406 -0.8831  1.2642
 1779TIP3    H226753   6.202   2.376  16.634  0.1783  0.4746 -0.9336
 1780TIP3   OH226754   2.485   2.068  12.046  0.0858  0.2192 -0.4881
 1780TIP3    H126755   2.450   2.153  12.074  0.6615  0.3056 -0.0012
 1780TIP3    H226756   2.475   2.069  11.950 -1.6543  0.0354 -0.3374
 1781TIP3   OH226757   5.000   3.968  16.751 -0.1043 -0.3732  0.1418
 1781TIP3    H126758   4.937   3.995  16.685 -1.6923 -2.3176  0.7694
 1781TIP3    H226759   4.996   4.037  16.818  0.1968  0.6910 -0.8947
 1782TIP3   OH226760   2.318   3.177  11.856 -0.4454 -0.6852  0.1993
 1782TIP3    H126761   2.365   3.259  11.847 -0.0201 -0.8779  0.6152
 1782TIP3    H226762   2.386   3.110  11.852 -0.6249 -0.9474  1.2570
 1783TIP3   OH226763   0.891   2.835   1.422  0.7316 -0.1701  0.0007
 1783TIP3    H126764   0.795   2.825   1.425  0.8003 -0.6726  0.6240
 1783TIP3    H226765   0.906   2.894   1.348 -0.1222  0.6594  0.4633
 1784TIP3   OH226766   4.000   6.068  16.495 -0.0002 -0.0246 -0.0262
 1784TIP3    H126767   4.047   6.060  16.578 -0.8541 -1.3709  0.3524
 1784TIP3    H226768   4.041   6.003  16.437  0.2087  0.5049 -0.4843
 1785TIP3   OH226769   3.472   3.453  12.746  0.2970 -0.4821  0.2643
 1785TIP3    H126770   3.515   3.458  12.660  0.9096 -1.4352  0.5042
 1785TIP3    H226771   3.507   3.529  12.794  0.6307 -0.4441 -0.0314
 1786TIP3   OH226772   4.751   1.520   1.287  0.1835  0.5441 -0.3252
 1786TIP3    H126773   4.771   1.613   1.294 -0.7049  0.7346 -0.2735
 1786TIP3    H226774   4.684   1.504   1.353  0.8949 -0.3078  0.2277
 1787TIP3   OH226775   4.880   2.171   6.036 -0.3320  0.3485  0.7418
 1787TIP3    H126776   4.837   2.138   6.115  0.2064  1.8524  1.7009
 1787TIP3    H226777   4.930   2.247   6.066 -0.4911  1.2468 -1.1363
 1788TIP3   OH226778   6.090   1.871   4.822  0.2665 -0.2650 -0.0508
 1788TIP3    H126779   6.142   1.791   4.828 -0.5847 -0.7741  0.9735
 1788TIP3    H226780   6.001   1.843   4.845 -0.4353  0.6191 -1.5380
 1789TIP3   OH226781   3.328   5.807  12.008 -0.4792  0.3219 -0.6287
 1789TIP3    H126782   3.328   5.892  11.964  0.3214  0.7299  0.1286
 1789TIP3    H226783   3.408   5.807  12.060 -0.0208 -1.2509 -1.2716
 1790TIP3   OH226784   2.530   3.689  12.654 -0.8939 -0.5644  0.1870
 1790TIP3    H126785   2.595   3.626  12.686  0.1173  0.0495 -0.6089
 1790TIP3    H226786   2.529   3.758  12.720  1.6959  1.0455 -1.2947
 1791TIP3   OH226787   0.573   2.213  13.539 -0.3565 -0.2962 -0.1354
 1791TIP3    H126788   0.619   2.284  13.494  1.1402 -0.9328  0.3466
 1791TIP3    H226789   0.488   2.208  13.494  0.1560  0.6702 -1.2752
 1792TIP3   OH226790   3.707   5.046  16.810 -0.0375  0.6222  0.0605
 1792TIP3    H126791   3.656   5.007  16.739 -0.0857  2.3891 -0.9231
 1792TIP3    H226792   3.666   5.012  16.890 -0.4439 -0.8243 -0.7159
 1793TIP3   OH226793   5.873   0.573  15.311  0.0909 -0.5917 -0.1626
 1793TIP3    H126794   5.934   0.645  15.324  1.8088 -1.3919 -3.0580
 1793TIP3    H226795   5.786   0.614  15.319  0.9617  1.1720  1.0306
 1794TIP3   OH226796   0.212   4.773   1.723  0.2825  0.1152 -0.0808
 1794TIP3    H126797   0.186   4.690   1.764  1.2567 -0.6417 -0.9341
 1794TIP3    H226798   0.258   4.821   1.791 -0.5096  0.0692  0.4973
 1795TIP3   OH226799   6.053   6.106  12.292 -0.5961 -0.2253  0.4110
 1795TIP3    H126800   6.075   6.070  12.206 -1.9142 -0.6559  0.2317
 1795TIP3    H226801   6.123   6.168  12.311 -0.3634 -0.0114 -1.0538
 1796TIP3   OH226802   5.726   0.883   1.475  0.0200  0.3526 -0.5245
 1796TIP3    H126803   5.726   0.790   1.496 -0.6540  0.2109 -1.0898
 1796TIP3    H226804   5.806   0.897   1.424  0.3276  0.1668 -0.0894
 1797TIP3   OH226805   3.109   6.452  14.303 -0.2750  0.1026  0.8055
 1797TIP3    H126806   3.113   6.541  14.338 -1.4149  0.6337 -0.3407
 1797TIP3    H226807   3.024   6.446  14.261  0.3840 -1.0233 -0.4623
 1798TIP3   OH226808   3.134   3.885  13.326  0.1487 -0.1602  0.4651
 1798TIP3    H126809   3.053   3.926  13.296  0.1605  0.7641  1.6291
 1798TIP3    H226810   3.133   3.799  13.285 -2.2508 -0.8265  1.6890
 1799TIP3   OH226811   5.167   0.517   5.270 -0.6040  0.1980 -0.2175
 1799TIP3    H126812   5.196   0.431   5.300  0.9141  0.5432 -0.6416
 1799TIP3    H226813   5.225   0.538   5.198 -0.3024  2.0161  0.5075
 1800TIP3   OH226814   5.853   0.123  13.975  0.0047 -0.5513 -0.4035
 1800TIP3    H126815   5.791   0.188  13.944 -1.3733 -1.5717  0.1257
 1800TIP3    H226816   5.833   0.113  14.068  2.8587  1.1476  0.5041
 1801TIP3   OH226817   3.210   3.049  11.569 -1.2928 -0.1587  0.4568
 1801TIP3    H126818   3.186   3.128  11.616 -0.6414 -0.0176  0.5604
 1801TIP3    H226819   3.305   3.055  11.559 -1.3699 -0.4038 -0.4849
 1802TIP3   OH226820   5.027   1.999   5.010  0.3922  0.6258 -0.4776
 1802TIP3    H126821   5.046   1.972   5.099 -2.0064  1.2443  0.2889
 1802TIP3    H226822   4.975   2.079   5.019 -1.6790 -0.3813 -2.2973
 1803TIP3   OH226823   4.976   2.632   3.713  0.0923 -0.7153 -0.4474
 1803TIP3    H126824   4.892   2.591   3.695 -0.3999 -0.3118  0.8697
 1803TIP3    H226825   5.015   2.579   3.782  1.8766 -2.1326 -2.4253
 1804TIP3   OH226826   6.174   3.999  14.915  0.9128 -0.6716 -0.8423
 1804TIP3    H126827   6.226   4.042  14.983  1.8033 -0.7006 -1.4835
 1804TIP3    H226828   6.095   4.053  14.907 -0.5152 -2.1404  2.0629
 1805TIP3   OH226829   1.070   4.162   2.347 -0.7477 -0.4155 -0.1344
 1805TIP3    H126830   1.152   4.117   2.323  0.3276  1.7561 -0.7441
 1805TIP3    H226831   1.035   4.109   2.419  3.3749  0.7713  3.1451
 1806TIP3   OH226832   5.740   4.297  13.440  0.6958 -0.0771  0.0823
 1806TIP3    H126833   5.784   4.214  13.454  1.4527  0.2541 -0.2541
 1806TIP3    H226834   5.659   4.291  13.490  1.9426 -0.0123  2.2003
 1807TIP3   OH226835   4.306   1.166  12.058  0.3143 -0.2281 -0.1997
 1807TIP3    H126836   4.217   1.186  12.029 -0.4397 -1.4853  1.1655
 1807TIP3    H226837   4.316   1.214  12.140  1.7094  1.6563 -1.3968
 1808TIP3   OH226838   6.522   4.346  13.178 -0.0693 -0.2900  0.5785
 1808TIP3    H126839   6.483   4.290  13.245 -0.6695  1.3514  1.6577
 1808TIP3    H226840   6.461   4.419  13.169 -0.2813 -0.6908 -2.1617
 1809TIP3   OH226841   3.674   0.979  13.827  0.5852  0.4915  0.1058
 1809TIP3    H126842   3.584   0.952  13.844  0.8803  0.0717  1.0968
 1809TIP3    H226843   3.678   1.070  13.857  0.3887  0.6460 -0.3296
 1810TIP3   OH226844   1.063   3.668   3.791  0.3698  1.0895 -0.3807
 1810TIP3    H126845   1.082   3.595   3.850 -0.1160  0.7809 -0.5970
 1810TIP3    H226846   1.126   3.657   3.719 -2.5616 -1.8945 -2.8012
 1811TIP3   OH226847   1.375   4.820   1.906 -0.0847 -0.2906 -0.2410
 1811TIP3    H126848   1.287   4.783   1.904 -0.6683  1.1034 -1.0434
 1811TIP3    H226849   1.364   4.909   1.939  0.6133  0.8741 -2.8720
 1812TIP3   OH226850   3.545   3.459   1.183  0.3287 -0.4710 -0.0864
 1812TIP3    H126851   3.522   3.368   1.161 -1.1270 -0.0417 -0.4465
 1812TIP3    H226852   3.636   3.454   1.211  0.9336 -1.7327 -2.0412
 1813TIP3   OH226853   3.690   1.087  12.417  0.1090 -0.3837  0.0135
 1813TIP3    H126854   3.721   1.092  12.508 -0.9213 -0.4444  0.3848
 1813TIP3    H226855   3.645   1.003  12.412  0.8791 -0.7571 -0.8012
 1814TIP3   OH226856   5.983   6.241  15.613 -0.1251  0.0909 -0.0558
 1814TIP3    H126857   5.893   6.269  15.631  0.5636  2.2002  0.3179
 1814TIP3    H226858   6.007   6.187  15.689 -1.3251 -1.2281 -0.5686
 1815TIP3   OH226859   4.632   0.481   2.628 -0.0404  0.3187 -0.9190
 1815TIP3    H126860   4.703   0.541   2.647  0.5591 -0.3521 -0.9679
 1815TIP3    H226861   4.631   0.420   2.702 -1.7391  1.3612 -0.0242
 1816TIP3   OH226862   4.529   6.648   4.271  0.3538  0.6007 -0.3836
 1816TIP3    H126863   4.587   6.584   4.312 -0.6841  1.3067  2.4323
 1816TIP3    H226864   4.588   6.717   4.240  1.1976  0.0285 -0.0887
 1817TIP3   OH226865   1.855   3.423   1.928 -0.4060  0.1425 -0.5310
 1817TIP3    H126866   1.869   3.504   1.977  0.8647  0.0649 -0.7381
 1817TIP3    H226867   1.839   3.356   1.994 -4.1377  0.9413 -0.3769
 1818TIP3   OH226868   0.431   4.837  13.775 -0.4279  0.5254 -0.4584
 1818TIP3    H126869   0.465   4.871  13.858  1.0504  0.6167 -1.0557
 1818TIP3    H226870   0.417   4.916  13.721 -1.2482  0.4582 -0.3535
 1819TIP3   OH226871   3.387   1.131   0.403  0.5870 -0.1593  0.1059
 1819TIP3    H126872   3.339   1.210   0.377 -2.2581 -0.8541  2.6034
 1819TIP3    H226873   3.378   1.072   0.328 -0.4854  0.5896 -0.3842
 1820TIP3   OH226874   0.121   0.942  11.668 -0.0091  0.3574  0.5571
 1820TIP3    H126875   0.138   0.848  11.656  1.4868  0.7037 -0.2035
 1820TIP3    H226876   0.188   0.972  11.729  2.0062  1.6576 -2.1274
 1821TIP3   OH226877   0.873   2.648   0.265 -0.7099  0.3255  0.0481
 1821TIP3    H126878   0.822   2.647   0.347  0.0680 -0.9786  0.5505
 1821TIP3    H226879   0.914   2.735   0.264 -2.8734  1.4239 -0.3748
 1822TIP3   OH226880   4.729   0.608   1.563  0.7557 -0.1431 -0.0870
 1822TIP3    H126881   4.675   0.645   1.493  0.7031 -1.1584 -0.5987
 1822TIP3    H226882   4.811   0.586   1.520  0.1090 -2.4000 -0.2705
 1823TIP3   OH226883   5.600   5.901   6.055  0.2772 -0.3124  0.0031
 1823TIP3    H126884   5.618   5.828   5.995  2.1206 -0.6453  0.8658
 1823TIP3    H226885   5.536   5.866   6.116 -0.0710 -0.6659 -0.5619
 1824TIP3   OH226886   1.131   6.643  12.593 -0.4989 -0.1778  0.0002
 1824TIP3    H126887   1.113   6.734  12.616 -0.9150 -0.6011  1.5036
 1824TIP3    H226888   1.058   6.594  12.633  0.5138 -1.3081  0.5177
 1825TIP3   OH226889   0.752   0.106   2.890 -0.1480  0.1057 -0.0511
 1825TIP3    H126890   0.730   0.013   2.900  0.6577  0.1066  2.7234
 1825TIP3    H226891   0.669   0.149   2.871 -1.1267 -0.8776  1.6533
 1826TIP3   OH226892   2.584   6.478  15.421 -0.1244 -0.1127 -0.1190
 1826TIP3    H126893   2.540   6.477  15.336 -3.1934  0.7298  1.3008
 1826TIP3    H226894   2.533   6.540  15.473  3.4587  1.7550  1.5143
 1827TIP3   OH226895   4.418   4.933  14.924 -0.6976 -0.2045  0.3599
 1827TIP3    H126896   4.466   4.874  14.866  0.2872  0.9415 -0.0479
 1827TIP3    H226897   4.423   4.891  15.010 -0.3661 -0.9013  0.0089
 1828TIP3   OH226898   3.231   1.567  12.954  0.2010  0.3627 -0.2382
 1828TIP3    H126899   3.322   1.541  12.937  0.3309 -0.4743  1.4796
 1828TIP3    H226900   3.234   1.662  12.959  1.2983  0.2954  1.1819
 1829TIP3   OH226901   0.378   3.098  16.319  0.0865  0.4427 -0.1127
 1829TIP3    H126902   0.288   3.117  16.293 -0.2163  0.4781  0.9199
 1829TIP3    H226903   0.394   3.009  16.288 -0.3556  0.3744 -0.1523
 1830TIP3   OH226904   4.550   4.492  13.803  0.0374  0.2051 -0.4613
 1830TIP3    H126905   4.478   4.483  13.865 -0.5067  0.0339 -1.1014
 1830TIP3    H226906   4.546   4.584  13.775 -0.9079 -0.1659 -1.6299
 1831TIP3   OH226907   4.932   4.136   0.956 -0.1961  0.3289 -0.0087
 1831TIP3    H126908   4.952   4.086   0.876  0.0041  1.0928 -0.4518
 1831TIP3    H226909   4.845   4.172   0.940  0.9964  3.0062 -1.2677
 1832TIP3   OH226910   3.809   4.766  14.925  0.2852  0.1397 -0.2956
 1832TIP3    H126911   3.823   4.681  14.967  1.6572 -0.1801 -1.3423
 1832TIP3    H226912   3.771   4.820  14.994  0.2858 -1.0384  0.6694
 1833TIP3   OH226913   5.898   5.132   2.538  0.1997  0.2303 -0.2955
 1833TIP3    H126914   5.873   5.211   2.491  0.7120  0.3641 -0.3532
 1833TIP3    H226915   5.816   5.096   2.572  0.0049  0.9781  0.0289
 1834TIP3   OH226916   4.439   1.705   1.537 -0.0537  0.4343  0.2158
 1834TIP3    H126917   4.344   1.702   1.529 -0.0866 -1.1520  0.7439
 1834TIP3    H226918   4.470   1.726   1.449 -0.8837  1.4337  0.1399
 1835TIP3   OH226919   2.881   4.620   0.544  0.7232  0.2865 -0.0719
 1835TIP3    H126920   2.969   4.608   0.509  0.1738  1.0948 -1.8093
 1835TIP3    H226921   2.822   4.601   0.471 -0.5848 -0.6139  1.1566
 1836TIP3   OH226922   6.445   4.639   5.177 -0.2767 -0.0847 -0.2678
 1836TIP3    H126923   6.487   4.553   5.178 -0.4893 -0.2343 -1.6999
 1836TIP3    H226924   6.355   4.623   5.204 -0.6715 -0.5523 -1.7586
 1837TIP3   OH226925   4.560   4.413   5.172 -0.5666 -0.2462  0.5291
 1837TIP3    H126926   4.497   4.382   5.108 -0.9956  0.1993  0.7319
 1837TIP3    H226927   4.536   4.369   5.253 -0.5156 -0.2064  0.5661
 1838TIP3   OH226928   4.161   0.187   1.953 -0.0844  0.0807 -0.3400
 1838TIP3    H126929   4.235   0.226   1.999 -0.6006  0.8666 -0.1557
 1838TIP3    H226930   4.145   0.246   1.879 -1.4887  0.8066  0.4804
 1839TIP3   OH226931   0.072   2.611   4.638  0.5680  0.7137 -0.1329
 1839TIP3    H126932   0.114   2.552   4.700  1.9158 -1.7811 -3.1833
 1839TIP3    H226933   0.108   2.697   4.659  1.0182 -0.0132  2.4055
 1840TIP3   OH226934   5.839   2.861  13.258 -0.2270 -0.2735  0.0824
 1840TIP3    H126935   5.885   2.841  13.340 -1.1204 -0.9388  0.4427
 1840TIP3    H226936   5.753   2.895  13.286 -0.7371 -0.9881 -0.5690
 1841TIP3   OH226937   0.332   5.591   4.474 -0.0356  0.2808 -0.0729
 1841TIP3    H126938   0.375   5.622   4.554 -1.2070 -0.9116  1.0702
 1841TIP3    H226939   0.336   5.666   4.414  2.3803  0.6571  0.4461
 1842TIP3   OH226940   0.986   2.867   4.766 -0.3275 -0.5694  0.1605
 1842TIP3    H126941   1.000   2.939   4.704 -0.3986  0.2449  1.0637
 1842TIP3    H226942   1.011   2.788   4.717  1.3834  0.2129 -0.3203
 1843TIP3   OH226943   3.984   6.625  10.790  0.4685 -0.0706 -0.7780
 1843TIP3    H126944   3.989   6.687  10.863  1.4584 -0.2457 -0.6884
 1843TIP3    H226945   3.977   6.539  10.831 -0.7052 -0.0432 -0.9024
 1844TIP3   OH226946   3.977   1.183  12.539 -0.0830  0.3504 -0.4657
 1844TIP3    H126947   3.935   1.184  12.624  1.4231 -0.2226  0.3246
 1844TIP3    H226948   3.991   1.275  12.518 -1.7241  0.5507 -0.7739
 1845TIP3   OH226949   3.779   2.766  12.708 -0.4659 -0.5220  0.7577
 1845TIP3    H126950   3.850   2.764  12.645  1.4877 -0.3730  2.8155
 1845TIP3    H226951   3.754   2.674  12.720 -1.3470 -0.4999 -0.6676
 1846TIP3   OH226952   2.265   5.197   1.368 -0.4116 -0.3948 -0.8469
 1846TIP3    H126953   2.200   5.256   1.329 -0.8927 -0.5833 -0.3493
 1846TIP3    H226954   2.247   5.112   1.327  1.2853  0.0878 -2.7302
 1847TIP3   OH226955   3.999   2.439  15.775  0.2289 -0.0719 -0.7501
 1847TIP3    H126956   3.993   2.523  15.820 -1.0705 -0.1894 -0.6668
 1847TIP3    H226957   4.000   2.374  15.847  1.4333 -0.1413 -0.8036
 1848TIP3   OH226958   0.265   5.324  12.992 -0.0895 -0.3383  1.0422
 1848TIP3    H126959   0.224   5.374  13.063 -0.4152  0.3498  0.3823
 1848TIP3    H226960   0.251   5.377  12.914  0.3896 -1.0197  0.4796
 1849TIP3   OH226961   4.617   4.104  16.265  0.1972 -0.0402  0.2813
 1849TIP3    H126962   4.564   4.146  16.333  0.2116  1.3344 -0.5131
 1849TIP3    H226963   4.592   4.012  16.268 -0.5507  0.1790  1.4486
 1850TIP3   OH226964   0.561   2.476  10.770  0.6645  0.7056  0.2138
 1850TIP3    H126965   0.639   2.424  10.749  0.4597 -0.0901  1.3368
 1850TIP3    H226966   0.493   2.441  10.713  1.0476  1.2328 -0.5901
 1851TIP3   OH226967   6.217   0.268   2.871 -0.0047 -0.2791  0.2165
 1851TIP3    H126968   6.169   0.327   2.929 -0.5405  1.1675 -1.5963
 1851TIP3    H226969   6.151   0.207   2.838 -0.6114  1.4107 -1.9030
 1852TIP3   OH226970   1.872   5.559  16.860  0.0830  0.1932  0.2130
 1852TIP3    H126971   1.857   5.617  16.935  0.5897 -1.1470  1.3951
 1852TIP3    H226972   1.914   5.615  16.795  2.3685  0.7757  2.0418
 1853TIP3   OH226973   3.093   5.110   0.098 -0.1926  0.0639  0.1415
 1853TIP3    H126974   3.178   5.107   0.143  0.7901  1.5871 -1.5046
 1853TIP3    H226975   3.093   5.034   0.041 -0.4567 -0.5865  0.9894
 1854TIP3   OH226976   4.232   3.834  11.863 -0.2448 -0.2448 -0.2232
 1854TIP3    H126977   4.177   3.840  11.941 -1.5110  1.9063 -1.2134
 1854TIP3    H226978   4.316   3.870  11.890 -1.3346  2.6579 -0.3253
 1855TIP3   OH226979   2.523   2.465  10.547 -0.2394  0.3113  0.0457
 1855TIP3    H126980   2.568   2.546  10.527  0.8209 -0.2072  0.2658
 1855TIP3    H226981   2.431   2.490  10.556 -0.0824  1.3070 -0.8988
 1856TIP3   OH226982   0.125   6.284   3.864 -0.0760  0.0778  0.6263
 1856TIP3    H126983   0.141   6.207   3.808  1.5824  0.4069  0.6146
 1856TIP3    H226984   0.169   6.356   3.819  1.1589  0.3901  2.2549
 1857TIP3   OH226985   2.247   3.597  14.191 -0.2034  0.0758 -0.1727
 1857TIP3    H126986   2.195   3.582  14.270  0.6417  1.6127  0.7318
 1857TIP3    H226987   2.319   3.534  14.196 -1.0864 -0.9985 -0.6323
 1858TIP3   OH226988   5.869   3.141  11.299 -0.2875 -0.7716  0.3271
 1858TIP3    H126989   5.816   3.080  11.247 -1.8755  1.1665 -0.4523
 1858TIP3    H226990   5.826   3.226  11.288  0.6054  0.1363  3.0896
 1859TIP3   OH226991   1.287   1.116   5.073  0.2770  0.4579 -0.0111
 1859TIP3    H126992   1.289   1.020   5.069  1.1348  0.4325  0.5809
 1859TIP3    H226993   1.255   1.143   4.987  0.2944 -0.3545 -0.2839
 1860TIP3   OH226994   2.813   5.527   4.567 -0.4634 -0.1236 -0.1094
 1860TIP3    H126995   2.747   5.516   4.499  0.3453  1.3770 -1.1767
 1860TIP3    H226996   2.778   5.595   4.624 -1.0363 -1.2207  0.9113
 1861TIP3   OH226997   6.678   4.142   1.186  0.0299  0.1613  0.1739
 1861TIP3    H126998   6.610   4.074   1.187  0.4730 -0.3463 -1.2950
 1861TIP3    H226999   6.630   4.224   1.199 -0.4629 -0.4162  2.4736
 1862TIP3   OH227000   4.672   6.605   0.156 -0.8849  0.2647 -0.2530
 1862TIP3    H127001   4.677   6.595   0.251 -0.7032 -0.4946 -0.3327
 1862TIP3    H227002   4.623   6.528   0.127  0.6597 -0.5103 -0.9396
 1863TIP3   OH227003   1.550   6.393   6.712 -0.3354 -0.2094 -0.0161
 1863TIP3    H127004   1.641   6.366   6.695 -0.6619 -0.3073 -1.8850
 1863TIP3    H227005   1.497   6.319   6.681 -1.0778  0.2823  0.0597
 1864TIP3   OH227006   5.509   3.441   4.517 -0.5208 -0.1518  0.1103
 1864TIP3    H127007   5.466   3.518   4.482  1.9597  0.0966 -2.8387
 1864TIP3    H227008   5.530   3.465   4.608 -1.9501  1.6253  0.0364
 1865TIP3   OH227009   4.801   6.523  15.473 -0.2092  0.8687 -0.4473
 1865TIP3    H127010   4.778   6.461  15.403 -0.9169 -2.0201  2.0890
 1865TIP3    H227011   4.716   6.554  15.505  0.0396  1.1006 -0.0105
 1866TIP3   OH227012   1.047   6.702  13.298  0.5617 -0.2653 -0.4635
 1866TIP3    H127013   0.997   6.732  13.222  0.6032  0.6969 -0.1310
 1866TIP3    H227014   1.039   6.773  13.362  0.3439 -1.1523  0.5283
 1867TIP3   OH227015   4.982   2.561   4.722  0.7587  0.0714 -0.7038
 1867TIP3    H127016   4.886   2.559   4.723  0.7458 -1.3250  1.8354
 1867TIP3    H227017   5.004   2.576   4.630 -1.8740 -0.6569 -1.5508
 1868TIP3   OH227018   0.996   3.942  12.375 -0.6912 -0.2480 -0.6050
 1868TIP3    H127019   0.971   3.868  12.430 -0.0674 -2.2452 -2.8278
 1868TIP3    H227020   0.920   3.957  12.318 -0.0529 -0.6122 -1.5797
 1869TIP3   OH227021   6.507   2.953  12.383  0.0672  0.2516 -0.2874
 1869TIP3    H127022   6.414   2.936  12.370  0.1161 -0.9817  0.8428
 1869TIP3    H227023   6.545   2.944  12.295 -0.8395  0.6589 -0.7404
 1870TIP3   OH227024   0.081   1.492  12.980  0.2965 -0.1663  0.0944
 1870TIP3    H127025   0.144   1.427  13.013 -0.6584 -0.8564  0.6279
 1870TIP3    H227026   0.037   1.524  13.059  2.2443  2.8395  0.1330
 1871TIP3   OH227027   4.176   4.316   5.842  0.1369 -0.0091 -0.3024
 1871TIP3    H127028   4.251   4.260   5.860 -0.5070 -1.2332 -1.3044
 1871TIP3    H227029   4.158   4.359   5.926  0.2510 -1.8035  0.6950
 1872TIP3   OH227030   0.998   5.612   2.348 -0.4339  0.2669  0.4492
 1872TIP3    H127031   1.024   5.521   2.363  0.8732  0.2352 -1.6321
 1872TIP3    H227032   0.957   5.639   2.431  0.5086 -1.7241  1.6461
 1873TIP3   OH227033   5.874   6.200   4.768  0.2377  0.5060  0.5130
 1873TIP3    H127034   5.853   6.274   4.711  1.2656  0.9806  0.7440
 1873TIP3    H227035   5.844   6.226   4.855  1.2224  0.9430  0.7288
 1874TIP3   OH227036   3.418   6.404  13.980  0.6443  0.7002 -0.4323
 1874TIP3    H127037   3.468   6.466  14.033  0.6754 -0.1662  0.6039
 1874TIP3    H227038   3.482   6.341  13.948  0.2242 -0.7015  1.3123
 1875TIP3   OH227039   1.520   0.026   0.179  0.3486 -0.5810  0.2822
 1875TIP3    H127040   1.450   0.064   0.233 -1.1911 -2.1243 -0.5415
 1875TIP3    H227041   1.476  -0.041   0.127  1.8833  0.4431 -2.5109
 1876TIP3   OH227042   5.750   3.347   0.436  0.2240  0.1959 -0.5045
 1876TIP3    H127043   5.738   3.429   0.484 -1.1684 -0.6282  0.6417
 1876TIP3    H227044   5.821   3.302   0.482  0.0293  0.1430 -0.2549
 1877TIP3   OH227045   6.226   1.122  16.520  0.3810  0.0345  0.4461
 1877TIP3    H127046   6.250   1.061  16.590  0.9576  1.6212  1.6635
 1877TIP3    H227047   6.308   1.167  16.499  0.6527 -1.5396 -2.4800
 1878TIP3   OH227048   1.544   1.229  12.177  0.4286 -0.0969 -0.2498
 1878TIP3    H127049   1.462   1.194  12.212 -0.4330  2.1779  0.1991
 1878TIP3    H227050   1.576   1.288  12.246  1.1151  0.9621 -1.4421
 1879TIP3   OH227051   6.111   6.711   5.813  0.3606  0.6943 -0.5729
 1879TIP3    H127052   6.133   6.623   5.842 -0.0501  0.2102 -1.7019
 1879TIP3    H227053   6.170   6.768   5.863 -0.4733 -0.0718  1.3796
 1880TIP3   OH227054   3.855   5.624   2.117 -0.2116 -0.7395  0.4423
 1880TIP3    H127055   3.922   5.669   2.168 -1.0888  0.1341  0.8435
 1880TIP3    H227056   3.885   5.631   2.026  0.9742 -1.6589  0.7306
 1881TIP3   OH227057   1.910   5.625   0.701  0.1847  0.3591  0.0295
 1881TIP3    H127058   1.853   5.679   0.755 -1.1209 -1.4329  0.5169
 1881TIP3    H227059   1.903   5.663   0.613  1.3220  2.5057  0.7836
 1882TIP3   OH227060   1.932   0.892  16.873 -0.4653 -0.6421  0.7210
 1882TIP3    H127061   1.951   0.809  16.917 -1.0741 -0.1080  2.0542
 1882TIP3    H227062   2.013   0.943  16.881 -0.5690 -0.5535  1.2246
 1883TIP3   OH227063   1.227   0.758  13.577 -0.0764  0.4767 -0.2012
 1883TIP3    H127064   1.239   0.698  13.651  2.4921 -1.1837 -1.7808
 1883TIP3    H227065   1.181   0.832  13.614  0.8084 -0.3935  3.0240
 1884TIP3   OH227066   2.326   2.392  15.699 -0.3350  0.0224  0.6039
 1884TIP3    H127067   2.233   2.389  15.719 -0.0156 -0.4376  2.1858
 1884TIP3    H227068   2.359   2.305  15.724  0.0317 -0.9879 -2.8148
 1885TIP3   OH227069   4.107   0.568   1.469 -0.2319  0.1757  0.5914
 1885TIP3    H127070   4.100   0.586   1.562  1.6757  0.9072  0.6301
 1885TIP3    H227071   4.190   0.607   1.442 -0.3591 -0.6803 -1.2601
 1886TIP3   OH227072   3.668   3.319   1.586  0.1950  0.3750 -0.2302
 1886TIP3    H127073   3.579   3.321   1.551 -0.1322 -0.1544  0.5417
 1886TIP3    H227074   3.657   3.314   1.681  1.0042 -1.3135 -0.1814
 1887TIP3   OH227075   1.152   2.755  15.996  0.3202  0.5436  0.1419
 1887TIP3    H127076   1.155   2.780  16.089 -1.7895 -1.0695  0.7397
 1887TIP3    H227077   1.113   2.667  15.997  0.8379  0.2213 -2.2566
 1888TIP3   OH227078   6.693   2.658   1.529  0.2072 -0.0272 -0.2339
 1888TIP3    H127079   6.624   2.603   1.568  2.0232 -2.3221 -0.0002
 1888TIP3    H227080   6.693   2.738   1.582 -3.0547  0.6434 -1.0469
 1889TIP3   OH227081   1.921   0.867   1.129 -0.1449  0.0783  0.4402
 1889TIP3    H127082   1.866   0.884   1.206 -1.8852  0.2931 -0.8088
 1889TIP3    H227083   1.872   0.802   1.078 -0.8264  2.5332 -2.2556
 1890TIP3   OH227084   5.911   0.396   3.807  0.3454 -0.3667  0.3793
 1890TIP3    H127085   5.829   0.445   3.816  1.3684  1.4252  0.4340
 1890TIP3    H227086   5.905   0.326   3.872 -1.7246 -1.1715 -0.5947
 1891TIP3   OH227087   2.487   4.983  14.844  0.2398 -0.0863  0.4694
 1891TIP3    H127088   2.476   5.003  14.751  0.3699 -0.0015  0.4716
 1891TIP3    H227089   2.579   5.001  14.861  0.1061  0.3597  0.7271
 1892TIP3   OH227090   2.387   6.514  14.593 -0.0001 -0.0661  0.4744
 1892TIP3    H127091   2.415   6.559  14.513 -0.2394  0.3853  0.6370
 1892TIP3    H227092   2.466   6.470  14.625  0.5707  1.2758  0.9900
 1893TIP3   OH227093   5.724   3.359  14.967 -0.3654 -0.1028 -0.7180
 1893TIP3    H127094   5.713   3.336  15.059  0.6102  0.2035 -0.5170
 1893TIP3    H227095   5.700   3.279  14.920  1.9048 -1.2640 -0.0650
 1894TIP3   OH227096   3.796   4.021   1.065 -0.0211  0.2022  0.2333
 1894TIP3    H127097   3.813   4.115   1.057 -2.3771  0.6884  0.3711
 1894TIP3    H227098   3.763   3.996   0.979  1.7075 -0.8212 -0.1916
 1895TIP3   OH227099   4.327   4.892  13.316  0.1891  0.0933  0.3415
 1895TIP3    H127100   4.316   4.828  13.245 -0.1143  0.0389  0.4345
 1895TIP3    H227101   4.310   4.841  13.396 -0.7516  0.4420  0.3788
 1896TIP3   OH227102   2.667   4.511  17.008 -0.1880  0.1581  0.1838
 1896TIP3    H127103   2.702   4.583  17.061  0.6496  0.5285 -0.8344
 1896TIP3    H227104   2.581   4.494  17.045 -1.3311  3.0953 -0.8102
 1897TIP3   OH227105   2.755   3.463  15.187  0.0017 -0.5216 -1.0764
 1897TIP3    H127106   2.749   3.408  15.109  0.2950  0.9495 -2.1828
 1897TIP3    H227107   2.713   3.546  15.161  0.5274  0.1520  0.1637
 1898TIP3   OH227108   1.914   1.819   5.135  0.0219 -0.1038  0.0884
 1898TIP3    H127109   1.919   1.724   5.149  0.5273 -0.0844  0.0740
 1898TIP3    H227110   1.990   1.838   5.080 -0.2181  0.2751 -0.1153
 1899TIP3   OH227111   0.229   0.710   0.791  0.0946 -0.5838  1.1326
 1899TIP3    H127112   0.155   0.736   0.846 -0.8548 -0.0325 -0.3288
 1899TIP3    H227113   0.271   0.793   0.767 -0.3791 -0.6758 -0.1081
 1900TIP3   OH227114   6.715   2.182   3.357  0.1674  0.1579 -0.3313
 1900TIP3    H127115   6.655   2.207   3.427  0.6651  0.3727  0.0294
 1900TIP3    H227116   6.661   2.134   3.295 -0.4568  0.6738 -0.2037
 1901TIP3   OH227117   6.339   0.555  13.803  0.1205 -0.1363  0.3088
 1901TIP3    H127118   6.351   0.466  13.836 -0.3007 -1.0493 -1.8268
 1901TIP3    H227119   6.417   0.602  13.832 -0.3469 -0.7403  2.7740
 1902TIP3   OH227120   5.601   0.763  15.101 -0.1952  0.0849  0.6141
 1902TIP3    H127121   5.687   0.722  15.106 -0.4562 -0.4114  1.2959
 1902TIP3    H227122   5.596   0.799  15.013  1.2923  1.4184  1.0286
 1903TIP3   OH227123   6.425   0.537   1.493  0.9708  0.3214  0.4000
 1903TIP3    H127124   6.413   0.504   1.404 -0.8798  3.0998 -0.5190
 1903TIP3    H227125   6.344   0.514   1.538  1.3783  0.0214  0.9887
 1904TIP3   OH227126   5.504   6.312   1.692 -0.2162 -0.5854 -0.2540
 1904TIP3    H127127   5.538   6.292   1.779  0.0799  0.5465 -0.0998
 1904TIP3    H227128   5.582   6.331   1.639 -0.4693  0.0350 -0.4174
 1905TIP3   OH227129   2.900   5.037   2.752 -0.6038 -0.3335 -0.0699
 1905TIP3    H127130   2.934   5.051   2.841 -0.2855 -1.1261 -0.0619
 1905TIP3    H227131   2.831   5.103   2.742 -1.9885 -1.4781  1.4815
 1906TIP3   OH227132   5.452   0.234  11.769  0.2439  0.2494 -0.3960
 1906TIP3    H127133   5.442   0.254  11.863 -0.7786 -0.4541 -0.3303
 1906TIP3    H227134   5.470   0.140  11.767 -0.3015  0.1534 -0.9271
 1907TIP3   OH227135   5.494   6.567   1.215 -0.7386 -0.9234 -0.2956
 1907TIP3    H127136   5.510   6.594   1.305 -1.9967  0.8608 -0.5563
 1907TIP3    H227137   5.574   6.592   1.168  0.0861 -2.2280  0.3427
 1908TIP3   OH227138   5.095   3.683  14.767  0.1080  0.0444 -0.4550
 1908TIP3    H127139   5.035   3.719  14.702 -1.3373  0.8056  1.1964
 1908TIP3    H227140   5.157   3.631  14.717 -1.2121  0.2231 -2.3759
 1909TIP3   OH227141   1.381   4.796   1.252  0.0291  0.4182 -0.0986
 1909TIP3    H127142   1.427   4.749   1.321  0.6556  0.7478 -0.2761
 1909TIP3    H227143   1.424   4.882   1.250  0.2969  0.2637 -1.1767
 1910TIP3   OH227144   2.698   3.951  17.123  0.5693 -0.2218  0.1510
 1910TIP3    H127145   2.699   3.931  17.216  0.3530 -0.0618  0.1898
 1910TIP3    H227146   2.719   4.045  17.118 -1.8227  0.3904  0.2244
 1911TIP3   OH227147   4.147   1.687  15.129 -0.3262 -0.5674 -0.3285
 1911TIP3    H127148   4.218   1.747  15.152  0.2669 -0.0207 -3.1645
 1911TIP3    H227149   4.067   1.736  15.145 -0.0950 -0.8396  1.9762
 1912TIP3   OH227150   6.717   5.811  11.409 -0.2120 -0.2140  0.0099
 1912TIP3    H127151   6.634   5.842  11.374 -0.2375  0.0590  0.3059
 1912TIP3    H227152   6.779   5.881  11.388  0.3079 -1.1413 -1.6832
 1913TIP3   OH227153   0.728   5.113  11.102  0.2408  0.5429  0.0079
 1913TIP3    H127154   0.778   5.050  11.154 -0.5079  1.5250  2.0446
 1913TIP3    H227155   0.668   5.060  11.050 -0.6221 -0.4653  1.9254
 1914TIP3   OH227156   4.731   4.940  14.995  0.2389  0.0245 -0.1182
 1914TIP3    H127157   4.691   4.855  15.014  3.4646 -1.0078  3.0227
 1914TIP3    H227158   4.682   5.002  15.049 -0.0553 -0.3718  0.0756
 1915TIP3   OH227159   4.792   3.085   0.881  0.2125  0.9227  0.0929
 1915TIP3    H127160   4.761   3.112   0.795 -2.4616 -0.5673  0.4954
 1915TIP3    H227161   4.717   3.097   0.939  0.4041 -2.4462  1.2518
 1916TIP3   OH227162   6.750   0.497  16.497  0.1484 -0.3875 -0.1273
 1916TIP3    H127163   6.664   0.505  16.456  0.0496  0.7675  0.2755
 1916TIP3    H227164   6.770   0.404  16.493 -0.6068 -0.5157 -1.2681
 1917TIP3   OH227165   5.611   3.691  13.377 -0.4540  0.5908  0.4656
 1917TIP3    H127166   5.688   3.698  13.320 -1.2510  0.3957 -0.6694
 1917TIP3    H227167   5.580   3.782  13.386 -0.8530  0.5234 -0.1734
 1918TIP3   OH227168   4.030   4.591   5.413 -0.1137  0.1287 -0.1535
 1918TIP3    H127169   4.117   4.607   5.376  0.4461 -2.8758 -0.3477
 1918TIP3    H227170   4.044   4.589   5.508 -0.4136  1.6525 -0.0432
 1919TIP3   OH227171   4.984   6.290  13.858  0.4422  0.4359 -0.4730
 1919TIP3    H127172   4.995   6.384  13.848  0.7386  0.4094 -0.4144
 1919TIP3    H227173   4.927   6.280  13.934  1.7630  0.5346  0.5626
 1920TIP3   OH227174   5.704   0.151   2.257 -0.0167  0.3846 -0.4023
 1920TIP3    H127175   5.700   0.244   2.276  0.1728  0.0879  1.2426
 1920TIP3    H227176   5.614   0.127   2.232 -0.4967  0.6840  0.9425
 1921TIP3   OH227177   1.125   3.701   0.072 -0.3156 -0.0204 -0.2430
 1921TIP3    H127178   1.074   3.782   0.060 -1.9690 -1.0372 -0.3278
 1921TIP3    H227179   1.073   3.633   0.029  0.5775 -1.3096  0.6503
 1922TIP3   OH227180   5.268   6.166  13.039  0.6067  0.2026 -0.1431
 1922TIP3    H127181   5.338   6.139  13.098  1.3823  0.8371 -0.7629
 1922TIP3    H227182   5.191   6.117  13.069  1.2065 -0.1717  0.8107
 1923TIP3   OH227183   5.530   2.895  14.979  0.0837 -0.1448 -0.0297
 1923TIP3    H127184   5.455   2.836  14.985  0.0546 -0.1287 -0.2209
 1923TIP3    H227185   5.560   2.906  15.069 -0.0423 -0.2836  0.0284
 1924TIP3   OH227186   4.585   1.473   5.886 -0.2122  0.1855 -0.2269
 1924TIP3    H127187   4.534   1.436   5.814 -0.9393  0.3431  0.2044
 1924TIP3    H227188   4.651   1.528   5.843  1.9986 -2.7961 -1.0302
 1925TIP3   OH227189   3.163   0.670  13.655 -0.0740 -0.9564  0.1193
 1925TIP3    H127190   3.116   0.748  13.625  2.2509  0.8487  0.8393
 1925TIP3    H227191   3.098   0.619  13.702 -1.9447 -0.0264 -1.3152
 1926TIP3   OH227192   4.517   3.960   2.030 -0.0018  0.5490  0.0353
 1926TIP3    H127193   4.588   4.007   2.074 -1.2802  2.0567  0.5984
 1926TIP3    H227194   4.523   3.988   1.938 -0.4520  1.4945  0.2744
 1927TIP3   OH227195   5.876   3.065  14.968  0.0329  0.6590  0.5257
 1927TIP3    H127196   5.889   3.120  15.046  1.4556  1.7869 -0.4459
 1927TIP3    H227197   5.933   3.104  14.902 -0.7742 -0.5635 -0.9520
 1928TIP3   OH227198   1.050   6.509   0.505  0.0161  0.1697 -0.1712
 1928TIP3    H127199   0.985   6.579   0.517  0.6697  0.8847 -0.6914
 1928TIP3    H227200   1.013   6.455   0.435  0.1479  0.7918 -0.7353
 1929TIP3   OH227201   5.360   3.830   3.255 -0.3295 -0.2068  0.4299
 1929TIP3    H127202   5.426   3.770   3.292 -0.5844 -0.4647  0.4717
 1929TIP3    H227203   5.325   3.877   3.331  1.1282  1.3021  0.2255
 1930TIP3   OH227204   3.564   3.216   4.964  0.1706 -0.8784  0.2145
 1930TIP3    H127205   3.515   3.191   5.042 -0.5995 -0.8498 -0.2540
 1930TIP3    H227206   3.499   3.218   4.894  0.4595  1.0457 -0.0629
 1931TIP3   OH227207   3.095   5.055   3.410 -0.0948  0.8705  0.2219
 1931TIP3    H127208   3.013   5.076   3.367  0.5046 -0.0510 -1.4630
 1931TIP3    H227209   3.159   5.050   3.339  1.1895  0.4628  1.3605
 1932TIP3   OH227210   2.689   4.896   3.969 -0.1983  0.1984 -0.3362
 1932TIP3    H127211   2.739   4.841   4.029 -0.3824  1.3870  0.9757
 1932TIP3    H227212   2.602   4.856   3.965 -0.4072  0.5201  0.8039
 1933TIP3   OH227213   2.529   4.949  13.441  0.1684 -0.6549 -0.1286
 1933TIP3    H127214   2.590   4.875  13.445 -0.2377 -0.9552  0.5193
 1933TIP3    H227215   2.585   5.026  13.450  0.6523 -0.8459 -1.2793
 1934TIP3   OH227216   0.271   5.562   1.398  0.0005  0.5628 -0.6068
 1934TIP3    H127217   0.253   5.653   1.424 -2.7743  0.0709 -0.4724
 1934TIP3    H227218   0.238   5.556   1.309 -3.6618 -1.1773  0.6569
 1935TIP3   OH227219   0.357   0.936   0.707  0.2812 -0.0664  0.2230
 1935TIP3    H127220   0.451   0.927   0.722 -0.0599 -1.3236  1.9718
 1935TIP3    H227221   0.349   1.002   0.638  2.4873 -0.9954 -1.0213
 1936TIP3   OH227222   5.237   5.556  16.218  0.3963 -0.5647 -0.2442
 1936TIP3    H127223   5.205   5.587  16.133  1.0777 -0.6729 -0.5379
 1936TIP3    H227224   5.305   5.618  16.243  0.2946 -0.6101  0.1700
 1937TIP3   OH227225   0.414   3.522  13.329 -0.3219 -0.5496  0.0531
 1937TIP3    H127226   0.502   3.513  13.294 -0.6182  0.5906 -1.0599
 1937TIP3    H227227   0.362   3.556  13.256 -1.1316  1.2291  1.3816
 1938TIP3   OH227228   3.345   2.683  16.076  0.3374  0.2730 -0.3216
 1938TIP3    H127229   3.408   2.752  16.054  2.8095 -1.6630  0.0823
 1938TIP3    H227230   3.354   2.620  16.004 -0.4253 -0.4904  0.2345
 1939TIP3   OH227231   4.148   3.859   5.584  0.1689 -0.3250  0.0182
 1939TIP3    H127232   4.105   3.944   5.594  1.4954  0.5178 -1.0741
 1939TIP3    H227233   4.241   3.881   5.574  0.4411 -1.8456 -1.0799
 1940TIP3   OH227234   0.885   0.944  10.935 -0.3275 -0.0395  0.0979
 1940TIP3    H127235   0.827   0.967  11.007 -1.3727  0.7694 -0.9503
 1940TIP3    H227236   0.923   1.028  10.907 -0.6343 -0.1957 -0.8487
 1941TIP3   OH227237   5.391   2.522   4.334  0.5034 -0.6989  0.0587
 1941TIP3    H127238   5.335   2.580   4.386  0.5721  0.8211 -1.4789
 1941TIP3    H227239   5.462   2.497   4.394 -0.5456 -0.7364  1.3141
 1942TIP3   OH227240   2.258   6.022   4.589 -0.4670  0.4523 -0.1294
 1942TIP3    H127241   2.346   5.988   4.601 -0.2579  1.3223  0.8932
 1942TIP3    H227242   2.207   5.982   4.658 -0.4077  1.5190  0.5542
 1943TIP3   OH227243   4.958   0.331   3.793 -0.2943 -0.2245  0.2232
 1943TIP3    H127244   4.889   0.282   3.838  0.3865 -0.7350  0.7321
 1943TIP3    H227245   5.022   0.351   3.862 -0.4894  1.2957  0.0070
 1944TIP3   OH227246   0.297   4.487   1.472 -0.4011 -0.5649 -0.2319
 1944TIP3    H127247   0.224   4.548   1.467  0.3407  0.3409 -0.2717
 1944TIP3    H227248   0.256   4.402   1.485 -1.6860 -0.6775 -4.0566
 1945TIP3   OH227249   3.950   3.291  16.178 -0.2642 -0.0611 -0.9184
 1945TIP3    H127250   3.927   3.374  16.220 -0.7309 -0.3835 -0.5322
 1945TIP3    H227251   4.029   3.262  16.222  0.2790  0.4995 -1.5006
 1946TIP3   OH227252   5.209   2.519  13.150  0.2434 -0.5006  0.2320
 1946TIP3    H127253   5.283   2.547  13.205 -0.9749  1.1931  1.0837
 1946TIP3    H227254   5.249   2.496  13.066  1.8691 -0.7605  1.0352
 1947TIP3   OH227255   2.545   1.517  15.404 -0.5051  0.0479  0.7561
 1947TIP3    H127256   2.458   1.541  15.373  0.1921  2.1495  0.3099
 1947TIP3    H227257   2.549   1.548  15.494  0.3369  1.5120  0.2403
 1948TIP3   OH227258   0.386   5.104   3.022  0.0303  0.1139  0.1170
 1948TIP3    H127259   0.445   5.036   2.990 -0.1136  0.5345 -1.0870
 1948TIP3    H227260   0.357   5.150   2.943  0.9649  2.2795  0.9446
 1949TIP3   OH227261   0.546   6.587  14.866 -0.0662 -0.3152  0.0568
 1949TIP3    H127262   0.595   6.512  14.900 -1.9271 -1.5817  0.0646
 1949TIP3    H227263   0.535   6.568  14.773  0.1339  0.3560 -0.1098
 1950TIP3   OH227264   4.568   5.664   3.241 -0.3231  0.0720 -0.6767
 1950TIP3    H127265   4.649   5.697   3.278 -0.9515  0.0059  0.8295
 1950TIP3    H227266   4.504   5.673   3.312 -1.7842  0.7090 -2.0194
 1951TIP3   OH227267   2.042   6.400  15.469 -0.1852 -0.2732 -0.8585
 1951TIP3    H127268   2.034   6.454  15.548  1.1401 -0.2155 -0.7503
 1951TIP3    H227269   1.983   6.326  15.485  1.0536 -0.9557  0.7874
 1952TIP3   OH227270   3.552   1.264   5.143 -0.0053  0.0477 -0.1443
 1952TIP3    H127271   3.617   1.194   5.154 -0.6760 -0.6976 -0.7350
 1952TIP3    H227272   3.513   1.275   5.230 -1.6879 -2.1638 -0.5074
 1953TIP3   OH227273   1.378   3.474   5.830  0.1153  0.4818 -0.2382
 1953TIP3    H127274   1.306   3.435   5.780 -0.1017  0.3624  0.1620
 1953TIP3    H227275   1.363   3.444   5.919  0.8083  0.2578 -0.1960
 1954TIP3   OH227276   5.844   0.209  11.655 -0.0937 -0.3172  0.2880
 1954TIP3    H127277   5.936   0.195  11.632 -0.1343 -0.0059 -0.0670
 1954TIP3    H227278   5.805   0.122  11.655 -0.4338 -0.2232 -2.2733
 1955TIP3   OH227279   0.562   4.988  12.844  0.2741 -0.3103  0.2914
 1955TIP3    H127280   0.508   4.920  12.804 -0.7924  0.2452  0.7572
 1955TIP3    H227281   0.543   4.980  12.938  1.1415 -0.2193  0.4825
 1956TIP3   OH227282   2.862   4.360  14.545  0.2627  0.1091 -0.1864
 1956TIP3    H127283   2.864   4.265  14.548 -1.7774  0.0162 -0.4322
 1956TIP3    H227284   2.874   4.388  14.636 -1.7092 -0.5235  0.3272
 1957TIP3   OH227285   4.309   2.687  10.944  0.4725  0.3947  0.2605
 1957TIP3    H127286   4.291   2.742  10.868  0.3110 -0.8046 -0.5839
 1957TIP3    H227287   4.400   2.704  10.965  1.0266 -0.5321 -1.2666
 1958TIP3   OH227288   5.421   4.448  11.652  0.0720 -0.0668  0.2078
 1958TIP3    H127289   5.510   4.464  11.621 -0.0732 -0.7883 -0.6343
 1958TIP3    H227290   5.375   4.530  11.634 -0.2904 -0.7674 -2.6212
 1959TIP3   OH227291   1.843   2.212  14.929  0.6719  0.0679  0.2568
 1959TIP3    H127292   1.785   2.205  14.854  1.4713 -1.8800 -0.2331
 1959TIP3    H227293   1.903   2.283  14.906  0.5913 -0.1740 -0.7218
 1960TIP3   OH227294   0.883   2.374   0.019  0.1367  0.0995 -0.2646
 1960TIP3    H127295   0.788   2.366   0.019  0.1247  0.0237 -1.6229
 1960TIP3    H227296   0.911   2.324  -0.058  1.0804  2.1220 -1.3137
 1961TIP3   OH227297   6.062   4.574  11.255  0.1018  0.2670  0.1697
 1961TIP3    H127298   6.129   4.513  11.222  1.1712  1.1851  0.5629
 1961TIP3    H227299   6.081   4.656  11.208 -1.5521  0.2224 -0.6412
 1962TIP3   OH227300   4.350   3.499   0.239  0.2235 -0.9138 -0.0562
 1962TIP3    H127301   4.443   3.497   0.219  0.2150  0.1490 -0.2458
 1962TIP3    H227302   4.309   3.455   0.165  0.6127 -2.1183  0.4104
 1963TIP3   OH227303   1.207   1.321  15.668  0.3874 -0.5591  0.2470
 1963TIP3    H127304   1.230   1.279  15.586 -0.7353  1.8977 -1.4479
 1963TIP3    H227305   1.126   1.278  15.696 -0.0744 -0.3787 -0.7858
 1964TIP3   OH227306   4.987   4.474  11.470 -0.2295  0.4445  0.1720
 1964TIP3    H127307   4.895   4.501  11.469 -0.7613 -1.2271  0.9269
 1964TIP3    H227308   5.029   4.533  11.533 -0.9188  0.8268  0.2761
 1965TIP3   OH227309   2.299   6.583  10.952  0.0159 -0.1335  0.8019
 1965TIP3    H127310   2.352   6.520  11.001 -0.9000 -1.4626  0.1525
 1965TIP3    H227311   2.329   6.574  10.862 -1.7845 -1.5059  0.2758
 1966TIP3   OH227312   2.207   5.715  12.083  0.2256 -0.1566 -0.4380
 1966TIP3    H127313   2.140   5.780  12.101  0.4366  0.3126 -1.3265
 1966TIP3    H227314   2.169   5.632  12.112  0.0316  0.3736  0.8838
 1967TIP3   OH227315   4.275   0.699  13.632  0.0827  0.1270 -0.0499
 1967TIP3    H127316   4.293   0.784  13.671  2.5980  0.1211 -0.9967
 1967TIP3    H227317   4.307   0.635  13.696  2.4424  0.0829 -1.1401
 1968TIP3   OH227318   3.548   6.705  14.817  0.1062 -0.2542  0.5821
 1968TIP3    H127319   3.457   6.713  14.789  0.1075 -4.0867 -1.1204
 1968TIP3    H227320   3.599   6.732  14.740  0.2429 -2.1924 -0.0667
 1969TIP3   OH227321   2.008   4.840  13.707 -0.1291 -0.1621  0.1464
 1969TIP3    H127322   2.062   4.857  13.630 -0.6140 -0.8181 -0.3435
 1969TIP3    H227323   1.918   4.839  13.674 -0.4421  0.7984  0.9348
 1970TIP3   OH227324   1.836   5.726  15.857  0.6117 -0.3116  0.0521
 1970TIP3    H127325   1.779   5.753  15.929  0.3145 -1.2464  0.1838
 1970TIP3    H227326   1.838   5.630  15.863 -0.0443 -0.4767 -1.6455
 1971TIP3   OH227327   0.805   3.625   6.263 -0.5899 -0.0898 -0.3873
 1971TIP3    H127328   0.865   3.561   6.302  0.3573  0.6382 -0.6248
 1971TIP3    H227329   0.839   3.710   6.290 -2.0395  0.3216  0.2142
 1972TIP3   OH227330   5.582   6.246   0.459  0.0666  0.6320  0.3210
 1972TIP3    H127331   5.649   6.188   0.497  1.1289  0.6887 -1.3327
 1972TIP3    H227332   5.601   6.332   0.497 -0.0097  0.3674  0.9791
 1973TIP3   OH227333   4.090   2.566   4.567 -0.3401 -0.0881 -0.0097
 1973TIP3    H127334   4.050   2.652   4.554 -2.0967 -0.5643  1.8366
 1973TIP3    H227335   4.167   2.567   4.509 -0.1120  2.8227  0.1816
 1974TIP3   OH227336   6.007   6.645   2.885 -0.2283 -0.0846  0.4589
 1974TIP3    H127337   5.969   6.581   2.824  0.7980 -0.3022  0.0320
 1974TIP3    H227338   6.089   6.605   2.913 -0.1972  0.4810  1.1984
 1975TIP3   OH227339   1.516   5.876  15.276 -0.4383 -0.3047  0.5664
 1975TIP3    H127340   1.585   5.880  15.342 -0.2767 -0.3114  0.3992
 1975TIP3    H227341   1.441   5.840  15.323 -0.7995  1.1390  1.1496
 1976TIP3   OH227342   5.628   2.893  12.691  0.2966  0.5062  0.2936
 1976TIP3    H127343   5.692   2.822  12.701  0.6417  0.6216 -1.0227
 1976TIP3    H227344   5.667   2.967  12.737  0.8300  0.4008  0.0120
 1977TIP3   OH227345   3.392   5.663   0.544  0.4700 -0.0884  0.4215
 1977TIP3    H127346   3.347   5.746   0.559 -1.3668 -0.8362 -0.7113
 1977TIP3    H227347   3.351   5.601   0.605  0.3534 -0.6427 -0.2033
 1978TIP3   OH227348   5.187   0.170   1.592  0.0905 -0.0322 -0.7832
 1978TIP3    H127349   5.233   0.227   1.530  0.1105  2.0841  1.0563
 1978TIP3    H227350   5.150   0.230   1.657  0.6252 -2.1530  1.6356
 1979TIP3   OH227351   0.190   3.834   3.164  0.0352  0.6779  0.3818
 1979TIP3    H127352   0.262   3.849   3.224  0.4312 -2.1327  0.7249
 1979TIP3    H227353   0.187   3.739   3.152 -2.7802  0.7844 -0.6396
 1980TIP3   OH227354   2.753   0.435  15.324  0.2029 -0.0287 -0.0293
 1980TIP3    H127355   2.741   0.372  15.253  0.2007  0.4155 -0.4274
 1980TIP3    H227356   2.771   0.381  15.401 -0.1361 -0.5285 -0.2937
 1981TIP3   OH227357   5.986   0.988   2.676 -0.4829  0.0382  0.4363
 1981TIP3    H127358   6.039   0.910   2.693 -2.1253 -1.2489 -0.0364
 1981TIP3    H227359   6.012   1.050   2.743  2.8010  0.1600 -0.7575
 1982TIP3   OH227360   5.956   2.482  12.296 -0.2948 -0.4599  0.3652
 1982TIP3    H127361   6.004   2.565  12.291 -2.0881  0.6778  0.9212
 1982TIP3    H227362   5.874   2.505  12.340  0.2179 -3.0493  2.9639
 1983TIP3   OH227363   5.693   3.551   0.647 -0.2185  0.4451 -0.1929
 1983TIP3    H127364   5.611   3.548   0.697 -0.1632 -0.4898 -0.1526
 1983TIP3    H227365   5.756   3.593   0.706 -1.1574  3.1361 -0.9592
 1984TIP3   OH227366   0.933   0.827  15.876  0.5528 -1.1239  0.2742
 1984TIP3    H127367   0.860   0.845  15.936 -0.3414  1.6651 -1.4611
 1984TIP3    H227368   1.010   0.862  15.919 -0.3237  2.3562 -0.6640
 1985TIP3   OH227369   5.507   3.342   4.195 -0.3597 -0.5332  0.4886
 1985TIP3    H127370   5.555   3.420   4.167  0.5946 -1.3588 -0.2518
 1985TIP3    H227371   5.415   3.363   4.180 -0.0569  0.1079 -0.5585
 1986TIP3   OH227372   1.367   5.530  11.768 -0.5099  0.7405  0.1490
 1986TIP3    H127373   1.295   5.467  11.763 -0.2311  0.4316 -0.0178
 1986TIP3    H227374   1.355   5.586  11.690  0.5242 -0.5021 -0.9499
 1987TIP3   OH227375   3.809   3.440  11.901 -0.1831  0.6781  0.0959
 1987TIP3    H127376   3.894   3.412  11.935 -1.0163  1.1443  2.8451
 1987TIP3    H227377   3.749   3.370  11.928 -1.0827  1.6114  0.5920
 1988TIP3   OH227378   3.126   6.618  12.518 -0.3951 -0.5458 -0.1323
 1988TIP3    H127379   3.153   6.710  12.522  0.2339 -0.7482  0.5784
 1988TIP3    H227380   3.079   6.603  12.600  1.4894 -1.4377  0.8562
 1989TIP3   OH227381   4.753   1.709   1.933 -0.0564 -0.2425 -0.0011
 1989TIP3    H127382   4.742   1.676   2.022  1.1208  0.2967  0.3793
 1989TIP3    H227383   4.730   1.802   1.939  1.0677  0.0581  0.0179
 1990TIP3   OH227384   5.304   5.980   4.939  0.1474  0.0192  0.0949
 1990TIP3    H127385   5.366   5.907   4.928  0.2775  0.2954 -1.2117
 1990TIP3    H227386   5.218   5.939   4.930  0.1360 -0.2873  1.4293
 1991TIP3   OH227387   1.090   6.673  10.954 -1.5778  0.3561 -0.7711
 1991TIP3    H127388   1.072   6.701  10.864 -1.9862  1.0925 -0.4724
 1991TIP3    H227389   1.170   6.622  10.948 -1.8281  0.0371 -1.6180
 1992TIP3   OH227390   3.083   3.532   4.459 -0.3676  0.0380  0.2147
 1992TIP3    H127391   3.151   3.513   4.395  0.7380 -0.4217  1.4679
 1992TIP3    H227392   3.053   3.446   4.489  1.7442  0.1300  2.9292
 1993TIP3   OH227393   5.622   3.971  13.269 -0.0234  0.2737  0.1167
 1993TIP3    H127394   5.638   3.958  13.176  0.6650 -1.4923  0.4430
 1993TIP3    H227395   5.556   4.040  13.273 -2.8587 -2.0995 -1.8264
 1994TIP3   OH227396   5.530   1.188   1.836  0.4965  0.0609 -0.3054
 1994TIP3    H127397   5.546   1.264   1.779 -1.4185 -0.2364 -1.2792
 1994TIP3    H227398   5.504   1.118   1.777  1.1591 -1.0665  0.6989
 1995TIP3   OH227399   3.989   6.456  12.586  0.2331  0.1176  0.2161
 1995TIP3    H127400   3.901   6.418  12.580  0.3312 -0.1588  0.5046
 1995TIP3    H227401   3.974   6.550  12.587 -0.1392  0.0612  1.3405
 1996TIP3   OH227402   5.549   5.968  16.312 -0.0416  1.3091 -0.0408
 1996TIP3    H127403   5.643   5.954  16.298 -0.6828 -0.2200 -3.9279
 1996TIP3    H227404   5.531   6.053  16.273 -0.4531  1.0781 -0.3607
 1997TIP3   OH227405   0.444   6.127  13.738 -0.1725 -0.1643 -0.0995
 1997TIP3    H127406   0.410   6.102  13.823 -0.5363 -0.5717 -0.3577
 1997TIP3    H227407   0.411   6.216  13.724 -0.6674 -0.3418 -0.0966
 1998TIP3   OH227408   1.423   1.534   1.912  0.0777  0.5701 -0.2313
 1998TIP3    H127409   1.489   1.469   1.889  0.5170  0.3894  1.3745
 1998TIP3    H227410   1.420   1.594   1.838 -1.2845 -1.9533 -2.4138
 1999TIP3   OH227411   0.284   0.799   0.388  0.1987 -0.4557 -0.3018
 1999TIP3    H127412   0.365   0.755   0.362  0.5550  0.3355 -0.5522
 1999TIP3    H227413   0.216   0.732   0.377  0.6429 -0.7746 -1.2118
 2000TIP3   OH227414   5.441   3.809   3.928 -0.1905 -0.0256  0.0579
 2000TIP3    H127415   5.525   3.846   3.902 -1.2782  2.0373 -0.6940
 2000TIP3    H227416   5.417   3.857   4.007 -0.2611 -1.2607  0.8203
 2001TIP3   OH227417   1.241   3.627  14.845  0.1768  0.1875  0.0315
 2001TIP3    H127418   1.267   3.718  14.827  0.7900  0.2694  1.2158
 2001TIP3    H227419   1.220   3.591  14.759 -0.3204  1.5198 -0.4397
 2002TIP3   OH227420   0.378   2.607  15.853  0.5515 -0.0981 -0.6185
 2002TIP3    H127421   0.433   2.531  15.834  0.6492 -0.3396  0.5829
 2002TIP3    H227422   0.433   2.664  15.905 -0.2617 -0.2610  0.4490
 2003TIP3   OH227423   2.239   3.153  13.822 -0.1791  0.1131 -0.1201
 2003TIP3    H127424   2.169   3.206  13.783  0.1950 -0.4307 -1.6000
 2003TIP3    H227425   2.195   3.101  13.890 -1.2258 -0.2559 -1.0547
 2004TIP3   OH227426   5.809   2.138   0.055 -0.5454  0.6266  0.1557
 2004TIP3    H127427   5.869   2.133   0.129 -0.9895 -1.1415  0.4263
 2004TIP3    H227428   5.863   2.164  -0.019  0.1856  0.9079  0.7801
 2005TIP3   OH227429   0.128   3.840  12.787 -0.1345  0.4860 -0.0187
 2005TIP3    H127430   0.060   3.855  12.853 -0.2837  0.7368 -0.2263
 2005TIP3    H227431   0.183   3.918  12.792 -0.5504  0.8236 -0.6732
 2006TIP3   OH227432   5.160   3.560  13.802  0.1690  0.4599  0.2187
 2006TIP3    H127433   5.199   3.519  13.879  1.9162 -1.0959 -1.3828
 2006TIP3    H227434   5.233   3.571  13.741 -1.4144 -0.1543 -1.9343
 2007TIP3   OH227435   1.102   6.088  13.719  0.5015 -0.2972  0.1474
 2007TIP3    H127436   1.190   6.122  13.704  0.7305 -0.0453  1.8553
 2007TIP3    H227437   1.116   6.001  13.757  0.0095 -0.3119  0.2986
 2008TIP3   OH227438   3.525   2.354   4.514 -0.2416  0.5258  0.0361
 2008TIP3    H127439   3.432   2.332   4.507 -0.3191  1.1193 -1.1504
 2008TIP3    H227440   3.527   2.429   4.574 -0.8401  2.0606 -1.7591
 2009TIP3   OH227441   6.619   0.669  15.680  0.0445  0.6090 -0.1398
 2009TIP3    H127442   6.632   0.626  15.764  1.3584  0.2198 -0.5192
 2009TIP3    H227443   6.655   0.607  15.616  0.4120  1.5372 -0.8502
 2010TIP3   OH227444   0.066   0.397   5.690  0.4449  0.2914 -0.7940
 2010TIP3    H127445   0.121   0.459   5.737  1.0134  0.0317 -1.1066
 2010TIP3    H227446   0.038   0.334   5.756  0.1460  0.6794 -0.5441
 2011TIP3   OH227447   3.345   0.967  16.275 -0.4132  0.0929  0.1500
 2011TIP3    H127448   3.327   0.952  16.182 -0.7907 -1.4513  0.4380
 2011TIP3    H227449   3.286   1.039  16.300  0.0114  0.8174 -0.8879
 2012TIP3   OH227450   1.996   6.306   0.927  0.2067 -0.0948  0.1066
 2012TIP3    H127451   1.954   6.221   0.915 -1.0071  0.3562  1.0179
 2012TIP3    H227452   1.956   6.362   0.859 -0.1892  0.1588  0.5435
 2013TIP3   OH227453   1.562   1.947  12.484 -0.6549  0.1135  0.0453
 2013TIP3    H127454   1.619   1.873  12.501  1.0004  1.4083  0.4217
 2013TIP3    H227455   1.513   1.923  12.405 -0.1872 -1.3582  0.1785
 2014TIP3   OH227456   4.620   2.615  13.908  0.0594  0.1624  0.2397
 2014TIP3    H127457   4.636   2.654  13.822  1.0706  1.0792  0.8266
 2014TIP3    H227458   4.638   2.685  13.970  0.3826 -0.7962  1.2550
 2015TIP3   OH227459   4.235   2.879  11.492  0.3538 -0.5908  0.4896
 2015TIP3    H127460   4.195   2.882  11.579 -1.0190 -0.9682 -0.0866
 2015TIP3    H227461   4.323   2.845  11.507  1.2577  2.1307  2.0693
 2016TIP3   OH227462   1.096   2.728  11.845  0.0296 -0.0802 -0.5210
 2016TIP3    H127463   1.028   2.778  11.801  0.0417  0.1017 -0.3333
 2016TIP3    H227464   1.177   2.777  11.829 -0.2364  1.0389  1.2950
 2017TIP3   OH227465   1.049   6.404   1.398  0.1251 -0.0660 -0.4981
 2017TIP3    H127466   1.102   6.472   1.357 -0.8161  0.7796 -0.3465
 2017TIP3    H227467   1.082   6.398   1.488 -0.4520  0.9226 -0.2087
 2018TIP3   OH227468   4.973   0.177  17.094 -0.1504  0.1200 -0.4240
 2018TIP3    H127469   5.060   0.144  17.073 -1.1855 -1.9188 -1.8561
 2018TIP3    H227470   4.928   0.181  17.010 -1.4900  1.0767  0.2910
 2019TIP3   OH227471   6.434   4.218   6.181 -0.2488 -0.8311  0.3143
 2019TIP3    H127472   6.376   4.237   6.255 -0.0424  1.8790 -0.1035
 2019TIP3    H227473   6.378   4.172   6.118 -0.9198 -1.5281  1.4020
 2020TIP3   OH227474   2.849   3.093  11.966 -0.4383 -0.2947 -0.2690
 2020TIP3    H127475   2.940   3.106  11.940  0.6455 -3.2209  1.6307
 2020TIP3    H227476   2.842   3.133  12.052 -1.2779  0.7588 -0.7961
 2021TIP3   OH227477   5.595   2.177   5.230 -0.0399 -0.0770  0.6426
 2021TIP3    H127478   5.635   2.192   5.315  1.0046  1.8309 -0.1118
 2021TIP3    H227479   5.512   2.223   5.233 -2.0798 -3.4953  1.9803
 2022TIP3   OH227480   0.529   0.240  12.036  0.2814  0.3201  0.5136
 2022TIP3    H127481   0.584   0.311  12.069  1.9113 -0.8067  0.2798
 2022TIP3    H227482   0.590   0.178  11.997 -1.3071  0.1213 -1.8683
 2023TIP3   OH227483   4.088   4.712  16.709  0.3712 -0.2859 -0.3802
 2023TIP3    H127484   4.168   4.764  16.719  0.4414 -0.1242 -1.6778
 2023TIP3    H227485   4.116   4.622  16.724  0.4466 -0.0806  0.8513
 2024TIP3   OH227486   4.400   4.606   6.020 -0.6801 -0.3504 -0.2726
 2024TIP3    H127487   4.446   4.657   5.954 -1.0596  0.0967 -0.1995
 2024TIP3    H227488   4.449   4.524   6.026  0.3829  0.2903  0.1382
 2025TIP3   OH227489   0.091   6.047  17.158 -0.1129  0.1463  0.3827
 2025TIP3    H127490   0.117   6.091  17.077  0.3663  0.4422  0.6869
 2025TIP3    H227491   0.010   6.001  17.136 -0.0093  0.2560 -0.2510
 2026TIP3   OH227492   1.372   2.262  16.875 -0.7107 -0.0808  0.1224
 2026TIP3    H127493   1.403   2.182  16.834  0.9987  0.5261  0.1837
 2026TIP3    H227494   1.393   2.251  16.968  0.0178  0.6434  0.0527
 2027TIP3   OH227495   6.746   1.757   4.353 -0.5697  0.3809 -0.2619
 2027TIP3    H127496   6.835   1.727   4.372 -1.2840 -1.7768 -0.0033
 2027TIP3    H227497   6.724   1.815   4.426  0.6966  1.1523 -0.4667
 2028TIP3   OH227498   6.331   4.965   1.148 -0.2498 -0.3443 -0.3729
 2028TIP3    H127499   6.289   5.015   1.078  1.6796 -0.7625 -1.9040
 2028TIP3    H227500   6.390   5.028   1.190 -1.5981 -0.0166  1.1446
 2029TIP3   OH227501   1.920   4.018   1.615 -0.6473 -0.2249 -0.2779
 2029TIP3    H127502   1.830   4.022   1.649 -1.0283 -2.5559 -0.8179
 2029TIP3    H227503   1.964   3.956   1.673  0.8159  1.2917  0.2948
 2030TIP3   OH227504   1.736   3.999  15.476 -0.1695  0.2594  0.7704
 2030TIP3    H127505   1.825   3.992  15.512  0.8762  1.3167 -1.4233
 2030TIP3    H227506   1.703   3.909  15.477  2.2384 -0.7729 -1.3944
 2031TIP3   OH227507   3.265   0.649  15.621 -0.5267  0.6719 -0.2050
 2031TIP3    H127508   3.200   0.628  15.688  0.9195  1.4641  1.5708
 2031TIP3    H227509   3.232   0.728  15.579 -0.8662  0.8893  0.4607
 2032TIP3   OH227510   2.691   4.520  11.480 -0.5188 -0.1170  0.1651
 2032TIP3    H127511   2.742   4.506  11.400  1.1879  1.8698  0.8262
 2032TIP3    H227512   2.678   4.615  11.484 -1.2745 -0.2561  1.8254
 2033TIP3   OH227513   1.610   1.481   6.565  0.0434  0.4525  0.0032
 2033TIP3    H127514   1.533   1.444   6.521  0.1928  0.7077 -0.4806
 2033TIP3    H227515   1.577   1.515   6.648  0.0382 -1.5411  0.8954
 2034TIP3   OH227516   6.773   1.081   3.373 -0.1890  0.0579  0.2865
 2034TIP3    H127517   6.753   1.155   3.431 -2.4907 -0.2639 -0.0290
 2034TIP3    H227518   6.737   1.106   3.288  2.2668  0.0899 -0.8393
 2035TIP3   OH227519   0.526   5.285   3.900 -0.2429 -0.0388 -0.0752
 2035TIP3    H127520   0.575   5.363   3.874 -2.2738  1.3755  0.0733
 2035TIP3    H227521   0.495   5.247   3.818  0.4974 -0.5473 -0.1301
 2036TIP3   OH227522   4.921   1.360   2.748 -1.0524  0.0338  0.0990
 2036TIP3    H127523   4.922   1.308   2.668 -0.4962 -1.0871  0.8130
 2036TIP3    H227524   4.862   1.433   2.728 -1.8117 -0.8289 -0.9405
 2037TIP3   OH227525   1.876   0.361   2.220 -0.2912 -0.4717  0.2370
 2037TIP3    H127526   1.902   0.270   2.232 -0.7105 -0.5549  0.5426
 2037TIP3    H227527   1.782   0.357   2.204 -0.3314 -0.0838  0.3635
 2038TIP3   OH227528   0.677   5.857  16.435 -0.0119  0.1073 -0.1552
 2038TIP3    H127529   0.641   5.805  16.363  2.0821  0.2303 -1.3767
 2038TIP3    H227530   0.704   5.792  16.500 -1.5638 -0.0267  0.3964
 2039TIP3   OH227531   5.417   6.064   3.561 -0.2681 -0.1852  0.0900
 2039TIP3    H127532   5.498   6.046   3.514  0.1028 -0.8580  0.9449
 2039TIP3    H227533   5.446   6.084   3.651 -0.8361  2.5776 -0.2615
 2040TIP3   OH227534   3.003   1.366  14.127 -0.1213 -0.5522  0.1463
 2040TIP3    H127535   2.945   1.313  14.073 -0.4251  0.8977 -0.9864
 2040TIP3    H227536   3.003   1.322  14.212  0.8923 -3.2733 -1.1356
 2041TIP3   OH227537   5.272   5.779  14.446 -0.5096 -0.0684 -0.0771
 2041TIP3    H127538   5.294   5.837  14.518  1.3882 -1.1926  0.3110
 2041TIP3    H227539   5.318   5.815  14.370 -0.7479 -0.0943 -0.2356
 2042TIP3   OH227540   2.449   6.475  14.901 -0.0677 -0.0544 -0.5698
 2042TIP3    H127541   2.393   6.533  14.850 -0.9975 -1.7569 -1.6027
 2042TIP3    H227542   2.508   6.436  14.836  1.5969  0.8422  0.3319
 2043TIP3   OH227543   3.026   6.230   6.228  0.1540  0.0139 -0.1123
 2043TIP3    H127544   2.944   6.215   6.273 -0.6185  1.9510 -0.7582
 2043TIP3    H227545   3.042   6.150   6.178 -1.4816 -0.2841 -0.1890
 2044TIP3   OH227546   1.446   1.570  13.688  0.1045  0.0136  0.4737
 2044TIP3    H127547   1.383   1.632  13.724  1.6961  1.7272  0.4403
 2044TIP3    H227548   1.503   1.547  13.761  1.1011  0.6269 -0.0951
 2045TIP3   OH227549   6.209   3.278   4.122 -0.1706  0.0384 -0.2050
 2045TIP3    H127550   6.146   3.313   4.185 -0.5327 -1.4834  0.3060
 2045TIP3    H227551   6.242   3.198   4.162  2.4067  0.9819 -0.3020
 2046TIP3   OH227552   1.929   5.954   4.762 -0.1748  0.4274 -0.6266
 2046TIP3    H127553   2.011   5.933   4.807 -1.5886 -2.1433  0.9989
 2046TIP3    H227554   1.897   5.870   4.731 -1.3974  1.6128 -2.7443
 2047TIP3   OH227555   0.301   4.332  11.371 -0.4473 -0.2585 -0.1109
 2047TIP3    H127556   0.375   4.391  11.360 -0.3933 -0.1769  0.6332
 2047TIP3    H227557   0.228   4.376  11.328 -0.3232  0.1861  0.1308
 2048TIP3   OH227558   5.950   5.310  14.711 -0.2473 -0.1160  0.5471
 2048TIP3    H127559   5.964   5.403  14.730 -0.5860  0.0316  0.0868
 2048TIP3    H227560   5.862   5.306  14.675  0.4422 -0.3379 -1.2251
 2049TIP3   OH227561   4.814   3.014  16.339 -0.0921  0.0021  0.2089
 2049TIP3    H127562   4.729   3.050  16.362  0.7413  2.3255  0.0197
 2049TIP3    H227563   4.828   3.041  16.249  0.5981 -0.8647  0.0425
 2050TIP3   OH227564   5.980   0.541   3.379 -0.4420 -0.6197 -0.4015
 2050TIP3    H127565   5.952   0.557   3.469  0.7677 -0.0192 -0.1097
 2050TIP3    H227566   5.899   0.542   3.328 -1.1467 -1.0148  0.6766
 2051TIP3   OH227567   6.168   0.608   1.879 -0.3958 -0.8034 -0.3822
 2051TIP3    H127568   6.074   0.620   1.889 -0.6918 -2.0742 -1.5114
 2051TIP3    H227569   6.206   0.659   1.952 -2.0313 -2.3533  1.6877
 2052TIP3   OH227570   6.614   5.852   4.613  0.0179  0.3948  0.0648
 2052TIP3    H127571   6.549   5.923   4.607 -0.3093  0.0824 -0.0885
 2052TIP3    H227572   6.693   5.896   4.645 -0.9991  0.3521  2.9726
 2053TIP3   OH227573   3.333   2.602  11.934  0.0299 -1.0161 -0.2767
 2053TIP3    H127574   3.312   2.564  12.019  0.0561  1.1202  0.7517
 2053TIP3    H227575   3.272   2.676  11.924  0.4896 -0.7929 -1.7929
 2054TIP3   OH227576   2.578   4.700  16.489  0.3769 -0.1724  0.3838
 2054TIP3    H127577   2.538   4.686  16.404  0.0633  0.0168  0.4962
 2054TIP3    H227578   2.506   4.729  16.545  0.7292  0.4780  0.5123
 2055TIP3   OH227579   0.349   3.321   2.111  0.2109  0.1808 -0.3499
 2055TIP3    H127580   0.380   3.348   2.197  0.8749  0.1489 -0.5782
 2055TIP3    H227581   0.259   3.290   2.126  0.4110 -0.0569  0.3686
 2056TIP3   OH227582   1.283   0.567  13.757 -0.0130  0.5114 -0.1173
 2056TIP3    H127583   1.201   0.518  13.748  0.7753 -0.6054 -1.8340
 2056TIP3    H227584   1.288   0.589  13.850 -0.7994 -2.0574  0.6159
 2057TIP3   OH227585   3.360   6.206   4.472  0.4131  0.4571 -0.3664
 2057TIP3    H127586   3.297   6.264   4.430  0.7236  0.8551 -0.2880
 2057TIP3    H227587   3.383   6.142   4.404  0.0106  0.3739 -0.4279
 2058TIP3   OH227588   2.999   2.992   3.260 -0.0720  0.1671  0.0506
 2058TIP3    H127589   2.933   2.924   3.270  0.3242 -0.4783 -1.3921
 2058TIP3    H227590   2.985   3.026   3.172 -0.4574  2.2027  0.8560
 2059TIP3   OH227591   0.691   4.981  14.343 -0.0449 -0.0259 -0.5923
 2059TIP3    H127592   0.746   5.046  14.297  2.1314 -0.4559  1.2157
 2059TIP3    H227593   0.629   5.034  14.394  1.1093  0.6573  0.1548
 2060TIP3   OH227594   1.460   4.989   3.866 -0.6424  0.1572  0.2925
 2060TIP3    H127595   1.544   5.028   3.841 -0.6125  1.6585  2.4250
 2060TIP3    H227596   1.395   5.055   3.841 -0.9631 -0.0928  0.4640
 2061TIP3   OH227597   1.872   6.669   1.321 -0.0213  0.7972 -0.3438
 2061TIP3    H127598   1.836   6.620   1.395  0.2317  0.4920 -0.4199
 2061TIP3    H227599   1.870   6.606   1.249 -0.1134  1.0432 -0.5563
 2062TIP3   OH227600   2.215   6.422  16.181 -0.2030 -0.0897 -0.2212
 2062TIP3    H127601   2.215   6.471  16.098 -3.2253 -3.6305 -2.6569
 2062TIP3    H227602   2.145   6.462  16.232 -1.4338 -0.6516 -1.4048
 2063TIP3   OH227603   1.319   4.933  11.769  0.1113  0.1014 -0.0153
 2063TIP3    H127604   1.313   4.839  11.751  0.3544  0.0242  0.2936
 2063TIP3    H227605   1.245   4.952  11.826 -0.2259  0.2003 -0.4721
 2064TIP3   OH227606   2.396   2.625   5.919  0.1658 -0.2842 -0.0652
 2064TIP3    H127607   2.437   2.538   5.912 -0.4984 -0.6109  0.0174
 2064TIP3    H227608   2.414   2.653   6.008  0.7622 -0.1397 -0.2255
 2065TIP3   OH227609   0.778   4.270   5.506 -0.2803 -0.0570 -0.4331
 2065TIP3    H127610   0.846   4.313   5.558  0.1832  0.9978 -1.8796
 2065TIP3    H227611   0.772   4.182   5.544  1.3010  0.0973  0.2591
 2066TIP3   OH227612   5.746   4.976   1.104  0.7625  0.2534 -0.6276
 2066TIP3    H127613   5.771   4.890   1.137 -1.6349 -0.6302 -0.9727
 2066TIP3    H227614   5.703   5.019   1.178 -0.2829  0.1669 -1.1780
 2067TIP3   OH227615   3.324   1.499  11.525 -0.3651 -0.1399  0.4315
 2067TIP3    H127616   3.347   1.459  11.609  1.0845 -1.0195 -0.3388
 2067TIP3    H227617   3.229   1.503  11.526 -0.4540 -1.5947  1.4711
 2068TIP3   OH227618   2.800   5.878  12.998  0.4586 -0.1639 -0.6086
 2068TIP3    H127619   2.796   5.787  12.967 -3.5037 -0.6335  0.7319
 2068TIP3    H227620   2.850   5.872  13.080 -2.2128 -1.8692  1.0733
 2069TIP3   OH227621   3.898   4.426   4.376  0.7149 -0.3577  0.1696
 2069TIP3    H127622   3.867   4.391   4.459 -2.1183 -1.0469 -1.0449
 2069TIP3    H227623   3.992   4.406   4.375  0.5855 -1.4472  2.6283
 2070TIP3   OH227624   0.269   0.468   2.148 -0.4137 -0.4171 -0.2563
 2070TIP3    H127625   0.335   0.482   2.216  0.1073 -1.8174 -0.4505
 2070TIP3    H227626   0.235   0.380   2.165 -0.3789 -0.7387 -1.7120
 2071TIP3   OH227627   2.292   1.470  14.256  0.1079  0.3193  0.0109
 2071TIP3    H127628   2.331   1.403  14.313  1.1752  0.5175 -0.4581
 2071TIP3    H227629   2.367   1.509  14.211 -0.7421 -0.4381 -2.2122
 2072TIP3   OH227630   6.597   0.488   3.472  0.0006 -0.4423 -0.5330
 2072TIP3    H127631   6.633   0.400   3.465 -1.0356 -1.0668  1.3133
 2072TIP3    H227632   6.613   0.513   3.563 -1.2414  0.5844 -0.5756
 2073TIP3   OH227633   0.908   6.471   4.205  0.3858 -0.3371  0.3176
 2073TIP3    H127634   0.989   6.420   4.195  0.8962  0.3615  0.7835
 2073TIP3    H227635   0.938   6.561   4.220 -0.4983  0.2424 -1.1536
 2074TIP3   OH227636   1.840   4.467   2.897 -0.4882 -0.0127 -0.1520
 2074TIP3    H127637   1.923   4.426   2.922 -1.1674 -0.7020  1.0765
 2074TIP3    H227638   1.773   4.404   2.922 -1.4528  1.0385  0.0118
 2075TIP3   OH227639   5.147   6.034  12.333  0.5950 -0.3445 -0.0904
 2075TIP3    H127640   5.177   6.056  12.245 -0.5839  0.2026 -0.3698
 2075TIP3    H227641   5.145   6.117  12.380  0.3834 -0.5036  0.1912
 2076TIP3   OH227642   4.285   4.106  16.148 -0.4870  0.4025  0.9418
 2076TIP3    H127643   4.327   4.186  16.117 -0.7213  0.2333  0.1632
 2076TIP3    H227644   4.192   4.118  16.126 -0.7691  0.5426  2.1510
 2077TIP3   OH227645   5.901   2.156   5.403  0.2545  0.2508 -0.5154
 2077TIP3    H127646   5.939   2.072   5.429 -0.7450  0.1900  0.8656
 2077TIP3    H227647   5.819   2.161   5.452 -0.4758  1.3348 -1.7852
 2078TIP3   OH227648   5.269   6.047   2.210 -0.3174  0.2263 -0.0383
 2078TIP3    H127649   5.260   6.141   2.222  1.5452  0.6367 -1.4136
 2078TIP3    H227650   5.295   6.037   2.118 -2.1622 -1.7788 -0.4398
 2079TIP3   OH227651   0.024   4.591   5.651  0.0345 -0.0458 -0.8422
 2079TIP3    H127652   0.109   4.591   5.607  1.3587 -0.0078  1.5857
 2079TIP3    H227653   0.019   4.676   5.694 -1.6890  0.3171 -1.6673
 2080TIP3   OH227654   4.892   0.766  14.216  0.5601  0.2913  0.1160
 2080TIP3    H127655   4.923   0.766  14.125  0.1067  0.2959 -0.0373
 2080TIP3    H227656   4.806   0.806  14.213 -1.4646 -3.6198 -0.1626
 2081TIP3   OH227657   4.179   3.407   4.643 -0.2267  0.0444  0.3279
 2081TIP3    H127658   4.193   3.502   4.646 -0.4459  0.1093 -0.3800
 2081TIP3    H227659   4.118   3.389   4.715  0.5080  0.3065  1.0234
 2082TIP3   OH227660   6.631   0.298  12.960  0.0049 -0.2556 -0.3729
 2082TIP3    H127661   6.599   0.213  12.988  0.0742 -0.0112  0.4776
 2082TIP3    H227662   6.725   0.287  12.952  0.8665  0.9550  4.7265
 2083TIP3   OH227663   5.252   2.462   3.395  0.8923 -0.1763  0.0672
 2083TIP3    H127664   5.179   2.524   3.400  0.5263 -0.5455 -0.5676
 2083TIP3    H227665   5.283   2.469   3.305 -0.4679 -2.3533 -0.6418
 2084TIP3   OH227666   3.108   0.461  15.411  0.3164  0.1330 -0.2009
 2084TIP3    H127667   3.060   0.410  15.476  1.4568 -0.6776  0.0274
 2084TIP3    H227668   3.180   0.501  15.460 -0.0762  1.2882 -0.5470
 2085TIP3   OH227669   4.879   6.076   0.015  0.4452 -0.4981 -0.3109
 2085TIP3    H127670   4.939   6.105  -0.054  0.0353  1.8718  0.2333
 2085TIP3    H227671   4.872   6.151   0.074 -0.6581 -1.8064  1.3252
 2086TIP3   OH227672   0.773   4.558   3.033 -0.3205  0.0101  0.3754
 2086TIP3    H127673   0.813   4.539   3.118  0.5214 -0.6008 -0.1370
 2086TIP3    H227674   0.679   4.563   3.050 -0.1146  0.3936  1.4280
 2087TIP3   OH227675   2.734   0.852   6.614  0.1217  0.5948  0.1904
 2087TIP3    H127676   2.790   0.900   6.553 -1.6700  0.6214 -1.5652
 2087TIP3    H227677   2.701   0.920   6.674  0.4898  0.9092  0.0380
 2088TIP3   OH227678   0.088   4.396  14.120 -0.3843  0.0356 -0.6375
 2088TIP3    H127679   0.151   4.325  14.133 -2.0606 -1.2262  1.4436
 2088TIP3    H227680   0.131   4.474  14.155  0.4126 -0.5717 -0.2500
 2089TIP3   OH227681   2.721   2.620  14.209 -0.3244  0.2243  0.3102
 2089TIP3    H127682   2.778   2.635  14.134  0.0566  2.8297  1.0361
 2089TIP3    H227683   2.781   2.598  14.281 -0.5360 -0.3510  0.3181
 2090TIP3   OH227684   4.408   6.405  10.679 -0.4662  0.5849  0.3472
 2090TIP3    H127685   4.429   6.412  10.585 -0.7590  0.2285  0.2540
 2090TIP3    H227686   4.476   6.346  10.713  0.0672  1.2746  0.5049
 2091TIP3   OH227687   4.923   4.285  14.276 -0.1180  0.2309 -0.7329
 2091TIP3    H127688   4.894   4.269  14.187 -0.0379 -1.6824 -0.4444
 2091TIP3    H227689   4.842   4.297  14.326 -0.1559  2.3454 -1.1692
 2092TIP3   OH227690   3.868   2.790  11.860  0.7200  0.3928 -0.0077
 2092TIP3    H127691   3.956   2.777  11.823 -0.2413 -1.9549 -1.7591
 2092TIP3    H227692   3.836   2.701  11.876 -1.2451  1.2023  0.8339
 2093TIP3   OH227693   6.319   5.751   5.039 -0.4960  0.4118  0.7104
 2093TIP3    H127694   6.290   5.811   4.971 -1.0990  1.8605  2.1855
 2093TIP3    H227695   6.414   5.751   5.032 -0.5896 -0.8164 -1.2048
 2094TIP3   OH227696   2.936   1.138  14.680 -0.1399 -0.2735  0.6473
 2094TIP3    H127697   3.027   1.120  14.703  0.3403  0.1042 -0.8210
 2094TIP3    H227698   2.891   1.146  14.764  0.7925 -2.2592  1.3902
 2095TIP3   OH227699   5.357   4.923  11.444  0.0898  0.4305 -0.5057
 2095TIP3    H127700   5.303   4.848  11.420  0.6470  0.3242 -1.4967
 2095TIP3    H227701   5.431   4.885  11.492 -0.2729  0.4897  0.1120
 2096TIP3   OH227702   6.507   5.875  10.839  0.3050 -0.0566  0.8315
 2096TIP3    H127703   6.482   5.959  10.800  0.4770 -0.4967 -0.2874
 2096TIP3    H227704   6.552   5.898  10.920  0.0137  0.9108  0.7320
 2097TIP3   OH227705   5.387   0.389   3.999  0.3995 -0.3573  0.0393
 2097TIP3    H127706   5.293   0.372   3.988 -0.1119  2.6590 -1.1047
 2097TIP3    H227707   5.391   0.473   4.044  2.6092 -0.9141  1.0196
 2098TIP3   OH227708   0.151   3.844  15.978  0.4048 -0.6098 -0.3358
 2098TIP3    H127709   0.216   3.793  15.930  1.7979  1.2385 -0.5305
 2098TIP3    H227710   0.202   3.894  16.042 -1.0320 -0.4083  0.6933
 2099TIP3   OH227711   0.920   6.712  10.682  0.2419  0.1328  0.1768
 2099TIP3    H127712   0.846   6.663  10.647 -0.8412  1.7267  0.1168
 2099TIP3    H227713   0.881   6.792  10.717  2.0385  1.3981 -0.5783
 2100TIP3   OH227714   4.631   1.550   4.436 -0.1665  0.4315  0.5750
 2100TIP3    H127715   4.696   1.619   4.425 -0.9607  1.6860  3.0397
 2100TIP3    H227716   4.627   1.536   4.531 -2.5485 -0.5317  0.3943
 2101TIP3   OH227717   3.660   1.501  13.709 -0.4502 -0.7346  0.0034
 2101TIP3    H127718   3.752   1.518  13.689 -0.9054  1.4713 -0.4801
 2101TIP3    H227719   3.649   1.406  13.696  1.0284 -0.6174 -3.0573
 2102TIP3   OH227720   1.083   4.816   0.605 -0.3643 -0.3685  0.6006
 2102TIP3    H127721   1.072   4.761   0.527 -1.9696 -2.3330  2.1070
 2102TIP3    H227722   1.176   4.811   0.625  0.3728  1.2860 -1.8767
 2103TIP3   OH227723   4.746   0.565  12.422 -0.4455 -0.0253 -0.2347
 2103TIP3    H127724   4.654   0.538  12.424 -0.4691 -0.0455 -1.2836
 2103TIP3    H227725   4.744   0.659  12.407 -0.3886  0.9389  4.2993
 2104TIP3   OH227726   0.657   3.354   2.917 -0.4310  0.1279 -0.2853
 2104TIP3    H127727   0.594   3.306   2.864 -0.7082 -0.1939  0.3243
 2104TIP3    H227728   0.646   3.319   3.006  1.5277 -0.9020 -0.3848
 2105TIP3   OH227729   1.752   5.024  12.924  0.0451  1.0836 -0.4079
 2105TIP3    H127730   1.680   5.064  12.875  1.2908  1.7861 -1.7405
 2105TIP3    H227731   1.828   5.077  12.903  0.8997  0.6200  1.3197
 2106TIP3   OH227732   4.187   5.728  10.883  0.6223  0.4691  0.0306
 2106TIP3    H127733   4.196   5.823  10.890  0.7041  0.4399  0.3002
 2106TIP3    H227734   4.216   5.708  10.794  2.4543  0.4820  0.5881
 2107TIP3   OH227735   5.392   4.985  17.083  0.8006  0.1575 -0.7416
 2107TIP3    H127736   5.368   4.964  16.993 -0.1149 -1.0213 -0.2614
 2107TIP3    H227737   5.488   4.988  17.082  0.8374 -0.7327 -1.5713
 2108TIP3   OH227738   1.164   1.270   2.595 -0.3414 -0.5048  0.4474
 2108TIP3    H127739   1.231   1.203   2.612 -0.6286 -1.3678 -1.5699
 2108TIP3    H227740   1.094   1.250   2.658  0.3515 -0.9537  1.0963
 2109TIP3   OH227741   1.572   6.347   4.466 -0.2101  0.2806 -0.3031
 2109TIP3    H127742   1.548   6.274   4.524  2.3754 -1.2138 -0.9354
 2109TIP3    H227743   1.552   6.426   4.517  0.5109 -0.9388  2.0470
 2110TIP3   OH227744   5.078   4.623   1.206 -0.3128  0.1848 -0.1432
 2110TIP3    H127745   5.169   4.592   1.202 -0.3796 -0.1404  0.5891
 2110TIP3    H227746   5.048   4.597   1.293 -1.0015  0.5983 -0.2474
 2111TIP3   OH227747   4.256   6.786   1.810 -0.8038  0.3201 -0.1750
 2111TIP3    H127748   4.241   6.701   1.850  2.0529 -0.1461  0.1228
 2111TIP3    H227749   4.213   6.849   1.868 -0.8337 -0.7299  0.9776
 2112TIP3   OH227750   1.821   1.478  14.351  0.0772 -0.1879 -0.0823
 2112TIP3    H127751   1.887   1.547  14.357 -1.7703  1.6685  0.1397
 2112TIP3    H227752   1.865   1.406  14.305  2.0840  1.1133 -0.3199
 2113TIP3   OH227753   4.818   5.104  14.667 -0.2029  0.3505 -0.0021
 2113TIP3    H127754   4.872   5.081  14.742  0.3620  1.3446 -0.0750
 2113TIP3    H227755   4.771   5.183  14.695 -0.9134  0.0225 -0.2645
 2114TIP3   OH227756   3.501   3.558  10.376  0.3505  0.2609  0.1677
 2114TIP3    H127757   3.428   3.506  10.409 -0.5925  0.9356 -0.8204
 2114TIP3    H227758   3.528   3.515  10.295  0.1886  0.7570 -0.1545
 2115TIP3   OH227759   5.274   0.634   4.557 -0.6831  0.3586  0.8718
 2115TIP3    H127760   5.223   0.570   4.607 -2.1085  0.0358 -0.8849
 2115TIP3    H227761   5.219   0.655   4.482  1.4596  0.5781 -0.7410
 2116TIP3   OH227762   2.359   6.503  10.427  0.3848 -0.2386  0.3058
 2116TIP3    H127763   2.439   6.458  10.455  0.3579 -0.4930 -0.0239
 2116TIP3    H227764   2.308   6.436  10.382  1.4230  0.6686 -2.4175
 2117TIP3   OH227765   0.725   0.629   5.725 -0.1767  0.2930 -0.1559
 2117TIP3    H127766   0.737   0.656   5.816 -0.4961  2.5001 -0.7200
 2117TIP3    H227767   0.805   0.656   5.680 -0.3239 -0.1111 -0.6799
 2118TIP3   OH227768   6.168   5.498   4.776 -0.0813 -0.0566 -0.1269
 2118TIP3    H127769   6.188   5.493   4.683  0.6446 -1.6386  0.0766
 2118TIP3    H227770   6.140   5.409   4.799 -1.9557  0.7304  0.8103
 2119TIP3   OH227771   4.048   3.702   1.949  0.5999  0.5808  0.4687
 2119TIP3    H127772   3.975   3.763   1.936 -1.3542 -2.0866 -2.9404
 2119TIP3    H227773   4.012   3.634   2.006  2.1669  1.5339  2.7533
 2120TIP3   OH227774   3.693   3.711  13.688 -0.0709  0.1869  0.3887
 2120TIP3    H127775   3.626   3.643  13.682  1.2750 -1.0992 -1.8046
 2120TIP3    H227776   3.775   3.662  13.702  0.7194  1.5013  0.5076
 2121TIP3   OH227777   5.843   1.236   2.841 -0.1034  0.4666 -0.5025
 2121TIP3    H127778   5.935   1.255   2.855  0.5234  1.1465 -4.3296
 2121TIP3    H227779   5.810   1.312   2.792 -2.2125 -0.5538 -0.7795
 2122TIP3   OH227780   5.537   2.961  11.485 -0.1332 -0.1562  0.0471
 2122TIP3    H127781   5.478   2.890  11.461  0.9631 -1.1881  0.2781
 2122TIP3    H227782   5.518   3.031  11.423 -2.6982  0.2011  1.0906
 2123TIP3   OH227783   6.194   0.655  13.194 -0.0900 -0.2385  0.2011
 2123TIP3    H127784   6.126   0.685  13.253  0.5715  1.5553  0.1141
 2123TIP3    H227785   6.276   0.685  13.233  0.4599 -0.1662 -0.9531
 2124TIP3   OH227786   4.512   0.653  15.940  0.4160 -0.2081  0.6726
 2124TIP3    H127787   4.475   0.718  15.881 -2.1095  0.2232  2.5348
 2124TIP3    H227788   4.603   0.680  15.951 -0.0390  1.8861 -0.1267
 2125TIP3   OH227789   5.116   4.056   1.385 -0.3567 -0.2591  0.0711
 2125TIP3    H127790   5.136   3.965   1.407  1.0954 -0.5372 -2.1233
 2125TIP3    H227791   5.133   4.104   1.466 -0.0723 -1.7889  0.9585
 2126TIP3   OH227792   5.297   3.583   3.088 -0.1159 -0.4869  0.5013
 2126TIP3    H127793   5.281   3.666   3.044 -0.5778 -0.2921  1.0252
 2126TIP3    H227794   5.391   3.568   3.079 -0.1267 -0.2120 -0.1207
 2127TIP3   OH227795   3.143   4.524   0.534  0.3426 -0.1597  0.0403
 2127TIP3    H127796   3.159   4.544   0.626 -1.3282 -2.5051  0.9547
 2127TIP3    H227797   3.199   4.448   0.516 -1.4868 -1.5862  0.0791
 2128TIP3   OH227798   5.322   5.411  11.693  0.1745 -0.5560  0.7102
 2128TIP3    H127799   5.250   5.462  11.654  1.1793  0.7023  0.4201
 2128TIP3    H227800   5.279   5.353  11.755 -1.4493 -2.1454 -1.7019
 2129TIP3   OH227801   2.285   1.873  14.607 -0.0570 -0.4588 -0.2924
 2129TIP3    H127802   2.329   1.917  14.680 -0.1791  0.5723 -0.8129
 2129TIP3    H227803   2.240   1.944  14.561 -1.0828 -1.2904 -0.6017
 2130TIP3   OH227804   5.431   6.313   0.214  0.6530 -0.0159 -0.4429
 2130TIP3    H127805   5.457   6.276   0.299 -1.0307  0.6351  0.4067
 2130TIP3    H227806   5.335   6.305   0.213  0.5953  0.6083 -1.9871
 2131TIP3   OH227807   4.837   3.725   1.181 -0.2138 -0.3416 -0.0218
 2131TIP3    H127808   4.830   3.765   1.268 -0.3549  1.1397 -0.6877
 2131TIP3    H227809   4.842   3.799   1.121  2.8826 -1.2894 -1.0969
 2132TIP3   OH227810   2.103   1.721  11.264 -0.3275  0.9108 -0.3339
 2132TIP3    H127811   2.085   1.780  11.337  0.1820  1.3301 -0.5381
 2132TIP3    H227812   2.199   1.714  11.262 -0.3912 -0.0996 -0.1770
 2133TIP3   OH227813   6.223   0.688  16.367  0.1629  0.1920 -0.0981
 2133TIP3    H127814   6.296   0.641  16.406 -0.4755 -1.3160 -0.6311
 2133TIP3    H227815   6.170   0.716  16.442  1.6281  1.9676  0.3349
 2134TIP3   OH227816   6.466   0.397  14.695 -0.1277 -0.0508  0.7093
 2134TIP3    H127817   6.435   0.423  14.781  0.9337  1.6168  0.6311
 2134TIP3    H227818   6.524   0.468  14.667  0.2298 -0.9477 -1.0171
 2135TIP3   OH227819   1.303   6.116  16.758 -0.3006 -0.7037 -0.4461
 2135TIP3    H127820   1.271   6.165  16.682 -0.5058 -1.1613 -0.6643
 2135TIP3    H227821   1.358   6.047  16.720  1.9804  0.7786 -0.0209
 2136TIP3   OH227822   1.068   5.314  11.285 -0.0576  0.1001  0.4907
 2136TIP3    H127823   1.068   5.250  11.215 -0.7806 -0.2713  0.8179
 2136TIP3    H227824   0.979   5.349  11.286 -0.7484 -1.4925  2.6292
 2137TIP3   OH227825   3.133   0.857   4.503 -0.4724  0.2754 -1.4290
 2137TIP3    H127826   3.153   0.765   4.482  1.7086  0.2671  0.2654
 2137TIP3    H227827   3.130   0.901   4.418  0.7772 -0.9879 -2.1799
 2138TIP3   OH227828   5.933   2.633  10.859 -0.2024 -0.3754 -0.2845
 2138TIP3    H127829   5.866   2.682  10.810 -0.5415  0.2227  0.7456
 2138TIP3    H227830   5.982   2.586  10.792 -1.5849 -0.7457 -1.0881
 2139TIP3   OH227831   5.446   3.805  15.869 -0.2633  0.1776  0.0715
 2139TIP3    H127832   5.532   3.763  15.871  0.0031  0.7351  1.1166
 2139TIP3    H227833   5.455   3.882  15.926 -1.6929 -0.2419  0.9336
 2140TIP3   OH227834   2.239   2.793   4.706  0.0650  0.4301  0.4199
 2140TIP3    H127835   2.263   2.792   4.613  0.4151  1.1776  0.4961
 2140TIP3    H227836   2.316   2.830   4.750 -0.3103  0.5959  0.9470
 2141TIP3   OH227837   6.034   3.715  15.312  0.3341  0.5308 -0.5632
 2141TIP3    H127838   6.005   3.782  15.373  0.4116 -0.4668  0.5974
 2141TIP3    H227839   5.954   3.668  15.288  0.4449  0.2581 -0.4063
 2142TIP3   OH227840   2.204   2.710   2.574  0.0175 -0.0559 -0.3049
 2142TIP3    H127841   2.238   2.782   2.626  1.1554 -0.7008 -0.1210
 2142TIP3    H227842   2.115   2.736   2.551  0.6054  1.6578 -0.7416
 2143TIP3   OH227843   6.050   2.934  14.634  0.0699 -0.1779 -0.0367
 2143TIP3    H127844   6.052   3.024  14.602 -0.6350 -0.3654 -0.6055
 2143TIP3    H227845   6.123   2.891  14.589 -0.6535 -0.3324 -1.0783
 2144TIP3   OH227846   6.268   6.503  16.185  0.0698 -0.0361  0.0638
 2144TIP3    H127847   6.232   6.480  16.271 -0.0979  0.2768  0.0819
 2144TIP3    H227848   6.268   6.599  16.185  0.0064 -0.0342 -0.3128
 2145TIP3   OH227849   2.955   4.344   2.686  0.1666  0.1488 -0.0247
 2145TIP3    H127850   2.987   4.299   2.607  1.2886  0.2098  0.3744
 2145TIP3    H227851   3.015   4.315   2.755 -0.7061  0.2307  0.7721
 2146TIP3   OH227852   4.137   4.071   0.551  0.3032  0.0198 -0.3700
 2146TIP3    H127853   4.211   4.073   0.612  0.3932 -0.4673 -0.4556
 2146TIP3    H227854   4.092   3.989   0.569  0.4605 -0.2415 -1.0985
 2147TIP3   OH227855   0.058   2.411   2.111 -0.1144  0.1881 -0.0427
 2147TIP3    H127856   0.067   2.475   2.182  0.8097 -0.2677  0.2598
 2147TIP3    H227857  -0.012   2.353   2.140  0.5222 -0.2301  0.6870
 2148TIP3   OH227858   1.426   3.214  12.460 -0.2851 -0.4769 -0.2696
 2148TIP3    H127859   1.363   3.269  12.506  0.1634  1.8983 -2.2845
 2148TIP3    H227860   1.511   3.242  12.493  0.0572  1.4098 -2.4905
 2149TIP3   OH227861   2.922   4.849  14.154 -0.1414 -0.1531  0.2995
 2149TIP3    H127862   2.840   4.858  14.106 -0.8236 -1.6429  1.1162
 2149TIP3    H227863   2.919   4.918  14.220 -1.2702 -0.8222  0.9967
 2150TIP3   OH227864   5.461   4.051   1.740  0.0784  0.1141 -0.1048
 2150TIP3    H127865   5.486   4.040   1.832  0.8676 -1.8783 -0.4978
 2150TIP3    H227866   5.545   4.049   1.693 -0.3136  1.1706 -0.8798
 2151TIP3   OH227867   2.067   6.583  12.644  0.1400 -0.1590 -0.1836
 2151TIP3    H127868   1.983   6.541  12.658 -0.4483  1.1189  0.2541
 2151TIP3    H227869   2.098   6.606  12.732 -0.5351  2.1155 -0.4678
 2152TIP3   OH227870   1.309   5.131  14.623  0.4677 -0.6790 -0.4219
 2152TIP3    H127871   1.308   5.222  14.593  0.8653 -0.7314 -0.6043
 2152TIP3    H227872   1.361   5.133  14.703  0.8482 -0.8089 -0.6587
 2153TIP3   OH227873   3.924   4.501  11.654  0.2133 -0.5446  0.6988
 2153TIP3    H127874   3.900   4.587  11.619  0.2463 -0.8104  0.0008
 2153TIP3    H227875   3.967   4.520  11.737  4.6417  0.5849 -1.5201
 2154TIP3   OH227876   1.385   1.969  14.108  0.1950 -0.2016  0.3401
 2154TIP3    H127877   1.424   1.955  14.194  2.8562  1.1770 -0.5397
 2154TIP3    H227878   1.342   2.054  14.114  2.7000  1.1990 -0.3534
 2155TIP3   OH227879   2.302   4.877   4.130 -0.2808  0.3668  0.0115
 2155TIP3    H127880   2.370   4.883   4.197  0.6350  0.1961 -0.8826
 2155TIP3    H227881   2.335   4.812   4.068 -1.2136  0.3587 -0.4921
 2156TIP3   OH227882   5.739   4.407   1.473  0.0313 -0.0287  0.1090
 2156TIP3    H127883   5.733   4.429   1.566  0.5259  1.2037 -0.1334
 2156TIP3    H227884   5.650   4.421   1.440 -0.2643 -0.9568  0.4851
 2157TIP3   OH227885   0.321   0.607  15.602  0.2237  0.2871  0.0483
 2157TIP3    H127886   0.325   0.681  15.542  0.3249  0.0186 -0.2748
 2157TIP3    H227887   0.255   0.549  15.565  1.6212 -0.8028 -0.8656
 2158TIP3   OH227888   1.717   1.802  15.568  0.2570  0.6345 -0.0781
 2158TIP3    H127889   1.801   1.763  15.591  0.0197  0.0629 -0.1662
 2158TIP3    H227890   1.737   1.860  15.494  0.1676 -1.4328 -1.8124
 2159TIP3   OH227891   2.107   5.553  14.564 -0.0526 -0.3547  0.2181
 2159TIP3    H127892   2.026   5.511  14.536 -0.8059 -0.3526  2.1891
 2159TIP3    H227893   2.085   5.646  14.571  0.0028 -0.3990  1.0836
 2160TIP3   OH227894   1.371   1.928   0.580  0.4041 -0.5940 -0.0877
 2160TIP3    H127895   1.390   1.888   0.495  1.3299 -1.4079  0.4907
 2160TIP3    H227896   1.275   1.927   0.585  0.2353  0.8616 -1.7594
 2161TIP3   OH227897   5.880   6.665  10.721 -0.0503  0.1532 -0.0334
 2161TIP3    H127898   5.888   6.753  10.683  2.6045  0.7256  1.5755
 2161TIP3    H227899   5.797   6.667  10.769 -3.2339 -0.3919 -4.8426
 2162TIP3   OH227900   5.534   0.829  14.272 -0.5702  0.2376 -0.4818
 2162TIP3    H127901   5.609   0.884  14.249 -1.3643  1.1258 -1.0376
 2162TIP3    H227902   5.546   0.809  14.365  0.6578 -0.1383 -0.7093
 2163TIP3   OH227903   1.858   0.520   1.877  0.3828 -0.3595  0.5576
 2163TIP3    H127904   1.900   0.606   1.882  0.9756 -0.6120  0.0118
 2163TIP3    H227905   1.926   0.458   1.905  0.7549 -0.8800 -1.3514
 2164TIP3   OH227906   0.545   2.348  14.559 -0.0716 -0.7148  0.5561
 2164TIP3    H127907   0.577   2.400  14.633  1.0186 -0.9177  0.2475
 2164TIP3    H227908   0.568   2.401  14.482 -1.6517 -0.2620  0.3640
 2165TIP3   OH227909   0.910   3.166  16.801 -0.6272 -0.0063  0.0239
 2165TIP3    H127910   0.932   3.076  16.775  0.7811  0.6678 -1.2691
 2165TIP3    H227911   0.873   3.205  16.722 -1.0802  0.6189  0.5332
 2166TIP3   OH227912   3.484   0.071  15.822  0.5503 -0.4488 -0.1339
 2166TIP3    H127913   3.513   0.132  15.889  0.5594  0.1370 -0.6591
 2166TIP3    H227914   3.464   0.127  15.746 -1.5478 -0.8359  0.0626
 2167TIP3   OH227915   6.156   3.923  12.674  0.7224  0.3377  0.1138
 2167TIP3    H127916   6.163   3.887  12.585  0.8283  0.3129  0.1318
 2167TIP3    H227917   6.065   3.910  12.697  1.1153 -1.5813  0.8128
 2168TIP3   OH227918   0.997   1.423  17.132  0.4512 -0.3704  1.0280
 2168TIP3    H127919   0.992   1.484  17.058 -0.1832 -0.9262  0.6047
 2168TIP3    H227920   0.910   1.425  17.171  0.8705  0.1734  1.9871
 2169TIP3   OH227921   5.596   1.875   2.379 -0.4355 -0.1741 -0.4461
 2169TIP3    H127922   5.670   1.880   2.438 -1.2976  0.6153  0.6035
 2169TIP3    H227923   5.576   1.781   2.374 -1.4950 -0.1530  2.0376
 2170TIP3   OH227924   6.623   5.673   4.365 -0.9494  0.3467  0.2387
 2170TIP3    H127925   6.603   5.765   4.377 -2.0258  0.1213  0.2963
 2170TIP3    H227926   6.579   5.629   4.438  0.7059 -0.0977  1.0261
 2171TIP3   OH227927   5.610   1.904   5.276 -0.0042 -0.3778  0.4170
 2171TIP3    H127928   5.597   1.995   5.249  0.4936  0.4644  2.7693
 2171TIP3    H227929   5.526   1.862   5.257  0.2772  0.0644 -2.2591
 2172TIP3   OH227930   0.684   1.543   3.884 -0.6392 -0.0069  0.1208
 2172TIP3    H127931   0.705   1.543   3.978 -0.3956 -1.2471  0.0803
 2172TIP3    H227932   0.676   1.636   3.862  0.5442  0.3624  1.0923
 2173TIP3   OH227933   0.984   0.179  13.926 -0.1991  0.6110  0.0341
 2173TIP3    H127934   0.911   0.235  13.952 -0.2323  0.4209  0.3572
 2173TIP3    H227935   1.053   0.200  13.990 -0.0746  0.5712 -0.0873
 2174TIP3   OH227936   4.023   3.565   5.650  0.4169 -0.3088  0.2131
 2174TIP3    H127937   4.034   3.660   5.641  1.1461 -0.3088  1.0024
 2174TIP3    H227938   3.944   3.545   5.599  2.4818  0.0961 -3.4585
 2175TIP3   OH227939   0.618   1.189   2.418  0.2222 -0.4030 -0.0708
 2175TIP3    H127940   0.652   1.143   2.495  0.7792 -1.8037 -1.1022
 2175TIP3    H227941   0.696   1.217   2.370 -0.1197  0.5757 -0.0898
 2176TIP3   OH227942   0.628   6.542   5.290  0.0861  0.1844 -0.1849
 2176TIP3    H127943   0.678   6.465   5.260  0.6883  0.2137  0.7029
 2176TIP3    H227944   0.544   6.535   5.246 -0.7340 -2.2262  1.5649
 2177TIP3   OH227945   0.793   5.452  12.662  0.4879 -0.5199  0.4524
 2177TIP3    H127946   0.832   5.396  12.595 -0.0708  0.3036 -0.5895
 2177TIP3    H227947   0.868   5.486  12.711  1.0102 -0.1496 -0.5612
 2178TIP3   OH227948   6.402   0.058   4.266 -0.3885 -0.7587 -0.0371
 2178TIP3    H127949   6.428   0.014   4.185 -0.8662  0.2405 -0.7617
 2178TIP3    H227950   6.309   0.079   4.252 -0.2183  0.2934  0.3544
 2179TIP3   OH227951   5.334   2.658   5.066 -0.3021 -0.1185  0.2048
 2179TIP3    H127952   5.324   2.608   4.985 -0.2943  1.4150 -0.7909
 2179TIP3    H227953   5.419   2.630   5.101  0.2839  0.0928 -0.9916
 2180TIP3   OH227954   5.020   3.764   4.653 -0.4855  0.0524 -0.2781
 2180TIP3    H127955   4.997   3.672   4.649 -0.2170 -0.0846  1.0223
 2180TIP3    H227956   5.080   3.771   4.727  1.3234  0.8964 -1.7507
 2181TIP3   OH227957   3.070   5.029  15.313  0.1268  0.5511  0.0732
 2181TIP3    H127958   2.976   5.045  15.322  0.4137  1.4782  2.1809
 2181TIP3    H227959   3.110   5.115  15.322  1.1829  0.2767 -1.5754
 2182TIP3   OH227960   1.226   4.096   5.697 -0.2814  0.7619  0.6006
 2182TIP3    H127961   1.149   4.075   5.646 -0.3533  1.5498  0.3651
 2182TIP3    H227962   1.212   4.053   5.781 -0.4209 -0.0759  0.1565
 2183TIP3   OH227963   2.310   2.116   0.579 -0.3952 -0.1094  0.2314
 2183TIP3    H127964   2.270   2.043   0.532 -0.9415  0.6116 -0.4361
 2183TIP3    H227965   2.394   2.130   0.535 -1.0782  0.8247 -0.8291
 2184TIP3   OH227966   3.722   0.154   5.524 -0.6850 -0.1732 -0.1579
 2184TIP3    H127967   3.761   0.198   5.448 -2.5612  1.0643 -0.4885
 2184TIP3    H227968   3.646   0.208   5.545 -1.1445 -1.4369  1.5851
 2185TIP3   OH227969   4.570   5.286  15.816 -0.6975 -0.1334  0.1927
 2185TIP3    H127970   4.579   5.235  15.897  0.2699  1.0716  0.8878
 2185TIP3    H227971   4.619   5.236  15.751  0.6745  0.1314  0.9847
 2186TIP3   OH227972   2.433   5.567   3.457 -0.5797  0.1988  0.7495
 2186TIP3    H127973   2.459   5.544   3.546 -0.9899  1.1568  1.1264
 2186TIP3    H227974   2.465   5.656   3.444  1.5620 -0.7202 -0.9270
 2187TIP3   OH227975   2.051   0.098   1.963  0.4821 -1.2980  0.7091
 2187TIP3    H127976   1.957   0.109   1.982  0.1560 -1.2349 -0.7961
 2187TIP3    H227977   2.085   0.187   1.963  0.4972 -1.3006  0.9749
 2188TIP3   OH227978   0.520   5.111  11.763  0.1464  0.3852 -0.1942
 2188TIP3    H127979   0.532   5.070  11.678 -1.4397  2.6552 -1.6347
 2188TIP3    H227980   0.526   5.205  11.745  1.7421  0.9209  2.5838
 2189TIP3   OH227981   5.532   1.489  14.147 -0.9890 -0.1372 -0.8104
 2189TIP3    H127982   5.613   1.478  14.098 -0.1585 -0.0867  0.4941
 2189TIP3    H227983   5.473   1.535  14.087  0.9390  2.5175 -0.8837
 2190TIP3   OH227984   0.769   4.280  13.399  0.4438 -0.1993  0.2121
 2190TIP3    H127985   0.805   4.258  13.313  2.3367  1.6334  0.4679
 2190TIP3    H227986   0.823   4.231  13.461  1.4754  1.2687  0.5126
 2191TIP3   OH227987   4.490   0.672   0.771 -0.6479  0.3946  0.4138
 2191TIP3    H127988   4.562   0.706   0.718 -1.5543  0.5660 -0.7286
 2191TIP3    H227989   4.522   0.587   0.804 -0.6200 -0.4634 -1.6805
 2192TIP3   OH227990   6.652   6.695   1.292 -0.6061 -0.2992 -0.1318
 2192TIP3    H127991   6.571   6.646   1.274 -0.3077  0.1343 -3.1491
 2192TIP3    H227992   6.629   6.753   1.364 -2.8792 -0.4914 -0.6130
 2193TIP3   OH227993   4.708   0.720   4.134  0.1516 -0.3746 -0.0157
 2193TIP3    H127994   4.698   0.626   4.124 -0.0802 -0.4552  0.8720
 2193TIP3    H227995   4.626   0.749   4.173 -0.7087  0.5537 -2.3772
 2194TIP3   OH227996   4.702   5.492   1.762 -0.4812  0.3561 -0.4581
 2194TIP3    H127997   4.769   5.463   1.824 -0.4981  0.8796 -0.1879
 2194TIP3    H227998   4.689   5.417   1.704  1.1003  0.6084 -1.1881
 2195TIP3   OH227999   0.321   0.116  16.870  0.1706  0.0949 -0.0055
 2195TIP3    H128000   0.326   0.020  16.872  0.6191  0.1078  2.0214
 2195TIP3    H228001   0.364   0.141  16.788 -1.3233 -1.4659 -1.3309
 2196TIP3   OH228002   4.597   2.060  13.716  0.5614  0.4725 -0.2664
 2196TIP3    H128003   4.503   2.068  13.736  0.7899 -0.4253  1.3683
 2196TIP3    H228004   4.608   1.967  13.695  1.4977 -0.0932  2.3167
 2197TIP3   OH228005   2.116   0.161  12.795 -0.2023 -0.3358  0.3723
 2197TIP3    H128006   2.202   0.199  12.778 -0.3685 -1.1412 -2.8359
 2197TIP3    H228007   2.125   0.117  12.880  2.7371 -0.9048 -0.1376
 2198TIP3   OH228008   2.468   2.048   5.334  0.3686  0.6123 -0.2380
 2198TIP3    H128009   2.440   2.139   5.327 -0.2627  0.4977  0.7296
 2198TIP3    H228010   2.554   2.052   5.375  1.2954  0.8870 -2.1124
 2199TIP3   OH228011   6.775   6.084  16.416 -0.0000  0.1394 -0.1372
 2199TIP3    H128012   6.730   6.015  16.368  2.1413 -1.3667 -0.1332
 2199TIP3    H228013   6.846   6.111  16.358  0.5095  0.7924  0.7739
 2200TIP3   OH228014   1.208   5.745  14.565  0.1620  0.3049  0.6767
 2200TIP3    H128015   1.300   5.758  14.588  0.4977  0.3132 -0.5917
 2200TIP3    H228016   1.174   5.833  14.552  0.8314  0.2665 -1.9099
 2201TIP3   OH228017   3.690   2.923   4.830 -0.3098 -0.3726 -0.1073
 2201TIP3    H128018   3.647   2.936   4.914  0.3915 -0.8610  0.3326
 2201TIP3    H228019   3.640   2.853   4.788  2.2289 -3.7816  2.0266
 2202TIP3   OH228020   6.467   6.778  11.120  0.3173 -0.1304 -0.0838
 2202TIP3    H128021   6.400   6.740  11.178 -0.8639  0.6802 -0.8698
 2202TIP3    H228022   6.444   6.745  11.033 -0.3050  1.7380 -0.6759
 2203TIP3   OH228023   0.403   5.551  14.880  0.6682  0.3699 -0.0035
 2203TIP3    H128024   0.432   5.581  14.794  1.1428  0.5177  0.2043
 2203TIP3    H228025   0.484   5.536  14.929  0.4171  2.3297  1.1248
 2204TIP3   OH228026   0.417   2.743  11.406  0.2840 -0.4109 -0.5584
 2204TIP3    H128027   0.508   2.749  11.379  0.2103 -0.5877 -0.8542
 2204TIP3    H228028   0.405   2.815  11.467  1.0391 -1.2921  0.6698
 2205TIP3   OH228029   1.936   0.098  16.123 -0.5091 -0.2261 -0.5015
 2205TIP3    H128030   1.924   0.084  16.029 -1.8838 -0.4433 -0.3113
 2205TIP3    H228031   1.893   0.182  16.141  1.5327  0.8649 -0.3925
 2206TIP3   OH228032   1.550   5.367   2.063  0.1889 -0.0758 -0.6890
 2206TIP3    H128033   1.594   5.396   2.144 -1.7521 -0.8340  0.7109
 2206TIP3    H228034   1.590   5.283   2.043  0.0085 -0.3528  0.0730
 2207TIP3   OH228035   1.558   2.545   2.881 -0.5344  0.1356 -0.5192
 2207TIP3    H128036   1.627   2.518   2.942 -0.0033  0.6277 -0.8931
 2207TIP3    H228037   1.476   2.534   2.931 -0.3038 -1.5900 -0.4636
 2208TIP3   OH228038   4.588   6.215  11.841 -0.1318  0.2360  0.6201
 2208TIP3    H128039   4.574   6.172  11.926  0.4848 -0.0344  0.5939
 2208TIP3    H228040   4.672   6.181  11.811 -0.6733 -0.2230 -0.4422
 2209TIP3   OH228041   0.034   1.406  16.806 -0.0407 -0.2073 -0.7059
 2209TIP3    H128042  -0.002   1.389  16.719 -1.4640 -2.1202  0.1662
 2209TIP3    H228043  -0.035   1.378  16.866  1.4941 -0.4439  1.0487
 2210TIP3   OH228044   6.048   6.760  15.697 -0.4553 -0.5135 -0.5135
 2210TIP3    H128045   6.076   6.674  15.728 -0.0709 -0.3498 -0.3954
 2210TIP3    H228046   5.953   6.753  15.689 -0.3691 -1.1305 -1.0742
 2211TIP3   OH228047   5.475   5.208  11.423  0.0649 -0.5913  0.2220
 2211TIP3    H128048   5.456   5.115  11.430 -1.0869 -0.3023  1.1444
 2211TIP3    H228049   5.427   5.248  11.495  3.3180  0.3331  2.0703
 2212TIP3   OH228050   2.236   1.251   3.560  0.1104  0.2848 -0.2164
 2212TIP3    H128051   2.249   1.189   3.632  0.9321  0.0207 -0.5825
 2212TIP3    H228052   2.279   1.331   3.589 -0.0672  0.3683 -0.1769
 2213TIP3   OH228053   0.615   1.448   0.625 -0.3192 -0.3795  0.2256
 2213TIP3    H128054   0.543   1.452   0.688  1.1147 -1.0835  2.0150
 2213TIP3    H228055   0.620   1.356   0.599 -1.4784  0.0442 -1.7307
 2214TIP3   OH228056   3.855   5.554  12.870 -0.0409  0.3349 -0.1831
 2214TIP3    H128057   3.938   5.542  12.917  0.6341  0.8784 -1.1958
 2214TIP3    H228058   3.793   5.499  12.917  1.8326 -3.6593 -1.9143
 2215TIP3   OH228059   1.479   3.049   2.270  0.4518 -0.5759  0.1675
 2215TIP3    H128060   1.456   2.983   2.205  1.6167 -0.1100 -0.7451
 2215TIP3    H228061   1.451   3.132   2.232  1.2720 -0.2825  0.1791
 2216TIP3   OH228062   4.022   4.126   5.032  0.3069  0.4426  0.2834
 2216TIP3    H128063   3.937   4.158   5.061  1.4272  3.1541  0.8050
 2216TIP3    H228064   4.054   4.071   5.104 -0.1162  1.1312  1.0073
 2217TIP3   OH228065   5.859   2.434   5.519  0.1892 -0.5106  0.0991
 2217TIP3    H128066   5.849   2.419   5.613  1.0889 -1.7075  0.0412
 2217TIP3    H228067   5.896   2.351   5.486 -1.0155 -0.4621 -1.4680
 2218TIP3   OH228068   5.658   4.369  14.086 -0.5664  0.4442  0.0460
 2218TIP3    H128069   5.602   4.303  14.045 -1.8885  0.8744  1.0745
 2218TIP3    H228070   5.650   4.352  14.180 -0.0148  1.3410  0.2640
 2219TIP3   OH228071   1.581   5.184  12.754  0.2551 -0.2391  0.3188
 2219TIP3    H128072   1.610   5.191  12.663 -0.1613 -0.8616  0.1304
 2219TIP3    H228073   1.500   5.235  12.758 -0.8948 -1.9177 -0.2057
 2220TIP3   OH228074   4.502   0.776  16.437  0.4506 -0.1778  0.4983
 2220TIP3    H128075   4.472   0.720  16.508  1.7556 -0.1603  1.0815
 2220TIP3    H228076   4.592   0.799  16.460  0.2656  1.3973 -0.1908
 2221TIP3   OH228077   6.590   1.159   1.433 -0.4221  0.5259  0.2925
 2221TIP3    H128078   6.523   1.150   1.366 -1.7953 -2.5822  1.8693
 2221TIP3    H228079   6.658   1.213   1.392 -2.5128  1.2858 -2.4459
 2222TIP3   OH228080   6.336   3.064   4.229  0.4663 -0.0514 -0.4463
 2222TIP3    H128081   6.323   2.971   4.212 -0.6634  0.1905 -0.9692
 2222TIP3    H228082   6.365   3.068   4.320  1.5310 -0.9739 -0.7172
 2223TIP3   OH228083   0.091   0.223  14.115 -0.8561  0.2203 -0.7810
 2223TIP3    H128084   0.152   0.296  14.106 -0.9973  0.3282 -0.8589
 2223TIP3    H228085   0.075   0.194  14.025 -0.8930  0.1693 -0.7573
 2224TIP3   OH228086   4.116   3.353   2.726  0.0673 -0.4958 -0.2472
 2224TIP3    H128087   4.065   3.350   2.645 -0.1664  0.9174 -0.1957
 2224TIP3    H228088   4.198   3.309   2.705 -0.2969 -0.8304 -1.0154
 2225TIP3   OH228089   4.978   0.834   0.145  0.0772 -0.1030  0.1275
 2225TIP3    H128090   5.003   0.881   0.065 -1.9495 -0.6324 -0.9064
 2225TIP3    H228091   5.056   0.836   0.200  0.6924  2.7524 -0.6789
 2226TIP3   OH228092   1.270   6.113  13.197 -0.0542 -0.5035  0.6634
 2226TIP3    H128093   1.213   6.037  13.187 -1.8523  0.8925 -0.1546
 2226TIP3    H228094   1.211   6.186  13.215  1.2714  1.2974 -1.6988
 2227TIP3   OH228095   0.898   2.345   1.981 -0.9587 -0.0887  0.4434
 2227TIP3    H128096   0.942   2.369   1.900  0.0844  1.9027  1.5121
 2227TIP3    H228097   0.805   2.345   1.960 -0.7615  1.4493 -0.5126
 2228TIP3   OH228098   1.714   3.808  12.562  0.5421  0.7107 -0.1421
 2228TIP3    H128099   1.788   3.869  12.555  2.2236 -0.9365  1.9588
 2228TIP3    H228100   1.656   3.848  12.627  0.7534  0.8992 -0.0686
 2229TIP3   OH228101   2.792   6.250  11.952  0.3576  0.2551 -0.0230
 2229TIP3    H128102   2.800   6.183  11.885 -1.9477 -0.7133  0.5920
 2229TIP3    H228103   2.823   6.330  11.910 -1.4795 -0.2069 -2.4336
 2230TIP3   OH228104   0.518   1.960  12.091  0.3481  0.0760  0.1455
 2230TIP3    H128105   0.461   1.990  12.161  0.4388 -0.6325  0.5375
 2230TIP3    H228106   0.530   2.036  12.035 -1.3541  0.1328 -0.1999
 2231TIP3   OH228107   4.372   2.125   1.353  0.1635 -0.9933 -0.1244
 2231TIP3    H128108   4.430   2.196   1.381 -1.5662  0.0851  0.8783
 2231TIP3    H228109   4.418   2.045   1.378  1.2886 -0.1934  0.4675
 2232TIP3   OH228110   6.653   0.586  14.641 -0.1466  0.2387 -0.1674
 2232TIP3    H128111   6.706   0.530  14.585  0.8714 -0.3367  1.2989
 2232TIP3    H228112   6.717   0.627  14.700 -1.2321  0.1693  1.0993
 2233TIP3   OH228113   6.091   6.313  12.058 -0.2825  0.2635 -0.5577
 2233TIP3    H128114   6.002   6.288  12.034 -0.2577 -0.3587 -0.0397
 2233TIP3    H228115   6.081   6.388  12.117 -0.4033  0.8778 -1.3402
 2234TIP3   OH228116   6.107   2.839  11.592  0.7505 -0.1380 -0.6402
 2234TIP3    H128117   6.179   2.803  11.643  0.5631 -1.5272 -1.3112
 2234TIP3    H228118   6.131   2.820  11.501  1.1911  2.4671 -1.1616
 2235TIP3   OH228119   3.079   6.637   5.617  0.0751  0.3482  0.4558
 2235TIP3    H128120   3.021   6.564   5.641  1.1108 -0.7827 -0.3740
 2235TIP3    H228121   3.025   6.694   5.562  0.0332 -1.2957 -1.2946
 2236TIP3   OH228122   3.427   1.445  15.679 -0.6720 -0.0918  0.6298
 2236TIP3    H128123   3.349   1.423  15.629  0.1205  1.6906 -1.5444
 2236TIP3    H228124   3.397   1.507  15.746 -1.4304 -1.0932  1.2444
 2237TIP3   OH228125   2.480   1.552  12.149 -0.1741  0.1622  0.1687
 2237TIP3    H128126   2.564   1.528  12.187 -0.8988 -1.5161  0.8349
 2237TIP3    H228127   2.489   1.644  12.124  2.1177 -0.2102 -0.5625
 2238TIP3   OH228128   5.952   0.861  14.015 -0.2578  0.2356  0.1499
 2238TIP3    H128129   5.910   0.776  14.003  0.0136  0.1009  0.1434
 2238TIP3    H228130   6.032   0.842  14.064 -1.4673  0.7995  2.5088
 2239TIP3   OH228131   5.517   3.084   1.931  0.0919  0.0790  0.6224
 2239TIP3    H128132   5.550   3.098   1.842  0.8132  2.7279  1.2187
 2239TIP3    H228133   5.590   3.044   1.978 -0.2828 -1.3048  0.0946
 2240TIP3   OH228134   6.410   1.435   4.942  0.1721 -0.9802  0.1239
 2240TIP3    H128135   6.393   1.341   4.931  0.9875 -1.1097 -0.1064
 2240TIP3    H228136   6.465   1.440   5.021  2.0082 -0.9316 -1.0959
 2241TIP3   OH228137   6.341   5.779   4.660 -0.1900 -0.3039  0.6685
 2241TIP3    H128138   6.376   5.793   4.748  1.8844 -3.5561  0.5560
 2241TIP3    H228139   6.416   5.748   4.609 -1.4459  0.9527 -2.1605
 2242TIP3   OH228140   1.236   2.414  15.336  0.4028 -0.2557 -0.8891
 2242TIP3    H128141   1.225   2.508  15.321 -0.3935 -0.3051 -0.6500
 2242TIP3    H228142   1.327   2.396  15.312  0.5460  0.5687 -0.9750
 2243TIP3   OH228143   2.363   4.424  13.209 -0.7641 -0.6795  0.1385
 2243TIP3    H128144   2.289   4.386  13.255 -1.2342  0.1252  0.0697
 2243TIP3    H228145   2.328   4.454  13.125  0.1012 -2.1874 -0.7985
 2244TIP3   OH228146   5.664   6.306  11.123 -0.4676 -0.2639 -0.3974
 2244TIP3    H128147   5.583   6.269  11.159 -0.2547 -0.8971 -0.5634
 2244TIP3    H228148   5.654   6.297  11.028 -0.0007 -0.7795 -0.4014
 2245TIP3   OH228149   2.506   4.290   1.433 -0.3874  0.2871  0.3350
 2245TIP3    H128150   2.525   4.327   1.520  0.1893  0.4267  0.1555
 2245TIP3    H228151   2.533   4.199   1.440 -0.3528  0.2952  0.3089
 2246TIP3   OH228152   1.831   4.378  12.145  0.3051 -0.0997  0.6287
 2246TIP3    H128153   1.783   4.458  12.122  1.8619  1.2060  1.6261
 2246TIP3    H228154   1.871   4.350  12.063  1.4459  1.4012  0.6187
 2247TIP3   OH228155   3.686   1.836   5.083  0.1836  0.2143  0.2969
 2247TIP3    H128156   3.596   1.857   5.107  0.7663  1.0347  1.8496
 2247TIP3    H228157   3.696   1.873   4.995 -1.0973 -0.2370 -0.0623
 2248TIP3   OH228158   6.704   1.578   6.159 -0.3685 -0.0492 -0.2602
 2248TIP3    H128159   6.677   1.665   6.131 -1.6064  0.2030  1.5468
 2248TIP3    H228160   6.626   1.540   6.198 -0.1274 -2.4080 -1.8800
 2249TIP3   OH228161   3.258   2.889   2.316 -0.2661  0.4015  0.3824
 2249TIP3    H128162   3.188   2.866   2.255 -0.7271 -1.6719  1.6156
 2249TIP3    H228163   3.215   2.946   2.381 -0.3045  0.7890  0.0222
 2250TIP3   OH228164   5.228   5.603   3.646 -0.1747 -0.8728 -0.4700
 2250TIP3    H128165   5.214   5.684   3.696 -2.5452 -0.8240 -1.1000
 2250TIP3    H228166   5.166   5.608   3.573  0.1297 -2.9254 -0.9409
 2251TIP3   OH228167   5.274   3.475   4.123  0.1622 -0.6568  0.3650
 2251TIP3    H128168   5.263   3.468   4.218  2.6879  1.6412  0.9622
 2251TIP3    H228169   5.212   3.542   4.096  0.3735 -0.3502  0.6369
 2252TIP3   OH228170   3.695   0.966  11.103  0.1683  0.3729  0.6349
 2252TIP3    H128171   3.761   1.034  11.094 -0.0601  0.3593 -1.9186
 2252TIP3    H228172   3.621   1.010  11.145  0.0787  1.7395 -0.8287
 2253TIP3   OH228173   4.145   2.521  12.198 -0.2098  0.0686  0.3530
 2253TIP3    H128174   4.212   2.455  12.214  1.4487  1.0766 -1.8727
 2253TIP3    H228175   4.114   2.503  12.110 -0.4399  1.6141  0.0865
 2254TIP3   OH228176   4.435   3.331  13.108 -0.4908 -0.0250 -0.4549
 2254TIP3    H128177   4.483   3.290  13.180 -0.4372 -0.2784 -0.6353
 2254TIP3    H228178   4.488   3.314  13.030 -0.8856 -0.3370 -0.6634
 2255TIP3   OH228179   2.108   0.455  15.193  0.1147  0.2144 -0.2462
 2255TIP3    H128180   2.019   0.478  15.221  0.4224  0.3732  0.6231
 2255TIP3    H228181   2.113   0.485  15.103 -0.9615 -0.4693 -0.5535
 2256TIP3   OH228182   4.393   0.230   6.342  0.1387  0.2931 -0.3097
 2256TIP3    H128183   4.462   0.193   6.286  1.4963  0.2294  1.3027
 2256TIP3    H228184   4.437   0.301   6.390 -0.7893 -0.0101  1.0545
 2257TIP3   OH228185   6.189   3.380  11.643 -0.1702  0.0105  0.1719
 2257TIP3    H128186   6.173   3.286  11.633 -0.3921  0.1533 -0.8932
 2257TIP3    H228187   6.107   3.422  11.616  1.0241  0.6418 -2.8263
 2258TIP3   OH228188   6.565   1.640  10.869 -0.2078 -0.2457 -0.3307
 2258TIP3    H128189   6.548   1.686  10.787 -0.5203 -1.2594 -0.8473
 2258TIP3    H228190   6.534   1.551  10.854  0.6621 -0.7168  0.5515
 2259TIP3   OH228191   4.287   1.671  13.968  0.4952 -0.8499 -0.7137
 2259TIP3    H128192   4.331   1.695  13.887  0.2197  1.0014 -0.3738
 2259TIP3    H228193   4.256   1.754  14.004 -0.5997 -1.7637  0.5956
 2260TIP3   OH228194   3.028   6.159  14.057 -0.0570  0.2940 -0.2491
 2260TIP3    H128195   3.095   6.150  14.125  0.1996  0.6077 -0.4588
 2260TIP3    H228196   2.978   6.235  14.083 -0.4361 -0.0360 -0.0060
 2261TIP3   OH228197   3.524   0.708  13.226 -0.1788 -0.0703  0.3948
 2261TIP3    H128198   3.583   0.750  13.163  2.8314 -0.2247  2.8824
 2261TIP3    H228199   3.480   0.781  13.270 -0.5730  0.1212 -0.3008
 2262TIP3   OH228200   2.960   3.492  13.083 -0.1208 -0.0619 -0.1291
 2262TIP3    H128201   2.969   3.446  12.999  1.3287  1.8122 -1.0832
 2262TIP3    H228202   2.885   3.550  13.070  0.5614  0.7737 -0.4399
 2263TIP3   OH228203   0.549   5.338  11.315 -0.6398  0.4026  0.0715
 2263TIP3    H128204   0.482   5.299  11.258 -0.9033 -0.4154  0.9164
 2263TIP3    H228205   0.632   5.311  11.276 -0.7862 -2.3569  1.4271
 2264TIP3   OH228206   6.542   2.014   3.888 -0.6114 -0.2138 -0.0947
 2264TIP3    H128207   6.452   2.018   3.920 -0.6386 -1.0866 -0.0332
 2264TIP3    H228208   6.581   2.096   3.917 -0.9147 -0.5453  1.3674
 2265TIP3   OH228209   1.368   5.716   2.158 -0.9452  0.4586  0.4259
 2265TIP3    H128210   1.281   5.682   2.137 -0.7016 -0.2757  0.5620
 2265TIP3    H228211   1.382   5.690   2.249  0.0300 -0.8176 -0.0512
 2266TIP3   OH228212   5.127   4.827   5.281 -0.0916  0.0494 -0.1336
 2266TIP3    H128213   5.037   4.843   5.256  0.0741  1.1009 -0.1043
 2266TIP3    H228214   5.121   4.772   5.359 -0.6753 -0.6622 -0.6700
 2267TIP3   OH228215   5.625   1.725   1.825  0.2612 -0.1709  0.5794
 2267TIP3    H128216   5.698   1.786   1.810  0.5635 -0.9365 -1.3922
 2267TIP3    H228217   5.555   1.757   1.768  0.0372 -1.0152  0.3685
 2268TIP3   OH228218   0.319   2.028   5.016  0.0119  0.3362 -0.1258
 2268TIP3    H128219   0.294   2.079   5.093  0.5646  0.8969 -0.3150
 2268TIP3    H228220   0.305   2.087   4.943  0.6997  0.2398 -0.3429
 2269TIP3   OH228221   1.733   2.104   2.227  0.1208 -0.2173  0.3202
 2269TIP3    H128222   1.757   2.168   2.294  1.5483 -1.4711  1.0666
 2269TIP3    H228223   1.714   2.024   2.276 -0.5316 -0.6893 -0.6647
 2270TIP3   OH228224   5.195   0.582   1.019  0.5657  0.2457 -0.1572
 2270TIP3    H128225   5.283   0.619   1.030  1.7167 -2.1872 -0.5250
 2270TIP3    H228226   5.199   0.534   0.936 -1.9973  2.2541 -1.6062
 2271TIP3   OH228227   4.344   1.805   6.682  0.1235  0.0059 -0.4117
 2271TIP3    H128228   4.298   1.757   6.750 -1.0136  2.7202  0.8842
 2271TIP3    H228229   4.436   1.803   6.709 -0.1882  0.2767  0.7156
 2272TIP3   OH228230   3.778   0.301   3.330 -0.2102  0.2029 -0.3306
 2272TIP3    H128231   3.723   0.230   3.360  0.6117 -0.5913 -0.6649
 2272TIP3    H228232   3.717   0.367   3.298 -1.1918  1.2445  3.2112
 2273TIP3   OH228233   3.938   2.915  15.276  0.5276  0.4637 -0.3049
 2273TIP3    H128234   3.858   2.920  15.329 -0.9961  0.4021 -2.4866
 2273TIP3    H228235   4.002   2.873  15.334 -1.1192  0.1430  1.3895
 2274TIP3   OH228236   1.192   6.710  10.562  0.0014  0.3375 -0.2554
 2274TIP3    H128237   1.238   6.644  10.615 -0.7026  1.0404  1.3121
 2274TIP3    H228238   1.102   6.678  10.558 -0.0880  0.6181 -0.4701
 2275TIP3   OH228239   4.782   0.559  14.852  0.0432  0.0509  0.0030
 2275TIP3    H128240   4.816   0.529  14.936  1.2643 -1.1968 -0.9080
 2275TIP3    H228241   4.717   0.626  14.876  0.8625  0.2371  1.8989
 2276TIP3   OH228242   4.370   2.858  11.223  0.3771  0.3234  0.3286
 2276TIP3    H128243   4.351   2.945  11.260 -0.6963 -0.3096  1.3286
 2276TIP3    H228244   4.288   2.832  11.181 -0.3275 -1.4778  2.6733
 2277TIP3   OH228245   5.178   3.714  15.615 -0.3647 -0.2969 -0.1478
 2277TIP3    H128246   5.115   3.782  15.640 -1.3547 -0.9506 -0.7891
 2277TIP3    H228247   5.185   3.657  15.691 -0.0753  0.1246  0.1421
 2278TIP3   OH228248   5.118   2.511   5.505  0.5724  0.2879 -0.1624
 2278TIP3    H128249   5.023   2.509   5.520  0.8016  1.5410  1.8916
 2278TIP3    H228250   5.153   2.440   5.558  0.8342  0.2546 -0.3780
 2279TIP3   OH228251   2.817   4.036  15.429  0.2286  0.9221  0.6383
 2279TIP3    H128252   2.912   4.030  15.439  0.1241 -0.4132  0.9753
 2279TIP3    H228253   2.792   3.955  15.386 -0.6554  1.7191 -0.4258
 2280TIP3   OH228254   6.303   0.949   6.552 -0.2384 -0.3376  0.0947
 2280TIP3    H128255   6.258   0.902   6.622  0.3861  0.8016  1.2927
 2280TIP3    H228256   6.392   0.914   6.552 -0.1321 -0.0671  0.1237
 2281TIP3   OH228257   4.329   1.474   0.194  0.0781  0.4555  0.3514
 2281TIP3    H128258   4.369   1.387   0.199  2.4977  1.4687  0.0169
 2281TIP3    H228259   4.341   1.511   0.281  2.9266  1.9465 -0.5489
 2282TIP3   OH228260   1.085   0.404  14.822 -0.6147  0.1057 -0.4798
 2282TIP3    H128261   1.102   0.310  14.824 -0.3677  0.1504 -0.4186
 2282TIP3    H228262   1.013   0.414  14.761 -0.1048 -0.0404 -1.1177
 2283TIP3   OH228263   2.260   5.679   2.544 -0.0374 -0.3174 -0.3780
 2283TIP3    H128264   2.178   5.673   2.494 -0.3310  0.5137 -0.0147
 2283TIP3    H228265   2.261   5.769   2.577  0.5616 -0.6063  0.4140
 2284TIP3   OH228266   3.294   2.229   3.984  0.1409 -0.1003  0.5419
 2284TIP3    H128267   3.269   2.148   4.029  0.4564 -0.0636  0.7899
 2284TIP3    H228268   3.227   2.293   4.010  0.5817  0.0516  1.3564
 2285TIP3   OH228269   2.985   6.236   2.329  0.2096  0.5814 -0.7814
 2285TIP3    H128270   2.893   6.249   2.353  0.1635  0.3966 -0.8505
 2285TIP3    H228271   2.993   6.276   2.242  0.4139  1.3857 -0.4007
 2286TIP3   OH228272   2.723   0.602  10.922 -0.5892 -0.8637  0.3180
 2286TIP3    H128273   2.721   0.657  10.843 -0.7436 -0.6029  0.5030
 2286TIP3    H228274   2.740   0.514  10.889 -1.7069 -0.9411 -0.1098
 2287TIP3   OH228275   3.008   4.798  14.653 -0.7982  0.2354 -0.1559
 2287TIP3    H128276   3.010   4.766  14.744 -1.3556  0.1364 -0.1731
 2287TIP3    H228277   2.915   4.816  14.636 -0.8954 -1.0674 -1.1635
 2288TIP3   OH228278   0.744   3.014  15.871 -0.2744  0.5121  0.3110
 2288TIP3    H128279   0.779   3.067  15.942  1.2281  0.7647 -0.5804
 2288TIP3    H228280   0.814   2.951  15.851 -1.0319 -0.1438 -0.3403
 2289TIP3   OH228281   5.226   2.749  13.458 -0.0786  0.3746 -0.4421
 2289TIP3    H128282   5.264   2.684  13.398 -1.6067 -0.7328 -0.2623
 2289TIP3    H228283   5.227   2.831  13.408 -0.5835 -0.3553 -1.7097
 2290TIP3   OH228284   1.704   2.402  13.100  0.2071 -0.0699 -0.6769
 2290TIP3    H128285   1.751   2.413  13.182 -0.2340 -1.2261 -0.2499
 2290TIP3    H228286   1.719   2.484  13.052 -1.6017  1.7420  1.5891
 2291TIP3   OH228287   2.380   4.489   4.484 -0.5177  0.6787  0.7350
 2291TIP3    H128288   2.421   4.404   4.470  0.9866  1.3708  0.7292
 2291TIP3    H228289   2.428   4.527   4.558  0.7159  2.6583 -0.9874
 2292TIP3   OH228290   0.772   1.585   0.347 -0.1891 -0.0580  0.1097
 2292TIP3    H128291   0.804   1.517   0.406 -1.6546 -0.7073  0.1922
 2292TIP3    H228292   0.774   1.544   0.261 -4.3381 -1.6124  0.5137
 2293TIP3   OH228293   2.213   2.955  17.080 -0.4733 -0.3293  0.7704
 2293TIP3    H128294   2.290   2.908  17.048 -0.3407  0.7581 -0.5932
 2293TIP3    H228295   2.142   2.891  17.075 -0.1084 -0.6751 -0.1524
 2294TIP3   OH228296   1.006   2.837   4.180 -0.0978  0.1701 -0.1261
 2294TIP3    H128297   0.990   2.870   4.092  0.7522 -0.7181 -0.6284
 2294TIP3    H228298   1.048   2.910   4.226  0.6789  0.2081 -0.8718
 2295TIP3   OH228299   2.980   2.696  14.598  0.6027 -0.1923  0.2788
 2295TIP3    H128300   3.005   2.759  14.531 -1.3206  0.0323 -0.2988
 2295TIP3    H228301   2.884   2.702  14.602  0.4808 -1.9959  1.2825
 2296TIP3   OH228302   4.822   2.809  11.477  0.0247  0.2551 -0.5717
 2296TIP3    H128303   4.918   2.812  11.477  0.1658 -1.9793  0.7899
 2296TIP3    H228304   4.797   2.843  11.391  2.0784  0.1108 -1.2765
 2297TIP3   OH228305   0.057   0.658   4.559  0.1409 -0.8309  0.1469
 2297TIP3    H128306   0.127   0.719   4.535  1.7341 -2.1600  1.1601
 2297TIP3    H228307   0.056   0.658   4.655 -1.1117 -1.0093  0.1536
 2298TIP3   OH228308   2.291   1.417   5.640 -0.1333  0.2116 -0.0141
 2298TIP3    H128309   2.309   1.472   5.565 -1.9554  0.8272 -0.0528
 2298TIP3    H228310   2.232   1.349   5.606  0.6867 -0.7569  0.4233
 2299TIP3   OH228311   3.125   4.767  12.821 -0.4432 -0.3840  0.7982
 2299TIP3    H128312   3.149   4.781  12.913 -0.5175 -3.3137  1.3612
 2299TIP3    H228313   3.186   4.700  12.790 -1.3135 -0.4428 -0.8851
 2300TIP3   OH228314   6.668   2.558   3.823 -0.1447 -0.2003 -0.1239
 2300TIP3    H128315   6.654   2.513   3.740  0.9300  2.3517 -1.8177
 2300TIP3    H228316   6.756   2.532   3.849  1.4716  2.4743 -2.3428
 2301TIP3   OH228317   3.233   6.358   0.964  0.1205 -0.1767  0.2096
 2301TIP3    H128318   3.276   6.336   0.882 -1.6374 -1.0727 -0.5286
 2301TIP3    H228319   3.296   6.332   1.032  1.1483 -0.4452 -0.8173
 2302TIP3   OH228320   1.327   3.518  12.481 -0.0700  0.3261 -0.1731
 2302TIP3    H128321   1.307   3.597  12.430  0.5316  0.4369 -0.2523
 2302TIP3    H228322   1.258   3.514  12.547  0.6750  1.7597  0.7702
 2303TIP3   OH228323   1.975   3.958   4.537  0.1167  0.0499  0.5792
 2303TIP3    H128324   1.946   3.887   4.593 -1.5539 -0.5978 -1.0006
 2303TIP3    H228325   1.957   4.037   4.588  0.1562 -0.5694  1.5816
 2304TIP3   OH228326   2.880   0.292   4.925  0.3336 -0.0211  0.0565
 2304TIP3    H128327   2.826   0.215   4.945 -1.4798  1.6230  2.0240
 2304TIP3    H228328   2.855   0.317   4.836 -0.8278 -0.3697  0.2670
 2305TIP3   OH228329   2.847   2.793  17.158 -0.0652  0.2951  0.0041
 2305TIP3    H128330   2.872   2.703  17.138 -1.8606 -0.5466  1.2447
 2305TIP3    H228331   2.847   2.796  17.254 -2.1439  0.9362  0.0216
 2306TIP3   OH228332   0.827   1.964   0.720 -0.2115  0.1354 -0.1015
 2306TIP3    H128333   0.802   1.873   0.699  1.6528 -1.1198  2.5720
 2306TIP3    H228334   0.824   2.009   0.636 -0.6124 -2.5594 -1.6576
 2307TIP3   OH228335   6.267   2.882   3.996  0.1802  0.3477 -0.1274
 2307TIP3    H128336   6.260   2.844   4.084  1.2652  0.4640  0.0306
 2307TIP3    H228337   6.334   2.829   3.953  0.3202  0.8760 -0.5664
 2308TIP3   OH228338   4.946   5.161  14.239  0.5579  0.3827 -1.3156
 2308TIP3    H128339   4.979   5.223  14.303  0.5917  1.2022 -2.1144
 2308TIP3    H228340   4.990   5.079  14.259  0.8950  0.7467 -0.5728
 2309TIP3   OH228341   3.914   3.951  11.371  0.1840 -0.3094 -0.4530
 2309TIP3    H128342   3.869   4.008  11.309  1.5475  0.4440 -0.7895
 2309TIP3    H228343   3.936   4.008  11.445 -1.6123 -1.2361  0.8923
 2310TIP3   OH228344   0.278   4.699   4.149  0.0573  0.7593  0.2748
 2310TIP3    H128345   0.349   4.651   4.194 -0.6897 -0.1350  0.5394
 2310TIP3    H228346   0.252   4.767   4.211 -0.0340  0.4065  0.6299
 2311TIP3   OH228347   0.003   1.453  10.755 -0.1866  0.3309 -0.1488
 2311TIP3    H128348  -0.024   1.536  10.795  0.8395  1.2204 -1.2319
 2311TIP3    H228349   0.082   1.475  10.705 -0.3688 -1.1292 -1.1339
 2312TIP3   OH228350   1.807   3.662   3.325 -0.2778 -0.5143 -0.0265
 2312TIP3    H128351   1.882   3.647   3.268 -1.3752  0.8677 -1.9674
 2312TIP3    H228352   1.831   3.622   3.408  2.8875  0.4925 -0.3410
 2313TIP3   OH228353   1.200   0.399  15.808 -0.6971  0.6027 -0.0596
 2313TIP3    H128354   1.110   0.431  15.819 -0.1850  2.2752 -0.4226
 2313TIP3    H228355   1.250   0.442  15.878 -0.1309 -0.1488  0.0142
 2314TIP3   OH228356   1.015   2.407  14.584  0.0645  0.5243  0.2685
 2314TIP3    H128357   0.970   2.323  14.585  0.0180  0.5170 -0.9391
 2314TIP3    H228358   0.946   2.472  14.596 -0.4602  0.5559 -2.3063
 2315TIP3   OH228359   3.025   3.324  15.735  0.3473  0.4033 -0.1750
 2315TIP3    H128360   3.091   3.319  15.804 -0.5186  0.9926  0.7368
 2315TIP3    H228361   2.953   3.373  15.775  0.1193  1.4359 -1.7490
 2316TIP3   OH228362   2.093   1.726   3.717  0.3321  0.3164 -0.2526
 2316TIP3    H128363   2.025   1.743   3.652 -0.3323  1.5910  0.7302
 2316TIP3    H228364   2.175   1.741   3.670 -0.1102  0.2981 -1.0393
 2317TIP3   OH228365   6.538   0.768   1.913 -0.1087 -0.0352 -0.7036
 2317TIP3    H128366   6.552   0.739   1.822  1.2368 -1.0487 -0.1991
 2317TIP3    H228367   6.624   0.796   1.942 -0.6649  0.9188  0.0752
 2318TIP3   OH228368   5.976   3.592   5.699  0.1873  0.2906  0.0417
 2318TIP3    H128369   6.008   3.681   5.716  0.2922  0.5475 -1.3755
 2318TIP3    H228370   6.037   3.556   5.635  0.2985 -0.9236  0.7919
 2319TIP3   OH228371   1.949   3.144  11.345  0.3246  0.4675 -0.2866
 2319TIP3    H128372   1.962   3.201  11.270  0.3589  1.2670  0.3193
 2319TIP3    H228373   1.866   3.100  11.329  1.0483 -0.5154 -1.5152
 2320TIP3   OH228374   5.388   4.098   1.228  0.0836 -0.1206 -0.6319
 2320TIP3    H128375   5.343   4.094   1.144 -0.9903  0.7881 -0.1224
 2320TIP3    H228376   5.319   4.092   1.293  0.8751 -0.5096  0.2046
 2321TIP3   OH228377   1.580   3.791   3.626 -0.3424  0.2538 -0.2130
 2321TIP3    H128378   1.675   3.792   3.611 -0.2947 -1.1508 -0.1007
 2321TIP3    H228379   1.567   3.853   3.698 -0.0140  3.3830 -2.5880
 2322TIP3   OH228380   3.390   6.269   0.312  0.1942 -0.1078  0.5130
 2322TIP3    H128381   3.437   6.237   0.235 -0.4661  0.0797  0.0195
 2322TIP3    H228382   3.454   6.320   0.361 -0.2651  3.1191 -1.9027
 2323TIP3   OH228383   5.243   6.510   0.003 -0.0180 -0.2602  0.1853
 2323TIP3    H128384   5.196   6.554  -0.067  0.5989  2.3253  1.2855
 2323TIP3    H228385   5.177   6.496   0.072  0.0630  0.0978  0.3343
 2324TIP3   OH228386   4.832   2.352  15.655  0.3161  0.3756  0.0026
 2324TIP3    H128387   4.799   2.269  15.690 -1.9207  1.4548  0.6514
 2324TIP3    H228388   4.758   2.412  15.664  2.2510  2.8027  0.7720
 2325TIP3   OH228389   6.422   1.506   5.475  0.1335 -0.3811 -0.0756
 2325TIP3    H128390   6.491   1.524   5.539  1.5099 -1.9342 -1.0438
 2325TIP3    H228391   6.424   1.580   5.415 -0.3904  0.5197  0.9796
 2326TIP3   OH228392   0.820   4.497  14.278 -0.1668  0.1238 -0.3128
 2326TIP3    H128393   0.772   4.579  14.267  0.9007  0.6581 -1.0753
 2326TIP3    H228394   0.882   4.495  14.206  0.0319 -1.2167 -0.1292
 2327TIP3   OH228395   5.993   3.050  17.000 -0.4597  0.0910 -0.3234
 2327TIP3    H128396   5.995   3.144  16.982  2.7793  0.2952  0.4896
 2327TIP3    H228397   6.077   3.032  17.043 -1.0488 -3.1516 -0.2918
 2328TIP3   OH228398   6.541   3.691   3.997  0.3076  0.4339 -1.0373
 2328TIP3    H128399   6.587   3.770   4.026 -1.1216  1.1944 -0.7407
 2328TIP3    H228400   6.454   3.699   4.036  0.3645 -1.6880 -0.3713
 2329TIP3   OH228401   2.482   0.583  12.347 -0.0621 -0.0098 -0.5572
 2329TIP3    H128402   2.498   0.528  12.424 -0.0569  0.3795 -0.2735
 2329TIP3    H228403   2.459   0.522  12.278  0.8334 -0.4455 -0.4886
 2330TIP3   OH228404   5.762   3.586   3.580 -0.2822 -0.1802 -0.3664
 2330TIP3    H128405   5.697   3.556   3.644  0.1582  1.3007  0.8426
 2330TIP3    H228406   5.814   3.508   3.560 -0.5186 -0.7205  0.9937
 2331TIP3   OH228407   3.427   1.292  16.408  0.1565 -0.4955  0.3757
 2331TIP3    H128408   3.497   1.308  16.345  1.2215 -1.9620  1.1205
 2331TIP3    H228409   3.357   1.253  16.355 -0.2296  1.1735 -0.4105
 2332TIP3   OH228410   6.506   3.632  12.583  0.0292 -0.2518  0.5060
 2332TIP3    H128411   6.501   3.615  12.677 -0.3774 -0.5740  0.4300
 2332TIP3    H228412   6.430   3.586  12.546  0.3697 -0.4021 -0.0202
 2333TIP3   OH228413   4.972   5.288   3.530  0.5641 -0.5067 -0.4799
 2333TIP3    H128414   5.066   5.269   3.521  0.8087  0.2339  0.2795
 2333TIP3    H228415   4.933   5.259   3.447  1.8999  1.7083 -2.0003
 2334TIP3   OH228416   0.869   4.620  11.826 -0.3211 -0.0955 -0.2148
 2334TIP3    H128417   0.778   4.647  11.823 -0.3420 -0.1001  0.2000
 2334TIP3    H228418   0.870   4.547  11.888 -0.2491 -0.9805 -1.2265
 2335TIP3   OH228419   1.256   5.136   1.735 -0.4148  0.0250 -0.0094
 2335TIP3    H128420   1.230   5.045   1.719  1.6911 -0.6593  0.1990
 2335TIP3    H228421   1.306   5.134   1.817 -0.5504  1.4226  0.1427
 2336TIP3   OH228422   2.629   3.013  12.692 -0.2216 -0.5605  0.4788
 2336TIP3    H128423   2.569   3.035  12.620 -1.0843  2.5502  1.9782
 2336TIP3    H228424   2.712   3.054  12.668 -0.1767 -0.5003  0.7361
 2337TIP3   OH228425   1.691   0.547  14.025 -0.0932  0.2159 -0.2235
 2337TIP3    H128426   1.745   0.518  13.952 -0.7464 -0.3118 -0.5096
 2337TIP3    H228427   1.751   0.549  14.100  0.2898 -0.5289 -0.4968
 2338TIP3   OH228428   3.764   1.380   4.712 -0.2957  0.3608 -0.1447
 2338TIP3    H128429   3.756   1.466   4.752  1.4191  0.0495  0.9870
 2338TIP3    H228430   3.749   1.319   4.785  0.3186 -0.2577 -0.5241
 2339TIP3   OH228431   2.652   6.655   1.198  0.7154 -0.5035  0.0675
 2339TIP3    H128432   2.700   6.680   1.119  0.2391 -0.5694 -0.2494
 2339TIP3    H228433   2.615   6.569   1.177  1.3340 -0.9291  0.6976
 2340TIP3   OH228434   5.891   5.233  16.521 -0.4235 -0.0930 -0.0485
 2340TIP3    H128435   5.918   5.202  16.608 -0.2176  0.1564 -0.0241
 2340TIP3    H228436   5.966   5.214  16.465 -1.1411 -1.7601 -0.5287
 2341TIP3   OH228437   0.046   2.598   2.324  0.2489 -0.5114  0.2759
 2341TIP3    H128438   0.133   2.586   2.363  0.4894  2.3101  0.8014
 2341TIP3    H228439  -0.013   2.598   2.399  0.4141  2.3043  0.5034
 2342TIP3   OH228440   4.501   6.043   1.568  0.1915 -0.0614 -0.4384
 2342TIP3    H128441   4.440   5.974   1.542  0.4691 -1.1959  1.7167
 2342TIP3    H228442   4.453   6.096   1.631  0.8169  0.1285 -0.1065
 2343TIP3   OH228443   2.348   3.004  13.622 -0.4087  0.5978  0.0719
 2343TIP3    H128444   2.416   3.037  13.562 -0.7792 -0.0665 -0.7377
 2343TIP3    H228445   2.330   3.078  13.680  0.6270  0.9582 -0.0362
 2344TIP3   OH228446   6.429   0.229   0.847  0.4466  0.0088 -0.1865
 2344TIP3    H128447   6.434   0.325   0.846  0.1696  0.0227 -0.2754
 2344TIP3    H228448   6.520   0.200   0.835  0.7090  0.2589  1.0859
 2345TIP3   OH228449   1.758   6.060   3.350  0.1026 -0.1228  0.0334
 2345TIP3    H128450   1.783   6.025   3.265  0.3852 -0.9961  0.4658
 2345TIP3    H228451   1.841   6.087   3.389 -0.0403  0.3939 -0.0126
 2346TIP3   OH228452   0.587   5.001   3.977  0.4056  0.2016 -0.2075
 2346TIP3    H128453   0.500   5.000   4.018  0.0996  1.6260 -0.7727
 2346TIP3    H228454   0.589   5.082   3.926  2.4939  0.8027  0.7092
 2347TIP3   OH228455   4.434   4.210   4.530 -0.0732 -0.5423 -0.5419
 2347TIP3    H128456   4.355   4.249   4.567  0.2937  0.1010 -0.4132
 2347TIP3    H228457   4.416   4.206   4.436 -0.2247 -0.3091 -0.5249
 2348TIP3   OH228458   2.752   0.432   4.156 -0.1550  0.0078 -0.1043
 2348TIP3    H128459   2.815   0.419   4.086 -1.4970 -0.7924 -1.2174
 2348TIP3    H228460   2.758   0.525   4.177  1.6829 -0.1410  0.1324
 2349TIP3   OH228461   3.129   2.559  15.685  0.0619 -0.3778 -0.6427
 2349TIP3    H128462   3.050   2.610  15.667 -0.1389 -0.8742 -1.1750
 2349TIP3    H228463   3.145   2.508  15.605  0.4061 -0.9548 -0.2192
 2350TIP3   OH228464   2.344   1.016   2.411 -0.1944 -0.1603 -0.1993
 2350TIP3    H128465   2.418   0.956   2.427 -0.6807 -0.2693  1.8374
 2350TIP3    H228466   2.266   0.964   2.432 -0.8478  0.1626 -1.6947
 2351TIP3   OH228467   5.674   5.383  10.648 -0.1671  1.0036 -0.2995
 2351TIP3    H128468   5.615   5.423  10.585 -1.9223  1.0235  1.2658
 2351TIP3    H228469   5.656   5.429  10.730 -2.3001 -2.8203  1.6158
 2352TIP3   OH228470   5.059   2.963   6.571 -0.1785  0.2353 -0.4343
 2352TIP3    H128471   5.085   3.046   6.532  3.2402 -0.5103 -0.0824
 2352TIP3    H228472   4.999   2.924   6.507  1.0906  1.3619 -2.4030
 2353TIP3   OH228473   1.010   2.959  12.810 -0.0043  0.5789  0.0220
 2353TIP3    H128474   1.035   2.867  12.820  0.6332  0.9609  2.9031
 2353TIP3    H228475   0.981   2.967  12.720  0.3673 -2.3401 -0.4334
 2354TIP3   OH228476   3.156   5.650  12.116 -0.1856 -0.3747  0.1330
 2354TIP3    H128477   3.164   5.657  12.212 -1.0667  1.8750  0.1229
 2354TIP3    H228478   3.227   5.705  12.083  0.2042 -1.2641 -0.5162
 2355TIP3   OH228479   4.864   6.083   4.792 -0.4764  0.0056 -0.2082
 2355TIP3    H128480   4.860   6.071   4.697  1.3168 -1.0750 -0.1927
 2355TIP3    H228481   4.904   6.170   4.802 -0.0269 -0.1696 -0.4520
 2356TIP3   OH228482   0.007   3.980  11.405 -0.4793 -0.3243  0.1788
 2356TIP3    H128483  -0.025   3.903  11.358  1.9677 -0.5013 -1.3868
 2356TIP3    H228484   0.070   3.945  11.469  2.1153  0.3252 -1.8158
 2357TIP3   OH228485   0.859   6.480  15.486 -0.0244 -0.3412 -0.6997
 2357TIP3    H128486   0.856   6.504  15.393  0.8295 -0.2241 -0.6989
 2357TIP3    H228487   0.882   6.561  15.532 -1.0891 -0.2381 -0.3068
 2358TIP3   OH228488   1.810   0.539  13.486 -0.5029  0.4556 -0.3289
 2358TIP3    H128489   1.863   0.517  13.563  0.3458  0.7500 -0.8153
 2358TIP3    H228490   1.861   0.506  13.412 -1.3482  0.1022 -0.7721
 2359TIP3   OH228491   6.496   5.815   1.338 -0.2186 -0.1770 -0.2340
 2359TIP3    H128492   6.576   5.764   1.328 -0.4581 -0.7783  0.7548
 2359TIP3    H228493   6.470   5.838   1.249  1.6776  1.0412 -0.5306
 2360TIP3   OH228494   1.957   4.992   1.591 -0.8215  0.7094 -0.2153
 2360TIP3    H128495   1.955   4.928   1.519 -0.7709  1.3567 -0.8064
 2360TIP3    H228496   1.869   5.031   1.590 -1.6703 -0.9669  1.6665
 2361TIP3   OH228497   4.459   4.289   0.060  0.9848 -0.0285  0.1988
 2361TIP3    H128498   4.443   4.237   0.138 -0.6432 -0.6713 -0.5281
 2361TIP3    H228499   4.378   4.337   0.046  0.9140 -0.6019 -1.5880
 2362TIP3   OH228500   6.291   3.764  15.963 -0.5846 -0.1453  0.3523
 2362TIP3    H128501   6.255   3.676  15.971  0.1537 -0.4303  0.6590
 2362TIP3    H228502   6.301   3.794  16.053  0.4545 -0.2966  0.3032
 2363TIP3   OH228503   4.063   6.175  14.489 -0.4398 -0.2963 -0.1237
 2363TIP3    H128504   4.153   6.171  14.521  0.2343  1.3398 -1.6658
 2363TIP3    H228505   4.071   6.185  14.394 -2.3070 -1.4958 -0.4712
 2364TIP3   OH228506   3.338   1.828   2.352 -0.0983  0.2490  0.4049
 2364TIP3    H128507   3.408   1.877   2.309 -0.7396  0.8083 -0.0323
 2364TIP3    H228508   3.345   1.740   2.316 -0.3325  0.5911 -0.5371
 2365TIP3   OH228509   0.489   1.056   0.166  0.1798  0.6556 -0.3896
 2365TIP3    H128510   0.423   1.032   0.101  0.4284  1.5937 -1.0173
 2365TIP3    H228511   0.559   0.993   0.153  0.5030  1.2106 -1.4950
 2366TIP3   OH228512   6.500   3.072  14.248  0.6560  0.1599 -0.4257
 2366TIP3    H128513   6.558   3.053  14.174 -1.8583 -0.1128 -2.4830
 2366TIP3    H228514   6.456   3.154  14.224 -1.0924 -0.5598  0.1471
 2367TIP3   OH228515   2.571   4.397   3.278 -0.1137 -0.0236 -0.1604
 2367TIP3    H128516   2.655   4.405   3.323  0.2930 -0.1133 -0.8984
 2367TIP3    H228517   2.520   4.337   3.332  0.0535  0.5320  0.6388
 2368TIP3   OH228518   6.441   3.096   4.502 -0.2132 -0.3782 -0.5373
 2368TIP3    H128519   6.513   3.159   4.492 -0.5682 -0.2521 -2.7558
 2368TIP3    H228520   6.384   3.135   4.568  2.0137 -0.7860  1.7950
 2369TIP3   OH228521   3.404   6.072  15.203  0.0842 -0.0740  0.2395
 2369TIP3    H128522   3.355   6.007  15.253  1.7142  0.1587  2.2526
 2369TIP3    H228523   3.393   6.153  15.251  2.3994 -0.0208  0.8033
 2370TIP3   OH228524   2.409   4.752  11.495 -0.5816 -0.0933 -0.1577
 2370TIP3    H128525   2.490   4.802  11.506 -0.5448 -0.1004 -0.3915
 2370TIP3    H228526   2.376   4.740  11.584  0.1616 -0.9035  0.0170
 2371TIP3   OH228527   2.753   2.397  16.315  0.1508  0.9190  0.4324
 2371TIP3    H128528   2.832   2.385  16.367  0.3499  2.3522  0.4845
 2371TIP3    H228529   2.779   2.375  16.225  0.2060 -0.0496  0.6736
 2372TIP3   OH228530   3.143   1.797   3.787  0.4105  0.6371 -0.5153
 2372TIP3    H128531   3.170   1.814   3.696  1.7473 -0.1263 -0.2828
 2372TIP3    H228532   3.049   1.780   3.781  0.8780 -1.9321 -2.1522
 2373TIP3   OH228533   3.628   4.069  12.583  0.2831 -0.0770  0.3148
 2373TIP3    H128534   3.606   3.977  12.594  0.7208 -0.3525 -0.9369
 2373TIP3    H228535   3.544   4.114  12.581 -0.0599 -0.7312 -1.2585
 2374TIP3   OH228536   4.083   6.257  14.198  0.0809 -0.3376  0.1457
 2374TIP3    H128537   4.039   6.340  14.213 -0.7245 -0.4377 -1.4760
 2374TIP3    H228538   4.039   6.220  14.122  1.0052 -1.8498  0.3101
 2375TIP3   OH228539   2.072   4.757  11.697 -0.3744  0.4610  0.5614
 2375TIP3    H128540   2.026   4.811  11.634 -0.2109  2.4350  2.0272
 2375TIP3    H228541   2.003   4.718  11.751 -0.4457  0.5240  0.5154
 2376TIP3   OH228542   4.775   3.807  12.699  0.3969  0.7368 -0.1729
 2376TIP3    H128543   4.716   3.732  12.705 -0.5034  1.5588  3.3345
 2376TIP3    H228544   4.857   3.771  12.664 -0.5978 -1.4362 -0.4295
 2377TIP3   OH228545   6.532   4.448   3.746 -0.3538  0.1429  0.6212
 2377TIP3    H128546   6.551   4.541   3.760 -1.1968  0.5129 -0.5438
 2377TIP3    H228547   6.505   4.416   3.832 -0.3258  1.0329  0.9750
 2378TIP3   OH228548   2.589   0.369   3.301  0.2977  0.7425 -0.0875
 2378TIP3    H128549   2.654   0.439   3.294  0.6992  0.5604  1.4585
 2378TIP3    H228550   2.611   0.324   3.383 -0.7317 -0.4039 -0.4088
 2379TIP3   OH228551   1.576   4.099   0.560  0.0278  0.4692 -0.1073
 2379TIP3    H128552   1.595   4.186   0.596 -3.1095  1.3037 -0.1283
 2379TIP3    H228553   1.513   4.115   0.490 -0.2627 -1.7933 -0.4466
 2380TIP3   OH228554   2.739   6.427  11.422  0.5547 -0.0186  0.2306
 2380TIP3    H128555   2.766   6.417  11.330 -2.0090  1.1714 -0.7621
 2380TIP3    H228556   2.652   6.387  11.425 -1.1869  3.4692  1.0450
 2381TIP3   OH228557   6.178   3.993   5.431 -0.4237 -0.1207  0.2522
 2381TIP3    H128558   6.141   4.045   5.502 -2.2079  0.2327 -0.8750
 2381TIP3    H228559   6.260   4.036   5.408 -0.7689  0.8609  0.8450
 2382TIP3   OH228560   0.132   2.512  15.465 -0.1388 -0.1558  0.2072
 2382TIP3    H128561   0.125   2.527  15.559 -1.0276  0.3636  0.0700
 2382TIP3    H228562   0.192   2.580  15.434 -0.7881  0.4410  0.2323
 2383TIP3   OH228563   4.613   2.891  12.856  0.0505  0.4041  0.5524
 2383TIP3    H128564   4.558   2.856  12.926  1.8700 -2.3238  0.7905
 2383TIP3    H228565   4.552   2.912  12.786 -1.8358  3.1060  2.7578
 2384TIP3   OH228566   2.125   4.378  13.359 -0.0872 -0.2552  0.2096
 2384TIP3    H128567   2.042   4.421  13.338  0.1417 -0.2570 -0.7772
 2384TIP3    H228568   2.158   4.424  13.435  0.3402  1.6108 -1.0349
 2385TIP3   OH228569   5.853   4.205   3.667 -0.2487  0.1179  0.1654
 2385TIP3    H128570   5.914   4.138   3.699 -1.1482 -0.3362  1.0350
 2385TIP3    H228571   5.833   4.178   3.578  0.5172  0.0549  0.0040
 2386TIP3   OH228572   2.766   3.455  16.240  0.2375 -0.1867 -1.1903
 2386TIP3    H128573   2.710   3.401  16.185  1.5177 -1.6946 -1.0998
 2386TIP3    H228574   2.842   3.400  16.259 -0.6869 -0.3089  3.1816
 2387TIP3   OH228575   1.463   1.905   4.389 -0.2115 -0.5603 -0.2232
 2387TIP3    H128576   1.379   1.925   4.432 -0.4780 -2.0602  0.0155
 2387TIP3    H228577   1.466   1.964   4.314 -1.9967 -1.1870 -0.8404
 2388TIP3   OH228578   1.242   1.907  12.722 -0.1076  0.2813 -0.5430
 2388TIP3    H128579   1.170   1.969  12.720 -0.4152 -0.0710 -0.5473
 2388TIP3    H228580   1.236   1.866  12.808  0.6734  0.9279 -0.1696
 2389TIP3   OH228581   3.985   1.203  16.046 -0.6049 -0.2429 -0.1158
 2389TIP3    H128582   3.910   1.158  16.008  0.2326 -1.9908  0.2016
 2389TIP3    H228583   3.946   1.275  16.097 -2.0258 -0.8687 -0.2639
 2390TIP3   OH228584   4.477   1.944   4.938 -0.4668  0.3189  0.5406
 2390TIP3    H128585   4.564   1.976   4.914 -0.8421  0.1668 -1.1645
 2390TIP3    H228586   4.494   1.865   4.990  0.4662 -0.6405 -1.1056
 2391TIP3   OH228587   4.961   0.124  11.140 -0.1851  0.1729  0.0248
 2391TIP3    H128588   4.945   0.217  11.123  0.3691  0.1244 -0.8123
 2391TIP3    H228589   5.045   0.106  11.097  0.0604 -0.5459  0.7956
 2392TIP3   OH228590   5.794   0.972  15.574  0.0673 -0.4977  0.1633
 2392TIP3    H128591   5.782   1.046  15.515  2.4168 -0.6977 -0.6767
 2392TIP3    H228592   5.742   0.993  15.651 -0.7641  1.1457 -0.8131
 2393TIP3   OH228593   2.266   3.440   5.293  0.3437 -0.4072  0.0334
 2393TIP3    H128594   2.289   3.403   5.379 -1.0170  0.4894  0.8213
 2393TIP3    H228595   2.192   3.387   5.264  0.3580 -0.2680 -0.2559
 2394TIP3   OH228596   1.408   2.800  12.296  0.6092 -0.4528  0.0173
 2394TIP3    H128597   1.475   2.811  12.228  0.9240 -1.3253  0.1820
 2394TIP3    H228598   1.357   2.724  12.267  0.0490 -0.1504  0.1937
 2395TIP3   OH228599   5.788   2.181  16.763 -0.2752 -0.1076 -0.0439
 2395TIP3    H128600   5.738   2.193  16.844 -0.8689  0.9326 -0.5420
 2395TIP3    H228601   5.738   2.228  16.697  0.9869  0.3328 -0.7179
 2396TIP3   OH228602   3.474   5.942   1.965  0.1403  0.2224  0.0816
 2396TIP3    H128603   3.407   5.933   1.897  0.0423  0.4147  0.1525
 2396TIP3    H228604   3.474   5.857   2.010  2.2368 -1.0003 -2.0087
 2397TIP3   OH228605   5.642   1.048   2.936 -0.6008  0.5174 -0.2876
 2397TIP3    H128606   5.600   1.117   2.988  0.0028  0.1074  0.7623
 2397TIP3    H228607   5.700   1.095   2.876 -1.1269  0.9831 -0.4435
 2398TIP3   OH228608   6.108   1.868   2.934  0.6775 -0.4624 -0.0275
 2398TIP3    H128609   6.203   1.856   2.936  0.8160  0.6284  0.9601
 2398TIP3    H228610   6.074   1.783   2.906  1.9093 -1.0582  0.2107
 2399TIP3   OH228611   6.350   4.265   3.903  0.1782  0.6406 -0.2000
 2399TIP3    H128612   6.349   4.239   3.995  1.3739  1.4082  0.0402
 2399TIP3    H228613   6.345   4.182   3.855  0.9662  0.1469  0.5584
 2400TIP3   OH228614   4.392   6.346   5.862  0.8119  0.3729 -0.2368
 2400TIP3    H128615   4.349   6.351   5.777 -1.8715  1.1195  1.0407
 2400TIP3    H228616   4.430   6.259   5.865  0.8880  0.3014 -2.1460
 2401TIP3   OH228617   4.485   6.654   0.833  0.4288  0.2865 -0.7560
 2401TIP3    H128618   4.576   6.629   0.850  0.5794  0.1278 -1.7045
 2401TIP3    H228619   4.490   6.742   0.798  0.4515 -0.4888 -2.8515
 2402TIP3   OH228620   2.189   1.451   4.677  0.1131 -0.4111  0.0105
 2402TIP3    H128621   2.245   1.374   4.691 -1.3733 -1.2370  1.7321
 2402TIP3    H228622   2.101   1.415   4.669 -0.6619  1.1344  1.2171
 2403TIP3   OH228623   1.047   2.752  15.052  0.7437  0.3634 -0.5546
 2403TIP3    H128624   0.971   2.783  15.004  1.1215  0.3300 -1.1913
 2403TIP3    H228625   1.069   2.669  15.010  0.4932 -0.1480  0.3164
 2404TIP3   OH228626   0.879   4.104  12.872 -0.9199  0.2995  0.7578
 2404TIP3    H128627   0.972   4.126  12.878 -0.8745  0.0757  0.8827
 2404TIP3    H228628   0.878   4.011  12.848 -1.0878  0.8320 -1.5526
 2405TIP3   OH228629   4.140   4.112   2.056  0.0705 -0.2198  0.0489
 2405TIP3    H128630   4.072   4.107   1.989 -0.6444  1.3603  0.5936
 2405TIP3    H228631   4.198   4.182   2.025  1.8106 -1.8788 -0.6728
 2406TIP3   OH228632   5.593   3.223  14.592  0.1352 -0.6657 -0.2790
 2406TIP3    H128633   5.591   3.227  14.688 -3.5894  1.1472 -0.2190
 2406TIP3    H228634   5.515   3.173  14.569 -0.1621  0.6062 -2.2966
 2407TIP3   OH228635   1.989   4.546  13.557 -0.4527 -0.2720 -0.4480
 2407TIP3    H128636   2.058   4.583  13.612  0.1026  1.0943 -1.9945
 2407TIP3    H228637   1.939   4.490  13.616  1.4051 -0.5690  0.9430
 2408TIP3   OH228638   3.739   4.701   0.868  0.6190 -0.3498 -0.0222
 2408TIP3    H128639   3.719   4.659   0.952  0.2217 -0.6713 -0.2784
 2408TIP3    H228640   3.833   4.719   0.873  0.3124  1.1569  1.1834
 2409TIP3   OH228641   3.426   5.245   3.799 -0.6439 -0.2561 -0.1011
 2409TIP3    H128642   3.423   5.303   3.723 -2.4360 -0.9300 -0.6039
 2409TIP3    H228643   3.468   5.297   3.867  0.0856  0.7183 -1.2657
 2410TIP3   OH228644   6.105   5.853  17.087  0.2352  0.0451 -1.0335
 2410TIP3    H128645   6.200   5.853  17.095  0.2466 -1.1250 -0.9923
 2410TIP3    H228646   6.081   5.761  17.085 -0.9793  0.3082 -0.0477
 2411TIP3   OH228647   6.788   1.116  12.284 -0.0259 -0.1923  0.2846
 2411TIP3    H128648   6.829   1.103  12.198 -2.2454 -1.1709 -0.7073
 2411TIP3    H228649   6.721   1.182  12.269  0.7692  0.9953  1.7322
 2412TIP3   OH228650   1.701   5.846   0.096 -0.4264  0.0325  0.1048
 2412TIP3    H128651   1.765   5.900   0.051  0.3758  0.5589  1.7999
 2412TIP3    H228652   1.631   5.834   0.032  0.2282  1.5215 -0.9538
 2413TIP3   OH228653   4.333   0.220  17.011 -0.6737  0.2415  0.1471
 2413TIP3    H128654   4.341   0.273  17.091 -0.9569  0.5950 -0.0560
 2413TIP3    H228655   4.252   0.251  16.970 -0.2593  0.4320 -0.5425
 2414TIP3   OH228656   5.216   6.271   1.616 -0.3677  0.5327 -0.1775
 2414TIP3    H128657   5.306   6.282   1.649 -0.2328  0.2072 -0.4284
 2414TIP3    H228658   5.191   6.183   1.646  0.1912 -0.2686 -1.9354
 2415TIP3   OH228659   0.535   4.878   3.512 -0.0651  0.2151  0.0815
 2415TIP3    H128660   0.507   4.808   3.453 -0.2375 -0.8696  1.3981
 2415TIP3    H228661   0.465   4.882   3.578  0.2247  1.2421  0.3340
 2416TIP3   OH228662   3.439   5.235   2.571  0.2764  0.1014 -0.0678
 2416TIP3    H128663   3.480   5.149   2.577 -0.7038 -0.4683 -1.2698
 2416TIP3    H228664   3.366   5.224   2.511 -0.2292  1.6450  0.2026
 2417TIP3   OH228665   1.000   4.920  16.463  0.2127  0.3284  0.3845
 2417TIP3    H128666   1.009   5.009  16.494  0.8802  0.2189  0.5235
 2417TIP3    H228667   1.048   4.919  16.380  1.5592 -0.2798  1.1423
 2418TIP3   OH228668   0.035   4.317  12.076  0.2734  0.1377 -0.1470
 2418TIP3    H128669   0.043   4.412  12.086 -0.0822  0.1298  0.2452
 2418TIP3    H228670   0.097   4.281  12.139 -1.4946  0.0956  1.6576
 2419TIP3   OH228671   0.854   2.206  12.076  0.1420  0.0797  0.2321
 2419TIP3    H128672   0.818   2.205  12.165  0.4336  1.3376  0.3841
 2419TIP3    H228673   0.792   2.257  12.025  1.1453  1.3573  0.2530
 2420TIP3   OH228674   4.405   4.196   1.013  0.4506  0.0556 -0.5154
 2420TIP3    H128675   4.475   4.136   0.989 -0.0881 -0.1167 -1.7166
 2420TIP3    H228676   4.386   4.175   1.105  1.0473 -0.8162 -0.5793
 2421TIP3   OH228677   1.849   3.492   6.426  0.8563 -0.3123 -0.3894
 2421TIP3    H128678   1.797   3.451   6.357  1.6094 -2.0960  0.0339
 2421TIP3    H228679   1.791   3.494   6.502  0.8051 -0.6439 -0.4160
 2422TIP3   OH228680   3.643   3.275   5.749  0.0479  0.1700 -0.1313
 2422TIP3    H128681   3.641   3.182   5.771 -0.0984  0.1428 -0.2538
 2422TIP3    H228682   3.575   3.285   5.682  0.9915  0.0971 -1.1364
 2423TIP3   OH228683   0.964   4.948  14.544  0.3307  0.2088  0.5271
 2423TIP3    H128684   0.873   4.923  14.557  0.1099 -0.8350 -2.4332
 2423TIP3    H228685   0.961   5.039  14.514  0.1829 -0.0816 -0.3524
 2424TIP3   OH228686   3.219   6.346  11.632 -0.1577 -0.3472 -0.5008
 2424TIP3    H128687   3.132   6.359  11.593 -0.5585  1.0897  0.7617
 2424TIP3    H228688   3.275   6.321  11.558 -1.4008 -0.1599 -1.5503
 2425TIP3   OH228689   4.835   3.102  13.397 -0.2020  0.5833 -0.9024
 2425TIP3    H128690   4.916   3.142  13.367 -0.3524  2.0989  0.5932
 2425TIP3    H228691   4.854   3.072  13.486 -0.9250 -0.2024 -0.9912
 2426TIP3   OH228692   4.876   4.007   6.130  0.2431 -0.2026  0.0140
 2426TIP3    H128693   4.872   3.912   6.124  1.3371 -0.2485 -0.2877
 2426TIP3    H228694   4.793   4.037   6.092 -0.2428 -1.0320  0.3967
 2427TIP3   OH228695   6.022   1.427   4.851 -0.4604  0.0531  0.5841
 2427TIP3    H128696   6.067   1.512   4.853 -1.0297  0.3560  2.3816
 2427TIP3    H228697   5.931   1.449   4.867 -0.6970 -0.8694  0.5188
 2428TIP3   OH228698   4.716   4.771   0.737 -0.2228  0.0678  0.0154
 2428TIP3    H128699   4.752   4.859   0.733 -0.9937  0.3618 -1.1254
 2428TIP3    H228700   4.629   4.782   0.775 -0.8662  0.0260 -1.3630
 2429TIP3   OH228701   0.214   1.836  13.797 -0.3933 -0.3101 -0.1124
 2429TIP3    H128702   0.288   1.897  13.793 -1.2942  0.8658  0.3231
 2429TIP3    H228703   0.184   1.830  13.706  0.0282 -0.5315 -0.2397
 2430TIP3   OH228704   0.631   2.772  11.675 -0.3108 -0.3089  0.0532
 2430TIP3    H128705   0.616   2.764  11.770 -0.1189  0.7526  0.1870
 2430TIP3    H228706   0.550   2.810  11.642  0.0255  0.3230 -0.0460
 2431TIP3   OH228707   2.068   6.688  15.296 -0.0164  0.2024  0.2373
 2431TIP3    H128708   1.990   6.693  15.240  1.4139 -1.5443 -2.0868
 2431TIP3    H228709   2.061   6.603  15.339 -0.1918  0.7679  1.3592
 2432TIP3   OH228710   3.160   6.429   2.769 -0.1461  0.3419  0.3320
 2432TIP3    H128711   3.180   6.336   2.763 -0.4886  0.0842  2.3809
 2432TIP3    H228712   3.114   6.449   2.687  2.0388 -0.6747 -1.2517
 2433TIP3   OH228713   3.805   6.062   5.020 -0.2959 -0.0217  0.3359
 2433TIP3    H128714   3.829   6.149   4.987  1.7307 -0.8520 -0.5691
 2433TIP3    H228715   3.849   6.057   5.105  0.1664 -0.3842  0.0825
 2434TIP3   OH228716   1.447   5.863   3.722  0.3267  0.2147 -0.9301
 2434TIP3    H128717   1.478   5.950   3.697  0.7376  1.1747  2.4109
 2434TIP3    H228718   1.352   5.872   3.730  0.3285  0.2603 -0.9632
 2435TIP3   OH228719   5.939   0.146  16.844  0.3347  0.2851 -0.2605
 2435TIP3    H128720   5.939   0.239  16.821 -0.3409 -0.1027 -2.0200
 2435TIP3    H228721   5.970   0.102  16.764  1.0425 -0.9771  0.6748
 2436TIP3   OH228722   5.702   1.585  17.136  0.0596 -0.2150  0.1359
 2436TIP3    H128723   5.644   1.540  17.075  0.4062  0.9360 -1.1150
 2436TIP3    H228724   5.706   1.675  17.102  1.0598  0.2022  1.2973
 2437TIP3   OH228725   4.370   4.051   5.437  0.0715 -0.4002 -0.1915
 2437TIP3    H128726   4.338   4.064   5.348  1.4961 -1.1478 -0.8372
 2437TIP3    H228727   4.335   4.125   5.486 -2.2716 -0.9320 -0.9156
 2438TIP3   OH228728   1.347   3.114   4.675 -0.0110  0.1486  0.0843
 2438TIP3    H128729   1.418   3.137   4.735  2.1038 -0.2327 -2.1082
 2438TIP3    H228730   1.271   3.101   4.731  1.8495 -0.2921  2.6766
 2439TIP3   OH228731   5.465   1.615  12.013 -0.3728 -0.1346 -0.9045
 2439TIP3    H128732   5.375   1.624  11.981 -0.7528  1.4020  0.4381
 2439TIP3    H228733   5.519   1.627  11.935 -1.2923 -3.2325 -2.1312
 2440TIP3   OH228734   0.153   0.633  13.159  0.5958 -0.5329 -0.4949
 2440TIP3    H128735   0.178   0.703  13.099  1.7403 -0.4669  0.0206
 2440TIP3    H228736   0.137   0.677  13.242  1.3428 -0.8752 -0.1613
 2441TIP3   OH228737   3.014   6.067  12.913 -0.2878  0.5148 -0.0681
 2441TIP3    H128738   2.934   6.014  12.920  1.4791 -2.2661  0.6321
 2441TIP3    H228739   3.029   6.097  13.003 -0.3468  0.7400 -0.1336
 2442TIP3   OH228740   5.968   0.392   0.970  0.3065  0.1867  0.3276
 2442TIP3    H128741   5.915   0.321   1.006  0.2410  0.4676  0.7887
 2442TIP3    H228742   6.038   0.347   0.922 -1.4643 -0.2313 -2.0705
 2443TIP3   OH228743   1.121   3.284   4.449 -0.0071 -0.3699 -0.7000
 2443TIP3    H128744   1.066   3.353   4.412  0.4069 -0.1268 -0.8654
 2443TIP3    H228745   1.202   3.328   4.474 -0.5203 -0.4067  1.1217
 2444TIP3   OH228746   0.209   0.620  13.915  0.4455 -0.5531  0.1345
 2444TIP3    H128747   0.134   0.574  13.877 -1.6997  1.2563  1.9115
 2444TIP3    H228748   0.226   0.691  13.853 -0.2473 -0.1428  0.4011
 2445TIP3   OH228749   4.555   6.320  16.969 -0.4932  0.5152  0.1227
 2445TIP3    H128750   4.537   6.341  17.061 -1.6542  1.2262 -0.2568
 2445TIP3    H228751   4.621   6.383  16.943  0.0306  0.1505  0.5217
 2446TIP3   OH228752   1.429   3.665  13.344 -0.2664  0.7859  0.8035
 2446TIP3    H128753   1.477   3.741  13.376 -2.6546  2.7820 -0.0112
 2446TIP3    H228754   1.453   3.658  13.251 -0.5745  0.9865  0.7081
 2447TIP3   OH228755   0.294   3.090   3.809 -0.0025 -0.2644  0.3346
 2447TIP3    H128756   0.369   3.087   3.749 -0.8782 -1.2851 -0.7645
 2447TIP3    H228757   0.330   3.122   3.891  1.4700  0.0712 -0.4143
 2448TIP3   OH228758   2.289   0.180  16.558  0.0780 -0.1935 -0.0777
 2448TIP3    H128759   2.223   0.151  16.621  0.6034 -1.2028  0.0222
 2448TIP3    H228760   2.257   0.147  16.474  0.2342 -0.3098 -0.0923
 2449TIP3   OH228761   6.078   5.961  13.399 -0.2105  0.5566 -0.4797
 2449TIP3    H128762   6.002   6.013  13.375  0.3030  1.9279  0.7413
 2449TIP3    H228763   6.151   6.000  13.349 -0.2232 -0.5694 -1.4272
 2450TIP3   OH228764   4.792   5.545   0.363 -0.3879 -0.0313  0.6697
 2450TIP3    H128765   4.739   5.530   0.441 -1.8190  0.2740 -0.2226
 2450TIP3    H228766   4.744   5.503   0.292  0.7313 -0.0286 -0.1128
 2451TIP3   OH228767   3.483   1.385  14.050  0.0785 -0.1959 -0.0385
 2451TIP3    H128768   3.521   1.358  14.134  1.3112  2.9317  0.5770
 2451TIP3    H228769   3.471   1.480  14.060  0.5204  0.3272 -3.4999
 2452TIP3   OH228770   6.556   4.152  16.800  0.2408  0.2107 -0.2108
 2452TIP3    H128771   6.515   4.237  16.816  1.0007  0.5900 -0.2401
 2452TIP3    H228772   6.496   4.089  16.840 -0.9615  0.6412 -1.2803
 2453TIP3   OH228773   2.957   4.784  12.126  0.0320  0.3136  0.0232
 2453TIP3    H128774   2.915   4.809  12.044  1.0875  0.2009 -0.5689
 2453TIP3    H228775   2.885   4.776  12.189 -0.9363 -0.9167 -1.1987
 2454TIP3   OH228776   6.038   1.856  12.396 -0.1889  0.1594 -0.0698
 2454TIP3    H128777   6.092   1.934  12.384 -1.7163  1.6076  1.7817
 2454TIP3    H228778   6.101   1.786  12.415  1.1527  1.2359 -0.3723
 2455TIP3   OH228779   6.028   0.871   3.771 -0.1932  0.7631 -0.5084
 2455TIP3    H128780   6.020   0.929   3.696  0.8069  1.3764 -0.1545
 2455TIP3    H228781   6.102   0.905   3.821  1.3116 -1.5965 -0.9719
 2456TIP3   OH228782   5.827   5.073   1.455  0.6623  0.4249 -0.4806
 2456TIP3    H128783   5.835   5.026   1.537 -1.0438  1.2826  0.2258
 2456TIP3    H228784   5.866   5.015   1.390  2.5344 -0.0485  0.9664
 2457TIP3   OH228785   6.447   5.668  16.858 -0.6586 -0.2335  0.9148
 2457TIP3    H128786   6.421   5.612  16.932  1.2427 -0.3039  1.5947
 2457TIP3    H228787   6.516   5.618  16.814 -0.9235  0.3479 -0.1899
 2458TIP3   OH228788   0.983   4.876   4.665 -1.0523 -0.2704 -0.4196
 2458TIP3    H128789   0.910   4.927   4.702 -0.6879  0.2808 -0.4456
 2458TIP3    H228790   0.991   4.800   4.723  0.0225  0.9641  1.1702
 2459TIP3   OH228791   0.471   4.595   2.801 -0.1673 -0.1635 -0.1425
 2459TIP3    H128792   0.380   4.590   2.830  0.2309  0.9937  1.4648
 2459TIP3    H228793   0.500   4.504   2.798  0.0298 -0.4513  4.3006
 2460TIP3   OH228794   5.773   2.483  17.177 -0.2226  0.1971 -0.0549
 2460TIP3    H128795   5.712   2.434  17.122  1.6547 -0.9056 -1.3075
 2460TIP3    H228796   5.859   2.446  17.155  0.9522  1.9683  1.2752
 2461TIP3   OH228797   2.911   0.760  12.876  0.0750  0.4799 -0.1713
 2461TIP3    H128798   2.888   0.851  12.894 -1.1448 -0.1066  1.6067
 2461TIP3    H228799   2.985   0.742  12.935 -0.2829  0.0936  0.1740
 2462TIP3   OH228800   0.623   0.619   2.076  0.6128 -0.0299 -0.4251
 2462TIP3    H128801   0.568   0.587   2.004  0.1667  2.1120 -1.1097
 2462TIP3    H228802   0.706   0.642   2.035  0.8385 -0.0849 -0.0055
 2463TIP3   OH228803   3.937   4.344   6.308  0.0384 -0.2679  0.0334
 2463TIP3    H128804   3.887   4.265   6.328  1.6319 -1.0241  1.2376
 2463TIP3    H228805   4.027   4.324   6.335  0.9551  1.1688 -1.7063
 2464TIP3   OH228806   0.518   2.138   1.761  0.2370 -0.2964  0.1627
 2464TIP3    H128807   0.552   2.186   1.836  0.7428  0.3229 -0.4526
 2464TIP3    H228808   0.439   2.186   1.736  0.6729  0.1400 -0.3752
 2465TIP3   OH228809   1.842   6.562  12.958  0.4094 -0.1849  0.6156
 2465TIP3    H128810   1.799   6.482  12.929  1.3068 -1.2995  2.2036
 2465TIP3    H228811   1.900   6.585  12.885  2.0732 -2.4938  1.0667
 2466TIP3   OH228812   2.787   4.695  10.864 -0.3965  0.3001 -0.3433
 2466TIP3    H128813   2.847   4.676  10.792 -1.4367 -0.3114 -1.0887
 2466TIP3    H228814   2.727   4.761  10.828 -0.7521  0.1946  0.0524
 2467TIP3   OH228815   3.084   3.308  12.631 -0.1941  0.4261  0.0939
 2467TIP3    H128816   3.096   3.392  12.587  1.9730 -0.9037 -2.0998
 2467TIP3    H228817   3.172   3.284  12.662 -0.7338 -1.1094  0.5447
 2468TIP3   OH228818   5.080   0.259   6.668 -0.1367  0.7645 -0.3532
 2468TIP3    H128819   4.985   0.273   6.671 -0.0117  1.5487  0.9545
 2468TIP3    H228820   5.115   0.324   6.730  1.0989 -0.6512  0.4844
 2469TIP3   OH228821   6.564   6.741  13.452 -0.4588 -0.4957 -0.3933
 2469TIP3    H128822   6.471   6.743  13.473 -0.0296  0.5378  1.6589
 2469TIP3    H228823   6.603   6.686  13.520  0.1714 -3.2118 -2.7360
 2470TIP3   OH228824   2.525   6.520  12.413  0.2140 -0.4675  0.4380
 2470TIP3    H128825   2.439   6.480  12.401  0.3511 -0.9438  1.0260
 2470TIP3    H228826   2.527   6.591  12.349  0.2763 -1.8861 -1.2254
 2471TIP3   OH228827   1.251   0.783   3.220  0.2841  0.4874  0.1341
 2471TIP3    H128828   1.297   0.854   3.265  2.5047  1.2143 -2.9066
 2471TIP3    H228829   1.211   0.825   3.144  0.8127 -1.2930 -1.2061
 2472TIP3   OH228830   3.449   6.067  11.288 -0.3633  0.6465  0.0425
 2472TIP3    H128831   3.425   5.975  11.298 -1.5948  0.9248 -0.1664
 2472TIP3    H228832   3.537   6.065  11.252 -0.7630 -0.4656 -0.9328
 2473TIP3   OH228833   3.012   1.433  15.325 -0.6337  0.4541  0.2453
 2473TIP3    H128834   2.936   1.488  15.303 -0.6567 -0.3337 -1.8405
 2473TIP3    H228835   3.011   1.364  15.259  0.9617 -0.5260  1.1982
 2474TIP3   OH228836   4.435   5.609   4.465  0.2263  0.0612  0.9749
 2474TIP3    H128837   4.399   5.693   4.492 -0.8935 -0.0877  0.0284
 2474TIP3    H228838   4.481   5.576   4.542 -1.2897  0.4843  2.0949
 2475TIP3   OH228839   5.683   5.948   3.133  0.5983 -0.4794 -0.9107
 2475TIP3    H128840   5.625   5.967   3.060 -1.0724 -2.4379 -0.1888
 2475TIP3    H228841   5.742   5.880   3.100  0.3074 -0.8520 -0.6759
 2476TIP3   OH228842   3.930   0.935   0.221  0.0719  0.2482 -0.2327
 2476TIP3    H128843   3.970   0.967   0.140  0.0450  1.5161  0.2233
 2476TIP3    H228844   4.001   0.939   0.286 -0.3547  0.9433  0.2026
 2477TIP3   OH228845   6.099   4.198  16.389  0.2451  0.4881  0.9230
 2477TIP3    H128846   6.162   4.230  16.324 -0.4687 -0.0586 -0.0906
 2477TIP3    H228847   6.082   4.273  16.446  1.2885  0.8336  0.7999
 2478TIP3   OH228848   3.338   2.762   3.460 -0.2310 -0.8848  0.9305
 2478TIP3    H128849   3.431   2.784   3.449  0.4779 -3.0216  1.9725
 2478TIP3    H228850   3.294   2.808   3.388  1.7240 -0.3762 -0.0292
 2479TIP3   OH228851   6.167   1.769  10.454  0.0026  0.0005 -0.2021
 2479TIP3    H128852   6.262   1.766  10.442 -0.1860  0.3667 -2.0428
 2479TIP3    H228853   6.153   1.842  10.514  0.8824 -0.1762  0.2432
 2480TIP3   OH228854   1.798   2.651  13.280 -0.3985  0.6609  0.0978
 2480TIP3    H128855   1.821   2.580  13.340  1.4330  2.2134  1.3757
 2480TIP3    H228856   1.702   2.652  13.279 -0.5678 -2.8473 -1.3468
 2481TIP3   OH228857   5.602   6.635   3.714  0.1194  0.3320  0.1627
 2481TIP3    H128858   5.576   6.720   3.679  0.8401 -0.6059 -2.9017
 2481TIP3    H228859   5.688   6.650   3.754  0.7014  0.8663 -1.2510
 2482TIP3   OH228860   6.356   1.896   1.020 -0.4446 -0.6015 -0.5495
 2482TIP3    H128861   6.429   1.834   1.014 -0.8699 -1.2226  0.4129
 2482TIP3    H228862   6.383   1.970   0.967 -0.6090 -2.2722 -3.1858
 2483TIP3   OH228863   1.083   6.383  14.410 -0.0114  0.6552 -0.0887
 2483TIP3    H128864   1.080   6.322  14.336 -0.5105  0.4243  0.1155
 2483TIP3    H228865   1.048   6.465  14.374  0.4886  0.7701 -0.3156
 2484TIP3   OH228866   1.954   3.577   3.977  0.1912  0.1173 -0.4248
 2484TIP3    H128867   2.047   3.578   3.995  0.6136 -2.4763 -1.8897
 2484TIP3    H228868   1.913   3.554   4.060  0.9192  0.5365  0.0565
 2485TIP3   OH228869   0.036   3.999   1.463  0.3961  0.7116 -0.0426
 2485TIP3    H128870   0.045   3.939   1.537 -0.9630 -0.6394 -0.9141
 2485TIP3    H228871  -0.057   3.993   1.439  0.1743  3.3134 -0.0681
 2486TIP3   OH228872   0.525   2.283   2.489  0.1011  0.2144  0.0749
 2486TIP3    H128873   0.620   2.271   2.492  0.2194  0.9913 -0.4901
 2486TIP3    H228874   0.496   2.264   2.579  0.5966 -1.4907 -0.1029
 2487TIP3   OH228875   1.767   4.518  14.454  0.4323  0.0488  0.5596
 2487TIP3    H128876   1.785   4.425  14.468  0.0938 -0.0799  0.1582
 2487TIP3    H228877   1.853   4.557  14.441  0.5812 -0.1966  0.7940
 2488TIP3   OH228878   1.367   1.990  16.470  0.3790  0.9863 -0.3141
 2488TIP3    H128879   1.420   2.006  16.548  1.1360  0.1649 -0.6358
 2488TIP3    H228880   1.417   2.030  16.398  1.2600 -0.8840 -0.8111
 2489TIP3   OH228881   0.115   2.530  15.804  0.4610 -0.0340 -0.0492
 2489TIP3    H128882   0.067   2.611  15.820 -0.0795 -0.7923  2.5872
 2489TIP3    H228883   0.207   2.555  15.808  0.2947  0.5339  0.2989
 2490TIP3   OH228884   3.369   3.761   2.424  0.6263 -0.3050 -0.8009
 2490TIP3    H128885   3.321   3.686   2.459 -0.3192  0.4147 -0.5138
 2490TIP3    H228886   3.306   3.806   2.368 -0.7040  3.1799  3.0029
 2491TIP3   OH228887   1.744   2.762   1.409 -0.2615  0.0750  0.0760
 2491TIP3    H128888   1.811   2.694   1.420 -0.1484  0.4503  2.1241
 2491TIP3    H228889   1.712   2.778   1.497 -2.5649  0.4322 -0.7627
 2492TIP3   OH228890   1.964   3.449  16.447 -0.6097  0.2854 -0.6956
 2492TIP3    H128891   1.936   3.540  16.445  2.0935  1.1954 -0.8556
 2492TIP3    H228892   1.967   3.426  16.540  1.3919  1.3638 -0.4235
 2493TIP3   OH228893   2.082   6.126  16.981  0.1733 -0.7107  0.0849
 2493TIP3    H128894   2.007   6.130  16.921  0.5711 -1.8365 -0.5189
 2493TIP3    H228895   2.132   6.050  16.951  0.7816 -0.8431  1.3933
 2494TIP3   OH228896   3.852   1.357  17.055 -0.2965 -0.2572  0.5101
 2494TIP3    H128897   3.920   1.323  17.113  0.3289  1.7569  1.0355
 2494TIP3    H228898   3.820   1.436  17.098  0.0508  1.2191 -1.7391
 2495TIP3   OH228899   4.488   4.392  10.722  0.2757  0.0281 -0.3421
 2495TIP3    H128900   4.439   4.427  10.648  1.4885  0.8570 -0.7751
 2495TIP3    H228901   4.526   4.310  10.689 -1.5231 -1.1129  0.2825
 2496TIP3   OH228902   5.372   2.902   0.907  0.5274  0.4884  0.4805
 2496TIP3    H128903   5.338   2.844   0.839  0.9902  1.8109 -0.9231
 2496TIP3    H228904   5.422   2.844   0.965  0.1292 -0.6652 -0.2960
 2497TIP3   OH228905   2.961   3.785  12.284  0.3995 -0.0938 -0.0786
 2497TIP3    H128906   3.017   3.841  12.337 -0.9075  1.3011 -0.1205
 2497TIP3    H228907   2.891   3.757  12.343  0.9447 -1.6048 -0.0951
 2498TIP3   OH228908   3.402   3.295  13.336 -0.1474 -0.2251 -0.1219
 2498TIP3    H128909   3.368   3.299  13.247 -1.8664 -2.0797  0.3945
 2498TIP3    H228910   3.326   3.310  13.392  0.4377 -1.4471  1.0614
 2499TIP3   OH228911   1.839   4.625  11.930  0.2035 -0.0178 -0.1561
 2499TIP3    H128912   1.891   4.667  11.999 -0.4407 -0.5283  0.6699
 2499TIP3    H228913   1.751   4.618  11.968 -0.1034 -0.5487 -0.9380
 2500TIP3   OH228914   2.671   5.905  13.742 -0.0236  0.3140  0.4288
 2500TIP3    H128915   2.739   5.941  13.685 -0.0478  0.7625  0.6826
 2500TIP3    H228916   2.602   5.876  13.683  0.4567 -0.3000  0.1527
 2501TIP3   OH228917   3.273   1.354   1.830  0.0722 -0.6748  0.4499
 2501TIP3    H128918   3.225   1.277   1.859 -0.2055 -0.5198  0.4008
 2501TIP3    H228919   3.209   1.425   1.833  0.4422 -0.3557  0.9188
 2502TIP3   OH228920   4.529   2.283   5.226 -0.1032  0.1578  0.0089
 2502TIP3    H128921   4.436   2.280   5.250 -0.1814  0.1369 -0.2962
 2502TIP3    H228922   4.555   2.374   5.242 -0.5319  0.5069 -1.2239
 2503TIP3   OH228923   5.074   2.722  15.619  0.6577 -0.2166  0.0819
 2503TIP3    H128924   5.031   2.751  15.699  0.3358  0.9932 -0.5128
 2503TIP3    H228925   5.100   2.802  15.574  3.7617 -0.8720  0.4899
 2504TIP3   OH228926   0.522   6.543   6.479  0.0185 -0.6418  0.2706
 2504TIP3    H128927   0.549   6.561   6.569  2.2226 -0.2018 -0.4244
 2504TIP3    H228928   0.553   6.619   6.429 -1.3870 -0.7601 -0.8516
 2505TIP3   OH228929   2.272   4.840   1.668 -0.0895 -0.3324 -0.4989
 2505TIP3    H128930   2.364   4.822   1.650  0.4286  0.9535  0.6662
 2505TIP3    H228931   2.249   4.776   1.736 -0.1863 -0.9427 -1.1028
 2506TIP3   OH228932   2.957   6.361   4.177  0.0814 -0.6507  0.6604
 2506TIP3    H128933   2.961   6.456   4.167  0.9342 -0.7504 -0.1361
 2506TIP3    H228934   2.867   6.343   4.203 -0.3923  0.2905 -0.2523
 2507TIP3   OH228935   6.095   4.395   0.950 -0.6316 -0.8508  0.0860
 2507TIP3    H128936   6.047   4.474   0.973 -0.4825 -0.8671  0.4603
 2507TIP3    H228937   6.145   4.420   0.872 -2.1291 -1.1856 -1.0101
 2508TIP3   OH228938   6.750   2.275  15.696  0.4533  0.3276 -0.3453
 2508TIP3    H128939   6.830   2.223  15.684  0.1360 -0.2217 -0.1109
 2508TIP3    H228940   6.781   2.359  15.729  0.8058 -0.5805  1.8254
 2509TIP3   OH228941   1.435   4.775  11.474 -0.0109  0.4821  0.0226
 2509TIP3    H128942   1.361   4.730  11.434  0.6100 -0.3925 -0.1723
 2509TIP3    H228943   1.401   4.862  11.498 -1.7239 -0.6455  1.9811
 2510TIP3   OH228944   6.283   2.742  16.200  0.1704 -0.0517 -0.0189
 2510TIP3    H128945   6.257   2.697  16.280  1.8060  1.6623  1.5800
 2510TIP3    H228946   6.289   2.673  16.134  0.9076 -1.8909  1.8738
 2511TIP3   OH228947   5.702   2.718  10.768 -0.2724  0.0812 -0.6679
 2511TIP3    H128948   5.619   2.671  10.779 -1.2018  1.7855  0.2301
 2511TIP3    H228949   5.689   2.772  10.690  1.1793 -1.8340 -2.3309
 2512TIP3   OH228950   0.777   4.443  16.565 -0.3451  0.4536  0.3795
 2512TIP3    H128951   0.777   4.348  16.577  0.0646  0.3977 -0.0008
 2512TIP3    H228952   0.841   4.475  16.629 -0.8248  0.5242  0.8294
 2513TIP3   OH228953   6.691   3.684   5.414  0.0983  0.0130 -0.7007
 2513TIP3    H128954   6.687   3.595   5.380 -0.8652 -0.4344  0.4777
 2513TIP3    H228955   6.775   3.718   5.384  1.2746 -1.8857  0.2150
 2514TIP3   OH228956   0.056   1.972  16.541 -0.0623  0.1314  0.3451
 2514TIP3    H128957   0.052   1.994  16.448  2.2758  1.2441  0.4385
 2514TIP3    H228958   0.105   2.044  16.581 -0.7383 -0.4781  2.4013
 2515TIP3   OH228959   0.331   5.055   5.119  0.8603  0.6703  0.4109
 2515TIP3    H128960   0.258   5.059   5.181  1.3166  3.0667  0.8749
 2515TIP3    H228961   0.300   5.105   5.043  0.4163 -1.9767 -1.2894
 2516TIP3   OH228962   6.337   0.088  11.895 -0.3318  0.4131 -0.6516
 2516TIP3    H128963   6.303   0.007  11.934  1.1535 -0.4725 -1.1172
 2516TIP3    H228964   6.413   0.110  11.949 -1.4979  2.3236  0.3418
 2517TIP3   OH228965   6.448   2.619  13.593  0.0707 -0.2446  0.3235
 2517TIP3    H128966   6.502   2.650  13.665  1.7015 -0.6134 -0.6805
 2517TIP3    H228967   6.470   2.527  13.583  1.2703  0.1979 -1.7573
 2518TIP3   OH228968   5.823   4.569  13.391  0.7365 -0.0791 -0.2635
 2518TIP3    H128969   5.789   4.480  13.383  2.7074 -1.0403  1.0554
 2518TIP3    H228970   5.786   4.616  13.317 -0.9511 -1.7946 -0.5770
 2519TIP3   OH228971   2.171   3.191  16.389 -0.6168 -0.2725  1.0247
 2519TIP3    H128972   2.137   3.110  16.425 -1.1992 -1.2447 -1.5289
 2519TIP3    H228973   2.095   3.232  16.346  0.5141 -0.5344 -1.3710
 2520TIP3   OH228974   5.611   3.768  14.657 -0.3013 -0.7604  0.0204
 2520TIP3    H128975   5.540   3.725  14.609 -0.3277 -1.4175  0.6326
 2520TIP3    H228976   5.651   3.698  14.709  1.2687 -0.5765 -0.8441
 2521TIP3   OH228977   0.010   4.669   2.602 -0.1147 -0.1517 -0.4928
 2521TIP3    H128978   0.033   4.635   2.688  0.0995 -1.1879 -0.9323
 2521TIP3    H228979  -0.086   4.670   2.601 -0.2970 -3.4686 -1.3731
 2522TIP3   OH228980   2.581   3.733   0.680  0.4977  0.0775 -0.7615
 2522TIP3    H128981   2.532   3.797   0.629 -0.1280  1.0063  0.9274
 2522TIP3    H228982   2.616   3.782   0.755 -1.1617 -1.7489  1.3556
 2523TIP3   OH228983   6.298   0.454   0.187  0.1439 -0.6393  0.1009
 2523TIP3    H128984   6.319   0.526   0.247 -0.5355 -0.1287 -0.2549
 2523TIP3    H228985   6.202   0.456   0.181  0.1505 -1.2784 -0.2860
 2524TIP3   OH228986   5.977   0.271   6.041  0.4470  0.0439  0.3771
 2524TIP3    H128987   5.939   0.347   5.998  0.5171 -0.5331 -0.7462
 2524TIP3    H228988   6.016   0.306   6.121  0.8873  1.2694 -0.3409
 2525TIP3   OH228989   5.192   1.277  11.359 -0.9445  0.5549  0.4645
 2525TIP3    H128990   5.200   1.321  11.274 -1.8232  1.2004  0.7030
 2525TIP3    H228991   5.159   1.190  11.337 -2.1428  1.0519  0.1962
 2526TIP3   OH228992   6.729   6.694  15.998 -0.3838 -0.4022 -0.1896
 2526TIP3    H128993   6.785   6.624  15.964 -2.5249 -3.4140  1.9239
 2526TIP3    H228994   6.659   6.702  15.934  1.1070  1.7363 -1.6794
 2527TIP3   OH228995   3.693   4.931   0.719 -0.6928  0.3075  0.1553
 2527TIP3    H128996   3.709   4.858   0.778  1.7074  0.4017 -0.2813
 2527TIP3    H228997   3.658   5.001   0.774 -0.9578 -0.4449  0.9517
 2528TIP3   OH228998   4.262   5.585   5.016 -0.3848  0.3750  0.3954
 2528TIP3    H128999   4.254   5.563   5.109 -0.7276  0.4000  0.3714
 2528TIP3    H229000   4.278   5.679   5.016  0.1561  0.2864  0.4532
 2529TIP3   OH229001   0.154   3.225  16.243 -0.0378 -0.1574 -0.1041
 2529TIP3    H129002   0.064   3.191  16.245  0.8650 -2.7868 -0.5858
 2529TIP3    H229003   0.151   3.294  16.177 -2.6138  3.0850  2.9417
 2530TIP3   OH229004   6.339   2.700  12.752  0.3064 -0.3057  0.4349
 2530TIP3    H129005   6.414   2.733  12.703 -0.2180  1.3971  0.7055
 2530TIP3    H229006   6.284   2.659  12.686  0.0081  1.2326 -0.3334
 2531TIP3   OH229007   0.029   2.054  12.973  0.2438 -0.6254  0.6504
 2531TIP3    H129008  -0.001   2.085  12.887  0.0110 -0.3370  0.8344
 2531TIP3    H229009   0.024   1.959  12.966 -0.1770 -0.5966  0.4811
 2532TIP3   OH229010   1.467   2.166   4.196 -0.4388  0.4500  0.1224
 2532TIP3    H129011   1.515   2.197   4.119  0.9735 -2.2262 -0.1872
 2532TIP3    H229012   1.522   2.193   4.270  0.0230 -0.0259 -0.0441
 2533TIP3   OH229013   5.245   3.573  12.920 -0.1999  1.1076  0.0265
 2533TIP3    H129014   5.206   3.506  12.865 -0.1378  0.3747  0.8613
 2533TIP3    H229015   5.335   3.581  12.888  0.3723 -0.5508  1.0900
 2534TIP3   OH229016   2.536   2.890  14.501  0.0458 -0.2105 -0.0633
 2534TIP3    H129017   2.460   2.840  14.471 -0.9486  1.4454 -0.4740
 2534TIP3    H229018   2.505   2.940  14.576  0.7439  0.4006 -0.1576
 2535TIP3   OH229019   5.095   5.053   1.423  0.4367 -0.1435 -0.1985
 2535TIP3    H129020   5.098   4.996   1.499 -3.9937  0.2351  0.5576
 2535TIP3    H229021   5.050   5.001   1.356  1.0924  0.7129 -1.3512
 2536TIP3   OH229022   1.969   4.167   4.696  0.5808  0.4190 -0.1318
 2536TIP3    H129023   1.910   4.241   4.710 -0.0914 -0.2613  0.7334
 2536TIP3    H229024   2.053   4.197   4.732  0.3427  0.8000  0.1198
 2537TIP3   OH229025   6.020   4.702   1.749 -0.2552  0.1596  0.5220
 2537TIP3    H129026   5.994   4.670   1.836 -1.1362 -0.5992  0.0030
 2537TIP3    H229027   6.106   4.665   1.734  0.8516  1.9586  1.8990
 2538TIP3   OH229028   3.059   5.822  16.728 -0.3349  0.0266 -0.5325
 2538TIP3    H129029   3.036   5.915  16.724  1.5142  0.5236 -0.8621
 2538TIP3    H229030   3.041   5.796  16.818 -1.3835  0.5512 -0.5763
 2539TIP3   OH229031   3.304   4.007  14.084 -0.0071 -0.1873 -0.3140
 2539TIP3    H129032   3.394   4.008  14.050  0.5732 -0.2219  1.1434
 2539TIP3    H229033   3.297   3.922  14.128 -0.5132  0.1295  0.2111
 2540TIP3   OH229034   1.960   4.898  14.721 -0.1712  0.5994  0.0961
 2540TIP3    H129035   1.898   4.830  14.746  0.5046  0.8395  2.7709
 2540TIP3    H229036   1.924   4.936  14.641 -2.1922 -0.8163  0.2661
 2541TIP3   OH229037   6.782   3.176  12.187 -0.5305  0.0174  0.2903
 2541TIP3    H129038   6.868   3.165  12.228 -1.0363  0.8005  1.6248
 2541TIP3    H229039   6.770   3.271  12.182 -0.4689 -0.0548 -1.7682
 2542TIP3   OH229040   3.511   2.794   6.291  0.1718 -0.2823 -0.0131
 2542TIP3    H129041   3.552   2.712   6.318 -0.5396 -1.3461 -1.9564
 2542TIP3    H229042   3.419   2.782   6.312  0.4543  1.2028  2.2945
 2543TIP3   OH229043   2.768   0.530   5.370 -0.3352  0.1492  0.6368
 2543TIP3    H129044   2.831   0.517   5.299  0.0597  0.2430  0.9609
 2543TIP3    H229045   2.718   0.448   5.373  0.3457 -0.2667  0.9258
 2544TIP3   OH229046   2.465   2.994   6.239  0.1538 -0.8296  0.9620
 2544TIP3    H129047   2.412   2.996   6.319 -0.8044  1.3803  0.3407
 2544TIP3    H229048   2.504   3.081   6.235  0.6594 -1.1043 -0.6880
 2545TIP3   OH229049   5.558   0.414   1.179 -0.3121 -0.5382  0.3625
 2545TIP3    H129050   5.652   0.421   1.196  0.5909 -1.7986 -3.2210
 2545TIP3    H229051   5.532   0.334   1.224  0.0808  0.2047  2.0087
 2546TIP3   OH229052   4.244   3.764  16.861  0.0541  0.3543 -0.6138
 2546TIP3    H129053   4.179   3.834  16.853  0.9854  1.7128  2.1528
 2546TIP3    H229054   4.320   3.797  16.812 -0.7360 -0.5355 -2.5369
 2547TIP3   OH229055   4.501   0.801   2.090 -0.0851 -0.1924  0.1827
 2547TIP3    H129056   4.588   0.840   2.102 -0.7854  1.3854  0.3902
 2547TIP3    H229057   4.514   0.708   2.106  1.4000  0.1341  1.0639
 2548TIP3   OH229058   2.293   5.913   2.330  0.0499  0.4275  0.0385
 2548TIP3    H129059   2.302   5.923   2.424  0.2823 -0.7020  0.1492
 2548TIP3    H229060   2.374   5.948   2.294 -0.2553  1.3325  0.2136
 2549TIP3   OH229061   0.506   3.168  13.203  0.3232  0.0165 -0.3383
 2549TIP3    H129062   0.564   3.134  13.135 -0.0323 -0.1795 -0.5481
 2549TIP3    H229063   0.476   3.090  13.250 -1.0321 -0.0523 -1.2534
 2550TIP3   OH229064   6.279   3.285  11.211 -0.0042  0.2247  0.4115
 2550TIP3    H129065   6.230   3.211  11.248 -1.6810  1.2281  0.2958
 2550TIP3    H229066   6.369   3.253  11.205 -0.5538 -1.5691  0.9932
 2551TIP3   OH229067   3.291   3.719   3.911 -0.2746 -0.0326  0.3055
 2551TIP3    H129068   3.288   3.624   3.928 -1.5117  0.3158  2.4558
 2551TIP3    H229069   3.253   3.758   3.990  1.5805  2.3529  0.1334
 2552TIP3   OH229070   1.917   5.962  10.430  0.1775  0.5507 -0.1863
 2552TIP3    H129071   2.005   5.999  10.435  0.5837 -0.1741 -1.4163
 2552TIP3    H229072   1.859   6.032  10.459  0.9599  1.9268 -1.8043
 2553TIP3   OH229073   3.150   0.478  11.275 -0.0604  0.1241  0.3840
 2553TIP3    H129074   3.114   0.492  11.187  0.7748  0.5422  0.1007
 2553TIP3    H229075   3.078   0.440  11.324 -1.1851  1.7778  0.0872
 2554TIP3   OH229076   2.681   0.552   0.777 -0.0957 -0.0586  0.3827
 2554TIP3    H129077   2.711   0.579   0.691 -0.1120  0.6584  0.5979
 2554TIP3    H229078   2.703   0.625   0.835  0.4895 -0.7920  1.1091
 2555TIP3   OH229079   5.215   6.762  16.017  0.0545  0.1149 -0.3091
 2555TIP3    H129080   5.228   6.811  16.098 -0.4666  0.3078 -0.3413
 2555TIP3    H229081   5.154   6.692  16.041 -0.3767  0.3838 -0.6131
 2556TIP3   OH229082   1.743   4.419  15.680  0.3941  0.0953 -0.0596
 2556TIP3    H129083   1.708   4.333  15.704 -0.0964  0.5131  0.7619
 2556TIP3    H229084   1.832   4.401  15.650  1.1952 -0.4612  2.4041
 2557TIP3   OH229085   6.116   1.139  10.864 -0.1777 -0.2711 -0.0809
 2557TIP3    H129086   6.095   1.146  10.957 -0.1192  1.1729 -0.1476
 2557TIP3    H229087   6.212   1.141  10.860 -0.1660 -0.9310 -0.1343
 2558TIP3   OH229088   4.591   3.253  13.344 -0.4176  0.4816 -0.0446
 2558TIP3    H129089   4.675   3.221  13.376 -1.4704 -1.3271  1.0481
 2558TIP3    H229090   4.527   3.192  13.379 -2.2859  2.2261 -0.2471
 2559TIP3   OH229091   5.354   1.930   4.163 -0.2045  0.2700 -0.2212
 2559TIP3    H129092   5.406   1.953   4.240 -1.6740 -0.4788  1.0482
 2559TIP3    H229093   5.357   2.008   4.107  1.8975  0.3904 -0.0052
 2560TIP3   OH229094   1.211   5.727   1.451  0.1913 -0.1072  0.1015
 2560TIP3    H129095   1.207   5.651   1.394  0.8612  0.7601 -1.1536
 2560TIP3    H229096   1.174   5.697   1.534 -1.0911 -1.3307 -0.8600
 2561TIP3   OH229097   2.231   3.387  16.873 -0.3349  0.0746  0.7642
 2561TIP3    H129098   2.174   3.450  16.918  1.3102  0.3628  2.6111
 2561TIP3    H229099   2.186   3.303  16.881  0.1571 -0.0291  3.7180
 2562TIP3   OH229100   5.551   4.649  16.397  0.2639 -0.1335  0.5200
 2562TIP3    H129101   5.539   4.679  16.487 -1.7153  2.0859 -0.3680
 2562TIP3    H229102   5.643   4.667  16.377  0.2769  1.0389  1.5441
 2563TIP3   OH229103   6.003   3.402   2.962 -0.4339  0.3556 -0.0525
 2563TIP3    H129104   5.929   3.417   3.021  0.9974  2.2704  1.3964
 2563TIP3    H229105   6.064   3.349   3.013  0.4899  1.3850 -0.0465
 2564TIP3   OH229106   2.805   5.583   0.541 -0.2767  0.0396 -0.2404
 2564TIP3    H129107   2.748   5.506   0.539  1.6879 -1.4972 -0.4136
 2564TIP3    H229108   2.837   5.592   0.451  1.5851 -0.6342  0.3104
 2565TIP3   OH229109   0.041   4.231  10.481  0.0975 -0.3347  0.3056
 2565TIP3    H129110   0.012   4.142  10.461  0.3811 -0.6191  1.1202
 2565TIP3    H229111   0.136   4.227  10.469 -0.0061  0.1819 -0.8266
 2566TIP3   OH229112   4.433   3.700  10.839 -0.2642  0.0115  0.1402
 2566TIP3    H129113   4.378   3.706  10.918  0.4791 -0.0306  0.6778
 2566TIP3    H229114   4.489   3.624  10.855  0.3490  0.4042 -0.1353
 2567TIP3   OH229115   3.961   1.540   0.152  0.3859 -0.0128 -0.0943
 2567TIP3    H129116   3.909   1.611   0.190  2.2555  1.5420 -0.2450
 2567TIP3    H229117   4.019   1.513   0.223  1.7879  0.7717 -0.9078
 2568TIP3   OH229118   2.349   4.679   4.742 -0.5898 -0.0594 -0.6469
 2568TIP3    H129119   2.319   4.669   4.833  1.0472  0.1290 -0.0551
 2568TIP3    H229120   2.304   4.757   4.711 -1.8127 -0.5985 -0.2858
 2569TIP3   OH229121   0.362   2.753   3.590 -0.4588  0.2755 -0.6152
 2569TIP3    H129122   0.269   2.773   3.596 -0.8197 -0.9346 -1.7194
 2569TIP3    H229123   0.378   2.743   3.496  0.3261 -1.5537 -0.3197
 2570TIP3   OH229124   3.077   1.871   5.147 -0.0764  0.1123 -0.1252
 2570TIP3    H129125   3.117   1.863   5.234 -1.4735 -1.7762  0.3968
 2570TIP3    H229126   3.092   1.786   5.106 -2.1968 -0.1373 -0.4750
 2571TIP3   OH229127   2.177   4.994  13.085  0.9024 -1.2437  0.9140
 2571TIP3    H129128   2.200   4.919  13.030  2.2942  0.5717 -1.1339
 2571TIP3    H229129   2.133   4.955  13.161  1.5610 -4.1066 -0.0445
 2572TIP3   OH229130   6.163   5.769  15.765 -0.2849 -0.1652 -0.2899
 2572TIP3    H129131   6.190   5.854  15.801  0.3769 -0.2296 -0.6293
 2572TIP3    H229132   6.069   5.764  15.785 -0.1575  0.2776  0.4568
 2573TIP3   OH229133   4.521   4.253  12.587  0.4310 -0.0427 -0.1374
 2573TIP3    H129134   4.433   4.247  12.548  1.6401 -1.8168 -2.9774
 2573TIP3    H229135   4.548   4.162  12.596  2.5337  0.4791 -0.7708
 2574TIP3   OH229136   5.525   1.969  11.903  0.1157  0.0230  0.2444
 2574TIP3    H129137   5.610   2.014  11.900  0.1074 -0.0386 -1.4030
 2574TIP3    H229138   5.464   2.037  11.932  0.4665  0.4786 -0.0725
 2575TIP3   OH229139   0.023   0.488   3.302 -0.6288  0.1834 -0.5726
 2575TIP3    H129140  -0.047   0.486   3.367  0.3344  0.6093  0.5187
 2575TIP3    H229141   0.092   0.433   3.340 -0.4891 -0.5098 -1.7799
 2576TIP3   OH229142   3.847   0.594   3.627 -0.1156 -0.4062 -0.5690
 2576TIP3    H129143   3.925   0.640   3.657 -0.1408 -0.4065 -0.5017
 2576TIP3    H229144   3.782   0.663   3.611 -1.1912 -0.5530  2.5167
 2577TIP3   OH229145   0.054   0.929  13.150 -0.1807  0.0350 -0.0944
 2577TIP3    H129146   0.065   1.006  13.205  0.5216  0.5804 -0.9722
 2577TIP3    H229147   0.037   0.964  13.063 -1.9640 -0.8172 -0.1329
 2578TIP3   OH229148   4.793   2.764  12.301 -0.0866 -0.4226 -0.2368
 2578TIP3    H129149   4.863   2.814  12.343  0.1625 -1.0888  0.1518
 2578TIP3    H229150   4.824   2.749  12.212 -0.4659  0.6985 -0.5715
 2579TIP3   OH229151   2.313   2.596  16.159  0.2844 -0.5758 -0.0199
 2579TIP3    H129152   2.388   2.594  16.099 -0.7783 -2.3073 -1.3877
 2579TIP3    H229153   2.244   2.639  16.109  0.0415  0.0297  0.8305
 2580TIP3   OH229154   0.206   2.708  14.915 -0.2192  0.2546 -0.2103
 2580TIP3    H129155   0.227   2.730  15.006 -1.5946 -2.4703  0.8779
 2580TIP3    H229156   0.248   2.776  14.863  0.9759  1.6599  2.4377
 2581TIP3   OH229157   5.876   4.154  11.914  1.0021 -0.6662  0.4786
 2581TIP3    H129158   5.863   4.200  11.997  0.8003  1.2059 -0.5294
 2581TIP3    H229159   5.842   4.066  11.930  0.2254 -0.1087  2.1452
 2582TIP3   OH229160   1.464   2.469  12.876 -0.0657 -0.3180 -0.2426
 2582TIP3    H129161   1.548   2.470  12.920  1.2070 -0.6050 -2.5038
 2582TIP3    H229162   1.462   2.385  12.829 -1.2264  0.0658 -0.9304
 2583TIP3   OH229163   6.272   3.586   5.181 -0.0747  0.1409  0.0120
 2583TIP3    H129164   6.219   3.663   5.198 -0.5087 -0.1711  0.0990
 2583TIP3    H229165   6.340   3.616   5.121 -0.3970  0.5324 -0.1627
 2584TIP3   OH229166   4.461   1.281   4.049  0.4438  0.1284 -0.1043
 2584TIP3    H129167   4.484   1.374   4.060 -0.3637  0.2430  0.7888
 2584TIP3    H229168   4.537   1.234   4.083  0.7844  0.4544 -0.3905
 2585TIP3   OH229169   4.050   6.248  11.576  0.4121  0.3454  0.5044
 2585TIP3    H129170   3.984   6.194  11.619  1.8446 -1.2120  0.8620
 2585TIP3    H229171   4.084   6.305  11.645 -1.4324  2.1457  0.0233
 2586TIP3   OH229172   1.074   6.148   5.148 -0.1271 -0.6407 -0.4159
 2586TIP3    H129173   1.136   6.090   5.192 -0.0492 -0.6645 -0.5554
 2586TIP3    H229174   0.991   6.136   5.195  0.3171  0.4863  0.7079
 2587TIP3   OH229175   5.426   2.680  16.852 -0.0841 -0.1152  0.9877
 2587TIP3    H129176   5.385   2.722  16.928 -1.2871  1.0043 -0.2185
 2587TIP3    H229177   5.431   2.750  16.786 -0.0600 -1.3203 -0.3311
 2588TIP3   OH229178   3.218   1.601  14.338 -0.0224  0.0744 -0.3549
 2588TIP3    H129179   3.142   1.543  14.334  0.7621 -1.0018 -0.1873
 2588TIP3    H229180   3.288   1.552  14.295  1.5345 -0.5021  2.5847
 2589TIP3   OH229181   6.522   5.617  13.207  0.5900 -0.4508 -0.1754
 2589TIP3    H129182   6.512   5.644  13.298 -0.7192  1.2503 -0.7652
 2589TIP3    H229183   6.519   5.521  13.209 -1.5922 -0.4070  1.3601
 2590TIP3   OH229184   5.592   2.914   2.882 -0.1320  0.5127  0.3108
 2590TIP3    H129185   5.499   2.889   2.887  0.3697 -1.5216  0.2512
 2590TIP3    H229186   5.634   2.842   2.835  1.4234  1.6414 -0.1252
 2591TIP3   OH229187   2.461   6.531   4.789  0.4056 -0.5502  0.2717
 2591TIP3    H129188   2.504   6.486   4.862  0.3424 -0.2002  0.5293
 2591TIP3    H229189   2.367   6.522   4.807  0.3977  0.0484  0.5535
 2592TIP3   OH229190   5.811   5.789  11.337 -0.5599 -0.6751 -0.1912
 2592TIP3    H129191   5.872   5.830  11.398 -1.7071  2.7373 -1.1153
 2592TIP3    H229192   5.793   5.703  11.376  3.2039 -1.0718  1.0942
 2593TIP3   OH229193   4.521   0.666  14.925  0.3375 -0.6274  0.1361
 2593TIP3    H129194   4.501   0.588  14.977 -1.5785 -0.7475 -0.7217
 2593TIP3    H229195   4.437   0.693  14.889  1.0654  1.5068 -0.0731
 2594TIP3   OH229196   1.063   1.618  10.595 -0.4061 -0.4219 -0.0794
 2594TIP3    H129197   1.069   1.577  10.508 -0.7101 -0.9927  0.1581
 2594TIP3    H229198   1.028   1.548  10.651 -3.1018  0.7576 -0.1109
 2595TIP3   OH229199   6.500   4.657   0.308 -0.0116 -0.1013 -0.1812
 2595TIP3    H129200   6.533   4.737   0.267 -0.4687 -0.2343 -0.8255
 2595TIP3    H229201   6.577   4.612   0.341  0.5782 -0.8254 -2.3738
 2596TIP3   OH229202   4.795   2.274  17.083  0.2520  0.3699  0.6246
 2596TIP3    H129203   4.881   2.237  17.062  0.2465  0.5073  0.3564
 2596TIP3    H229204   4.814   2.355  17.130  0.2721 -0.5564  2.3093
 2597TIP3   OH229205   4.374   0.702   5.023 -0.1549  0.5051  0.3595
 2597TIP3    H129206   4.371   0.679   5.116  0.7181  1.7088  0.7049
 2597TIP3    H229207   4.379   0.798   5.022  0.3818  0.4765 -0.9126
 2598TIP3   OH229208   5.903   4.878  17.170  0.4752 -0.0300 -0.1687
 2598TIP3    H129209   5.928   4.949  17.230  2.2448 -2.0727  1.6929
 2598TIP3    H229210   5.813   4.898  17.145  0.3755  2.0225  1.5429
 2599TIP3   OH229211   1.857   4.373   2.399  0.0564 -0.0043  0.4239
 2599TIP3    H129212   1.900   4.457   2.384  0.2942 -0.0899  0.6020
 2599TIP3    H229213   1.883   4.349   2.488 -0.8507  0.2287  0.7615
 2600TIP3   OH229214   4.415   3.792  15.886  0.6646 -0.0573  0.1097
 2600TIP3    H129215   4.464   3.718  15.921 -0.7200 -1.2192 -0.3124
 2600TIP3    H229216   4.404   3.851  15.961  0.1968 -1.1639  0.9518
 2601TIP3   OH229217   6.729   5.928   3.558  0.2015  0.3430  0.3902
 2601TIP3    H129218   6.656   5.867   3.545  0.1615  0.3453  0.5939
 2601TIP3    H229219   6.804   5.885   3.518  0.1905  0.1225  0.6068
 2602TIP3   OH229220   1.655   6.549   4.855  0.0148 -0.0741  0.5873
 2602TIP3    H129221   1.734   6.512   4.896  0.0106 -1.2391 -0.3958
 2602TIP3    H229222   1.658   6.642   4.876  3.1265  0.4935 -1.6302
 2603TIP3   OH229223   3.772   3.820   5.095  0.6794  0.2095 -0.0085
 2603TIP3    H129224   3.833   3.765   5.045  1.0430  0.5776  0.0210
 2603TIP3    H229225   3.768   3.779   5.181  0.4747 -0.1166 -0.1701
 2604TIP3   OH229226   3.772   0.903   3.635  0.1452  0.3307  1.0786
 2604TIP3    H129227   3.719   0.903   3.555 -0.4321 -0.5852  1.4378
 2604TIP3    H229228   3.861   0.921   3.605 -0.5324  3.7140  0.6251
 2605TIP3   OH229229   6.509   2.529   4.374 -0.0483 -0.1069  0.1823
 2605TIP3    H129230   6.492   2.613   4.417 -0.0343  0.5817 -1.1012
 2605TIP3    H229231   6.532   2.552   4.284 -1.3970 -1.5512 -0.5842
 2606TIP3   OH229232   5.589   5.123   2.639  0.3174 -0.0614 -0.3871
 2606TIP3    H129233   5.555   5.095   2.724 -3.1502 -1.4676 -1.9978
 2606TIP3    H229234   5.642   5.200   2.658  0.7569 -1.0528  3.1333
 2607TIP3   OH229235   2.772   1.859   3.165  0.2226 -0.7856 -0.3601
 2607TIP3    H129236   2.828   1.818   3.100  3.0472  1.3870  0.4673
 2607TIP3    H229237   2.769   1.951   3.139  0.5621 -0.0616  1.8968
 2608TIP3   OH229238   1.747   3.942   1.362  0.2297 -0.0714 -0.3210
 2608TIP3    H129239   1.775   3.952   1.452 -1.1286  0.7364  0.0326
 2608TIP3    H229240   1.674   3.880   1.366 -0.1609  0.3479 -0.7896
 2609TIP3   OH229241   6.067   0.434   4.571  0.4202  0.0490 -0.4449
 2609TIP3    H129242   6.131   0.409   4.505  0.0440 -0.2014 -0.7219
 2609TIP3    H229243   5.982   0.424   4.527  0.2425  1.8833 -0.6007
 2610TIP3   OH229244   3.258   3.084  13.045 -0.1263 -0.1822  0.0429
 2610TIP3    H129245   3.293   3.013  12.992  1.0496  1.7266 -1.9080
 2610TIP3    H229246   3.303   3.075  13.129 -0.3384 -1.9549  0.0076
 2611TIP3   OH229247   5.598   0.394  15.099 -0.4149 -0.2751 -0.2910
 2611TIP3    H129248   5.657   0.453  15.052  2.7733 -2.4709  0.6378
 2611TIP3    H229249   5.609   0.416  15.191 -0.6605 -1.0371 -0.0646
 2612TIP3   OH229250   0.723   0.273   0.677 -0.0896 -0.5313  0.0419
 2612TIP3    H129251   0.698   0.349   0.624  0.4012  0.6689  1.4766
 2612TIP3    H229252   0.642   0.249   0.723 -0.6738 -1.9459 -1.6102
 2613TIP3   OH229253   2.083   4.192  16.993 -0.0796  0.0923 -0.3036
 2613TIP3    H129254   2.154   4.130  16.979  0.6846  1.1024 -0.9956
 2613TIP3    H229255   2.038   4.159  17.071  0.6494 -1.0031 -0.3223
 2614TIP3   OH229256   2.745   1.615   4.670  0.0426 -0.4635 -0.0556
 2614TIP3    H129257   2.685   1.547   4.702  0.1166  0.0095  1.1522
 2614TIP3    H229258   2.814   1.618   4.736  0.1521  0.6301 -0.1995
 2615TIP3   OH229259   4.487   0.026   4.852 -0.4463  0.2175  0.0034
 2615TIP3    H129260   4.484  -0.037   4.780  0.3316 -0.5639  0.6438
 2615TIP3    H229261   4.498  -0.027   4.931 -0.4265  1.1114  0.6155
 2616TIP3   OH229262   0.685   6.741   2.578  0.2587  0.3236  0.2513
 2616TIP3    H129263   0.741   6.680   2.626 -2.1408 -0.4712  2.2499
 2616TIP3    H229264   0.668   6.812   2.639 -1.5321  0.1246  0.0602
 2617TIP3   OH229265   6.458   0.401   6.393  0.0483  0.5436  0.0341
 2617TIP3    H129266   6.536   0.372   6.439 -0.2589  1.2143  1.0139
 2617TIP3    H229267   6.392   0.412   6.462 -1.6166 -2.1647 -1.0024
 2618TIP3   OH229268   3.621   1.962  16.752  0.3195 -0.3834 -0.0484
 2618TIP3    H129269   3.686   2.027  16.780 -2.0839  2.2908 -0.2479
 2618TIP3    H229270   3.581   1.932  16.833 -0.0051 -0.0279 -0.0784
 2619TIP3   OH229271   4.319   0.344  16.101  0.8518 -0.2501  0.0603
 2619TIP3    H129272   4.230   0.376  16.090  1.0770  0.7960  1.0139
 2619TIP3    H229273   4.372   0.399  16.044  1.0561  0.1228  0.5975
 2620TIP3   OH229274   0.701   1.536  16.237  0.2298  0.4671  0.1579
 2620TIP3    H129275   0.792   1.506  16.228  0.1548  0.6346 -1.4063
 2620TIP3    H229276   0.685   1.535  16.332  1.6731 -0.1047  0.4272
 2621TIP3   OH229277   6.132   5.791   2.542 -0.3840  0.4259 -0.1447
 2621TIP3    H129278   6.062   5.782   2.478 -0.8076 -0.2409  0.3995
 2621TIP3    H229279   6.187   5.714   2.528 -0.1268  0.6048 -0.1226
 2622TIP3   OH229280   1.064   3.788  14.955  0.0527  0.2906  0.2875
 2622TIP3    H129281   1.135   3.733  14.922  0.8819  0.4801  1.6666
 2622TIP3    H229282   1.104   3.875  14.966 -0.7823  0.7529 -0.2490
 2623TIP3   OH229283   1.793   0.440  15.350 -0.6470 -0.5367  0.2253
 2623TIP3    H129284   1.698   0.449  15.349 -0.6655 -0.3428 -1.7868
 2623TIP3    H229285   1.816   0.420  15.259  1.2160 -0.8554  0.7196
 2624TIP3   OH229286   5.364   3.549   5.051  0.0124 -0.2862 -0.1272
 2624TIP3    H129287   5.337   3.640   5.061  0.0890  0.0861 -2.6171
 2624TIP3    H229288   5.427   3.534   5.121 -0.5161  1.3497  0.7436
 2625TIP3   OH229289   6.146   2.824  11.273 -1.0373 -0.6410  0.0510
 2625TIP3    H129290   6.208   2.752  11.262 -0.6875 -0.4027  0.4424
 2625TIP3    H229291   6.080   2.809  11.205 -0.5990 -0.9414 -0.3142
 2626TIP3   OH229292   3.498   0.519   2.585  0.2365  0.8318 -0.4750
 2626TIP3    H129293   3.507   0.476   2.500 -1.5668  2.0056 -1.3026
 2626TIP3    H229294   3.545   0.602   2.576  4.3643 -1.0052  1.3579
 2627TIP3   OH229295   6.076   4.976   0.378 -0.6497  0.2611 -0.3575
 2627TIP3    H129296   6.123   4.893   0.387 -2.4941 -0.6918  1.1939
 2627TIP3    H229297   6.122   5.035   0.437 -0.5857 -0.2730  0.1426
 2628TIP3   OH229298   4.976   3.500   0.729  0.0912  0.2827  0.1668
 2628TIP3    H129299   5.037   3.573   0.725  1.6881 -1.0029  0.2021
 2628TIP3    H229300   4.958   3.489   0.822  0.9399 -0.2211  0.2798
 2629TIP3   OH229301   5.974   1.682  15.183  0.2140  0.2542  0.0462
 2629TIP3    H129302   6.047   1.629  15.150 -0.2845 -0.5039  0.1434
 2629TIP3    H229303   5.967   1.657  15.275 -0.2037  0.2849  0.0224
 2630TIP3   OH229304   1.910   5.396   1.193  0.0898  0.3638  0.6852
 2630TIP3    H129305   1.857   5.328   1.234 -1.5319  1.9170  1.2832
 2630TIP3    H229306   1.878   5.401   1.103  0.5223  0.0371  0.5106
 2631TIP3   OH229307   0.271   6.512   2.438 -0.1909  0.0332  0.3393
 2631TIP3    H129308   0.221   6.588   2.469  1.1866  0.6436  1.1624
 2631TIP3    H229309   0.208   6.440   2.437 -1.7741  1.3429 -1.3241
 2632TIP3   OH229310   5.936   0.045   3.083 -0.0418  0.0361  0.9019
 2632TIP3    H129311   6.005   0.030   3.147  0.8438 -0.4692 -0.1263
 2632TIP3    H229312   5.946  -0.028   3.021 -1.4222  0.0279  0.6629
 2633TIP3   OH229313   3.331   3.966   3.215 -0.7007  0.1166 -0.2149
 2633TIP3    H129314   3.278   4.045   3.223  0.0479  0.5830  0.2603
 2633TIP3    H229315   3.343   3.936   3.305  1.3420  1.0437 -0.1222
 2634TIP3   OH229316   5.051   0.629  13.877  0.3640 -0.5205  0.1365
 2634TIP3    H129317   5.023   0.568  13.809 -2.1453  0.3242  0.2964
 2634TIP3    H229318   5.063   0.712  13.831 -0.4706 -0.1584  0.5463
 2635TIP3   OH229319   5.767   2.612  13.885 -0.5098 -0.0329  0.3229
 2635TIP3    H129320   5.742   2.523  13.910 -0.1137  0.0016  0.8525
 2635TIP3    H229321   5.697   2.640  13.826 -2.0148  0.2222  2.1368
 2636TIP3   OH229322   6.723   5.443   5.783  0.1256 -0.1256 -0.3228
 2636TIP3    H129323   6.743   5.409   5.870  0.9897 -0.2876 -0.5764
 2636TIP3    H229324   6.807   5.443   5.737 -0.1194  0.9691 -0.8069
 2637TIP3   OH229325   1.194   5.364  12.904  0.5530  0.5314 -0.0005
 2637TIP3    H129326   1.242   5.291  12.866  1.4269  1.4819 -0.7906
 2637TIP3    H229327   1.179   5.337  12.995  0.0427 -0.9958 -0.5075
 2638TIP3   OH229328   6.743   2.820   4.054 -0.0491  0.1021  0.1570
 2638TIP3    H129329   6.719   2.887   3.990 -0.2922 -0.0927  0.0440
 2638TIP3    H229330   6.831   2.844   4.081 -0.1087  0.4323  0.0680
 2639TIP3   OH229331   3.028   4.525  16.396 -0.6420 -0.1382  0.0997
 2639TIP3    H129332   3.075   4.501  16.476  0.2761 -1.2509 -0.7316
 2639TIP3    H229333   2.958   4.461  16.388 -0.0278 -0.7555 -0.5581
 2640TIP3   OH229334   6.251   2.184   1.138  0.6268  0.2758 -0.3693
 2640TIP3    H129335   6.209   2.260   1.177  0.5218  0.8951 -1.6504
 2640TIP3    H229336   6.178   2.133   1.100  0.8981  0.7363 -1.5394
 2641TIP3   OH229337   5.800   1.442   4.075 -0.1080 -0.2198  0.1443
 2641TIP3    H129338   5.861   1.387   4.124 -0.3750 -0.4387  0.2349
 2641TIP3    H229339   5.721   1.442   4.128 -1.3871 -2.7163 -1.5618
 2642TIP3   OH229340   1.570   4.552   4.093  0.0828  0.0990  0.8763
 2642TIP3    H129341   1.624   4.570   4.169  0.3217  1.7340  0.3610
 2642TIP3    H229342   1.598   4.616   4.028 -0.1518 -1.2180 -0.5802
 2643TIP3   OH229343   2.206   4.901   4.731  0.1136  0.2715 -0.2993
 2643TIP3    H129344   2.185   4.917   4.823 -1.8769  0.1681 -0.6789
 2643TIP3    H229345   2.268   4.970   4.708 -0.5897  1.2822  0.7222
 2644TIP3   OH229346   0.541   1.463   5.417  0.4622  0.1663 -0.1884
 2644TIP3    H129347   0.633   1.451   5.443  0.7434  1.3816 -0.5774
 2644TIP3    H229348   0.521   1.386   5.364  1.7440  0.6205 -1.3918
 2645TIP3   OH229349   3.728   1.280  12.955 -0.2951  0.0114  0.5930
 2645TIP3    H129350   3.713   1.229  13.034  0.7816 -1.7504 -0.2829
 2645TIP3    H229351   3.802   1.337  12.977 -0.1591 -0.2909  0.9217
 2646TIP3   OH229352   2.027   3.561  16.045  0.3535 -0.0967  0.4924
 2646TIP3    H129353   1.944   3.605  16.064  1.0702  0.9817  1.1695
 2646TIP3    H229354   2.064   3.541  16.130  0.4247 -1.3395  0.1963
 2647TIP3   OH229355   2.130   6.635  12.908 -0.5718  0.4019 -0.4430
 2647TIP3    H129356   2.196   6.568  12.890  1.9202  2.4715  0.3931
 2647TIP3    H229357   2.126   6.639  13.003 -2.1803  0.1436 -0.4748
 2648TIP3   OH229358   4.561   1.604   0.489  0.4494  0.0946  0.5594
 2648TIP3    H129359   4.575   1.545   0.414  2.0260  1.3826 -0.2290
 2648TIP3    H229360   4.487   1.566   0.536  0.8477 -2.0203 -0.3939
 2649TIP3   OH229361   1.815   5.969  15.055 -1.0535  0.0500 -0.4536
 2649TIP3    H129362   1.748   5.908  15.024 -2.7134  1.0118  1.0380
 2649TIP3    H229363   1.839   6.020  14.978 -2.3811 -0.0262 -0.9439
 2650TIP3   OH229364   1.131   0.751   1.412 -0.6416 -0.5861  0.3329
 2650TIP3    H129365   1.105   0.671   1.367 -0.5321  0.1349 -1.0662
 2650TIP3    H229366   1.205   0.725   1.467  0.8023 -1.0889 -1.6932
 2651TIP3   OH229367   1.777   3.435   5.170  0.2846  0.3595  0.6877
 2651TIP3    H129368   1.856   3.404   5.213 -0.5607 -1.5934  0.9638
 2651TIP3    H229369   1.767   3.525   5.200  3.2570  1.2578 -0.6653
 2652TIP3   OH229370   6.728   2.239   0.099 -0.4310  0.5709  0.1390
 2652TIP3    H129371   6.650   2.284   0.064 -0.1063 -0.1441 -1.6224
 2652TIP3    H229372   6.692   2.164   0.147 -0.8554  0.5578 -0.1896
 2653TIP3   OH229373   4.491   4.540   1.827 -0.0689 -0.1390  0.0449
 2653TIP3    H129374   4.544   4.551   1.906 -0.6431  0.3379  0.3704
 2653TIP3    H229375   4.404   4.520   1.859 -0.3633  0.3014 -0.4599
 2654TIP3   OH229376   0.297   5.836  13.704  0.7007 -0.3710 -0.3626
 2654TIP3    H129377   0.249   5.905  13.658  2.1495  0.5889 -0.5005
 2654TIP3    H229378   0.306   5.765  13.640  2.7401  0.9616 -1.6622
 2655TIP3   OH229379   1.912   1.612  11.085  0.1825 -0.0467 -0.3680
 2655TIP3    H129380   1.972   1.637  11.155 -0.2183  1.7412 -0.6068
 2655TIP3    H229381   1.964   1.556  11.027  1.6262  1.3752 -0.5159
 2656TIP3   OH229382   0.081   1.517  14.989  0.0144  0.1485 -0.4665
 2656TIP3    H129383   0.149   1.585  14.994 -0.3442  0.4373  1.6207
 2656TIP3    H229384   0.048   1.511  15.079  0.8836 -3.6795 -0.2560
 2657TIP3   OH229385   6.121   0.214   2.474  0.6486  0.6336  0.5186
 2657TIP3    H129386   6.192   0.241   2.416  1.0038  0.6787  0.9686
 2657TIP3    H229387   6.101   0.292   2.525 -1.3800  1.3546 -1.2396
 2658TIP3   OH229388   6.380   5.402   2.770  0.0854 -0.2488  0.0022
 2658TIP3    H129389   6.329   5.414   2.689 -0.1791  0.3050  0.2478
 2658TIP3    H229390   6.385   5.307   2.780 -0.7348 -0.3172 -0.1371
 2659TIP3   OH229391   2.318   0.165  13.353 -0.2123  0.1953 -0.0666
 2659TIP3    H129392   2.269   0.247  13.362  0.6107  0.8748 -1.4381
 2659TIP3    H229393   2.390   0.186  13.294  0.0697 -1.5126 -0.3929
 2660TIP3   OH229394   5.592   0.673   0.683 -0.3390 -0.2085  0.2817
 2660TIP3    H129395   5.679   0.659   0.645 -0.6862 -1.1017 -0.2227
 2660TIP3    H229396   5.608   0.710   0.770  0.5757 -1.4672  0.6595
 2661TIP3   OH229397   1.303   6.291  14.574  0.0888 -0.2364  0.1091
 2661TIP3    H129398   1.365   6.358  14.603 -0.2983 -0.4310  1.4485
 2661TIP3    H229399   1.235   6.341  14.528 -0.5655  0.4165  1.7089
 2662TIP3   OH229400   1.848   0.591  14.834 -0.2555  0.8479  0.7956
 2662TIP3    H129401   1.865   0.684  14.843  1.6337  0.5580  0.5613
 2662TIP3    H229402   1.919   0.559  14.778 -1.8590 -0.4287 -0.6018
 2663TIP3   OH229403   6.686   1.515   3.436 -0.3285  0.2253 -0.1419
 2663TIP3    H129404   6.670   1.432   3.481 -0.5844 -0.0114 -0.6725
 2663TIP3    H229405   6.775   1.507   3.403 -0.4364  0.0681 -0.3957
 2664TIP3   OH229406   5.196   1.092  14.112 -0.2800 -0.4197  0.6510
 2664TIP3    H129407   5.134   1.103  14.040 -0.7227  0.4701  1.1477
 2664TIP3    H229408   5.184   1.002  14.142  0.0015 -0.8451 -0.4523
 2665TIP3   OH229409   5.625   1.468   2.792 -0.3110 -0.0579  0.4738
 2665TIP3    H129410   5.539   1.467   2.749  0.4522 -2.5412 -1.2160
 2665TIP3    H229411   5.677   1.528   2.740 -0.3749 -0.3455  0.0776
 2666TIP3   OH229412   4.758   5.315   4.250 -0.0341 -0.0555  0.7451
 2666TIP3    H129413   4.845   5.275   4.252  0.0562  0.1381  0.7292
 2666TIP3    H229414   4.700   5.246   4.221  0.5124  0.5668 -2.1184
 2667TIP3   OH229415   2.908   3.248  12.196 -0.4033  0.1425  0.3787
 2667TIP3    H129416   2.973   3.316  12.178 -0.2392 -0.3453 -0.9489
 2667TIP3    H229417   2.876   3.269  12.284  1.3476  0.5522  0.9722
 2668TIP3   OH229418   3.959   0.076   2.072  0.2660  0.0594 -0.0671
 2668TIP3    H129419   4.041   0.119   2.046  1.4726 -2.3792 -0.6868
 2668TIP3    H229420   3.934   0.025   1.994 -1.9140  0.8015  0.0943
 2669TIP3   OH229421   3.038   0.490   4.050  0.2640  0.7506  0.1035
 2669TIP3    H129422   3.107   0.428   4.075  0.4811  0.5576 -0.9429
 2669TIP3    H229423   3.048   0.501   3.956 -1.8715 -0.2048 -0.2986
 2670TIP3   OH229424   2.510   1.858   2.472 -0.0731 -0.3405 -0.4094
 2670TIP3    H129425   2.511   1.834   2.564  1.5826  0.6700 -0.1202
 2670TIP3    H229426   2.528   1.952   2.471 -1.2188 -0.1002 -1.7291
 2671TIP3   OH229427   4.695   1.244   3.066  0.2707 -0.5812  0.2986
 2671TIP3    H129428   4.687   1.171   3.127 -1.7573 -1.1189 -0.5212
 2671TIP3    H229429   4.759   1.216   3.001 -0.3167 -1.5599  0.1242
 2672TIP3   OH229430   2.737   2.477   0.898  0.0245  0.0973  0.4590
 2672TIP3    H129431   2.764   2.542   0.834  1.1032  0.5014  1.3046
 2672TIP3    H229432   2.787   2.398   0.874 -0.3469 -0.0654  0.1971
 2673TIP3   OH229433   0.312   6.512  15.988  0.2145 -0.1296  0.1172
 2673TIP3    H129434   0.368   6.567  16.043 -0.7654 -0.5848  1.6314
 2673TIP3    H229435   0.301   6.431  16.037  0.8551 -1.3462 -1.6489
 2674TIP3   OH229436   5.637   1.462  15.026  0.2378  0.6209 -0.0996
 2674TIP3    H129437   5.608   1.457  14.935  0.1647  2.8009 -0.2449
 2674TIP3    H229438   5.559   1.441  15.077  0.2382 -0.4483 -0.5073
 2675TIP3   OH229439   0.754   0.291  13.737  0.2286 -0.4975  0.2231
 2675TIP3    H129440   0.677   0.303  13.682  0.6549  0.6195 -0.1603
 2675TIP3    H229441   0.732   0.336  13.819  0.5888  0.1242 -0.0126
 2676TIP3   OH229442   3.669   1.735   1.610  0.4585  0.1024  0.2258
 2676TIP3    H129443   3.760   1.753   1.586  0.3113  0.7601  0.1527
 2676TIP3    H229444   3.669   1.735   1.706  0.2828  1.4737  0.2444
 2677TIP3   OH229445   4.101   2.409  11.950  0.1167  0.4844 -0.0461
 2677TIP3    H129446   4.185   2.378  11.916 -0.5088 -0.0367 -1.1458
 2677TIP3    H229447   4.037   2.345  11.921 -0.5316  0.2473  1.7730
 2678TIP3   OH229448   0.284   3.088   3.326  0.1792  0.1088  0.0762
 2678TIP3    H129449   0.236   3.071   3.407 -0.3273 -0.2184 -0.2889
 2678TIP3    H229450   0.331   3.006   3.310  2.1815  0.9401  1.2969
 2679TIP3   OH229451   5.724   5.878  10.339  0.0153  0.9178  0.4973
 2679TIP3    H129452   5.794   5.842  10.393 -0.0929  1.2936  0.8903
 2679TIP3    H229453   5.725   5.824  10.260  0.3706  0.5579  0.7442
 2680TIP3   OH229454   6.358   4.752  15.906  0.1304  0.2286  0.0853
 2680TIP3    H129455   6.432   4.803  15.874 -0.0590  0.2650 -0.3044
 2680TIP3    H229456   6.355   4.675  15.850  0.8381 -0.5658  1.1206
 2681TIP3   OH229457   3.608   4.006   0.211  0.1437 -0.0412  0.4852
 2681TIP3    H129458   3.587   4.053   0.131 -1.3024  2.3921  2.1442
 2681TIP3    H229459   3.703   4.015   0.221  0.2843 -0.0724 -0.7389
 2682TIP3   OH229460   6.237   0.103   5.984 -0.1047 -0.4496  0.4318
 2682TIP3    H129461   6.156   0.144   6.015  0.7995  0.0820  2.2262
 2682TIP3    H229462   6.306   0.165   6.006  1.0757 -1.9666  1.2094
 2683TIP3   OH229463   0.729   3.504  11.572  0.7303 -0.0475  0.0181
 2683TIP3    H129464   0.650   3.531  11.526  1.9071  0.1510 -2.0238
 2683TIP3    H229465   0.702   3.493  11.663 -1.5150  0.4561 -0.5354
 2684TIP3   OH229466   5.193   5.643   0.084  0.2389  0.4283 -0.6972
 2684TIP3    H129467   5.233   5.602   0.007 -1.3237 -0.6848 -0.9730
 2684TIP3    H229468   5.152   5.722   0.051  1.2747  1.0238 -0.6034
 2685TIP3   OH229469   6.378   4.440  15.911 -0.1117 -0.3911 -0.0088
 2685TIP3    H129470   6.356   4.354  15.876 -0.8947  0.0976 -0.7450
 2685TIP3    H229471   6.400   4.492  15.834 -0.2284  0.2302  0.3761
 2686TIP3   OH229472   5.214   0.712  13.327 -0.2446  0.3055  0.0010
 2686TIP3    H129473   5.124   0.685  13.310  0.1109 -1.2054  0.3950
 2686TIP3    H229474   5.266   0.663  13.264  0.3333  0.9590 -0.0381
 2687TIP3   OH229475   0.383   1.028  13.927  0.2790 -0.4973  0.4410
 2687TIP3    H129476   0.355   1.116  13.953  1.5107 -0.1697  0.7426
 2687TIP3    H229477   0.421   0.991  14.007  1.0488 -0.7674 -0.0412
 2688TIP3   OH229478   1.912   6.337   5.183  0.1479  0.0793  0.0339
 2688TIP3    H129479   1.938   6.401   5.117  1.5036  1.2400  1.6221
 2688TIP3    H229480   1.847   6.382   5.236 -1.1480 -0.9443 -0.6348
 2689TIP3   OH229481   2.258   3.260  15.259  0.6551 -0.3986  0.1976
 2689TIP3    H129482   2.324   3.302  15.314  0.4480 -0.7921  0.7449
 2689TIP3    H229483   2.285   3.281  15.169 -0.7994  3.0900  0.4092
 2690TIP3   OH229484   2.093   4.999  12.750  0.4070  0.6741  0.1233
 2690TIP3    H129485   2.134   4.926  12.797 -0.2479  1.6876  2.4265
 2690TIP3    H229486   2.014   4.962  12.710  1.5102 -0.4414 -1.1418
 2691TIP3   OH229487   5.395   1.105  13.001  0.2372  0.5291 -0.2712
 2691TIP3    H129488   5.399   1.021  12.955  1.4422  1.0828 -1.2225
 2691TIP3    H229489   5.475   1.151  12.974  0.6723  1.1417  1.8815
 2692TIP3   OH229490   4.854   1.514   0.099  0.4427  0.2462  0.5875
 2692TIP3    H129491   4.806   1.519   0.182  0.8613  1.1153  0.7939
 2692TIP3    H229492   4.894   1.600   0.090  1.5555 -0.2957  0.1764
 2693TIP3   OH229493   5.715   4.957  16.835  0.0352  0.2820 -0.5330
 2693TIP3    H129494   5.706   5.002  16.919 -1.6690 -0.4659 -0.2763
 2693TIP3    H229495   5.809   4.939  16.828  0.5566  2.4576  0.0664
 2694TIP3   OH229496   5.248   4.504  15.166 -0.2486 -0.4232  0.1232
 2694TIP3    H129497   5.223   4.493  15.074  1.4794 -1.8962 -0.2261
 2694TIP3    H229498   5.225   4.421  15.208  1.8747 -1.0209  0.2459
 2695TIP3   OH229499   5.633   1.436   3.453 -0.8174 -0.4157 -0.3795
 2695TIP3    H129500   5.606   1.495   3.523  1.9022  0.3429  0.1415
 2695TIP3    H229501   5.619   1.348   3.489 -0.5897 -0.0417  0.6577
 2696TIP3   OH229502   2.603   0.646   1.971  0.2351 -0.3952 -0.3560
 2696TIP3    H129503   2.523   0.593   1.970 -0.3538  0.4608 -0.4397
 2696TIP3    H229504   2.661   0.603   1.908 -0.8054 -0.1072 -1.5653
 2697TIP3   OH229505   0.649   0.814  12.107 -0.3782  0.3500 -0.4163
 2697TIP3    H129506   0.670   0.905  12.130 -1.9092  0.9452 -1.2193
 2697TIP3    H229507   0.734   0.770  12.106  0.5468  2.0391 -1.0999
 2698TIP3   OH229508   0.816   6.579   2.913 -0.0515 -0.5142  0.3536
 2698TIP3    H129509   0.857   6.501   2.950  1.0688  0.3885  1.1177
 2698TIP3    H229510   0.728   6.552   2.890 -0.4818 -1.4395  2.7722
 2699TIP3   OH229511   2.231   4.251   0.425  0.0512 -0.6015 -0.1834
 2699TIP3    H129512   2.173   4.220   0.494  0.0748 -0.5342 -0.1334
 2699TIP3    H229513   2.186   4.326   0.387 -0.7406 -1.6357 -1.3511
 2700TIP3   OH229514   3.450   1.600  16.971  0.3401 -0.4283  0.4755
 2700TIP3    H129515   3.389   1.636  17.035  0.2130 -1.6546  1.0740
 2700TIP3    H229516   3.448   1.662  16.898  1.2636  1.5441  2.0446
 2701TIP3   OH229517   3.648   3.353  13.021 -0.3380  0.4996 -0.3863
 2701TIP3    H129518   3.692   3.342  13.105  1.3075  1.8199 -1.0300
 2701TIP3    H229519   3.629   3.446  13.015 -2.6685  0.0798 -0.4538
 2702TIP3   OH229520   2.515   0.468   3.665  0.8297 -0.0497 -0.2721
 2702TIP3    H129521   2.525   0.538   3.730 -1.6853  1.1507 -1.0607
 2702TIP3    H229522   2.593   0.474   3.610  1.4868  0.9532  0.7300
 2703TIP3   OH229523   2.912   5.222   0.550 -0.0578  0.4418 -0.0474
 2703TIP3    H129524   2.997   5.225   0.507  0.7425 -0.7851  1.3323
 2703TIP3    H229525   2.933   5.223   0.644 -1.4692 -0.9341  0.3304
 2704TIP3   OH229526   5.590   3.512  14.778  0.3141 -0.2036  0.1857
 2704TIP3    H129527   5.659   3.477  14.835  0.6686 -0.0572 -0.1465
 2704TIP3    H229528   5.511   3.510  14.832  0.2254 -1.8891  0.0747
 2705TIP3   OH229529   0.118   4.871   3.930 -1.0597  0.3966  0.7571
 2705TIP3    H129530   0.192   4.811   3.918 -0.9725  0.3710  1.3732
 2705TIP3    H229531   0.074   4.873   3.845 -0.3088  0.4684  0.3650
 2706TIP3   OH229532   3.220   4.538  15.324 -0.3996 -0.0817  0.4223
 2706TIP3    H129533   3.172   4.562  15.403 -0.5268  1.2176 -0.0376
 2706TIP3    H229534   3.160   4.479  15.277 -0.9237  0.2949  0.6038
 2707TIP3   OH229535   6.017   4.065   1.847  0.4630 -0.0269  0.0899
 2707TIP3    H129536   6.088   4.074   1.910  0.4351 -0.1151  0.1334
 2707TIP3    H229537   5.952   4.010   1.891 -0.1583  1.0051  0.5165
 2708TIP3   OH229538   2.824   3.367   5.939  0.1460 -0.0290 -0.4838
 2708TIP3    H129539   2.918   3.369   5.922  0.5329 -2.8942  0.7857
 2708TIP3    H229540   2.784   3.385   5.853  1.7987  1.2458 -1.0452
 2709TIP3   OH229541   4.010   6.694  14.770 -0.1132 -0.4333 -0.2047
 2709TIP3    H129542   4.039   6.640  14.696  0.0670 -1.7843  0.8192
 2709TIP3    H229543   3.925   6.657  14.795 -0.6402  0.6395 -0.3230
 2710TIP3   OH229544   1.486   1.104  15.508  0.2880 -0.3890 -0.0764
 2710TIP3    H129545   1.394   1.120  15.484  0.1549 -2.1617 -0.9128
 2710TIP3    H229546   1.535   1.131  15.430  0.3134 -1.1048 -0.3136
 2711TIP3   OH229547   3.228   3.945  16.476 -0.0954 -0.1092  0.1733
 2711TIP3    H129548   3.165   3.958  16.404 -0.8124  3.0323  1.2333
 2711TIP3    H229549   3.310   3.924  16.432 -0.8345  0.2777 -1.4806
 2712TIP3   OH229550   3.019   6.770  11.171  0.2348  0.0329  0.2865
 2712TIP3    H129551   2.972   6.762  11.088  0.1481 -0.5797  0.3874
 2712TIP3    H229552   2.958   6.817  11.228 -0.2356 -0.6703  0.3854
 2713TIP3   OH229553   2.266   0.411  13.103  0.1003 -0.0337  0.3401
 2713TIP3    H129554   2.245   0.495  13.063  1.2394  0.7699  1.3783
 2713TIP3    H229555   2.217   0.409  13.185  2.3384  0.9793  1.7894
 2714TIP3   OH229556   3.286   1.171  14.096 -0.5083  0.2264  0.1507
 2714TIP3    H129557   3.345   1.131  14.160 -1.3423 -2.6102 -0.6956
 2714TIP3    H229558   3.342   1.232  14.047  0.6584  0.7788  2.0460
 2715TIP3   OH229559   3.067   3.284  13.322 -0.3980  0.7649  0.0729
 2715TIP3    H129560   3.092   3.347  13.254 -0.5672  1.5484  0.7238
 2715TIP3    H229561   3.103   3.320  13.403 -2.1013  1.0166  0.7684
 2716TIP3   OH229562   2.768   5.257   1.501 -0.3352 -0.1232  0.0553
 2716TIP3    H129563   2.719   5.175   1.506 -0.0822 -0.2806 -0.0044
 2716TIP3    H229564   2.830   5.252   1.574  0.8679 -0.7745 -0.9578
 2717TIP3   OH229565   2.732   2.356   4.565  0.9631  0.1380 -0.6393
 2717TIP3    H129566   2.720   2.261   4.571  2.8001 -0.2759 -2.4734
 2717TIP3    H229567   2.670   2.384   4.498  0.5304  0.2368 -0.2070
 2718TIP3   OH229568   5.017   4.304  15.634  0.0307 -0.0265 -0.0692
 2718TIP3    H129569   5.074   4.326  15.707 -0.6459  2.7321 -0.2913
 2718TIP3    H229570   5.077   4.283  15.562  0.7854  1.3857  0.1162
 2719TIP3   OH229571   0.169   3.415   4.899 -0.6524  0.1700 -0.6431
 2719TIP3    H129572   0.253   3.459   4.892 -0.5727 -0.1831 -2.5383
 2719TIP3    H229573   0.133   3.443   4.983  0.7400  1.4073 -0.4302
 2720TIP3   OH229574   2.891   1.147  16.397  0.1453 -0.2202  0.1232
 2720TIP3    H129575   2.846   1.201  16.332 -1.9198 -2.5767 -0.5633
 2720TIP3    H229576   2.836   1.151  16.475  0.4335 -0.5967  0.3508
 2721TIP3   OH229577   6.681   3.111  16.330 -0.3435 -0.0579 -0.0715
 2721TIP3    H129578   6.658   3.199  16.360 -0.5097 -0.1751  0.1508
 2721TIP3    H229579   6.598   3.070  16.309 -0.2890 -0.2632  0.1102
 2722TIP3   OH229580   2.759   2.883   2.357  0.3904  0.2475  0.6358
 2722TIP3    H129581   2.742   2.815   2.422 -0.4929 -0.0652  0.1045
 2722TIP3    H229582   2.672   2.918   2.337  0.5897 -0.0150 -0.7560
 2723TIP3   OH229583   4.628   6.439  10.515  0.3435 -0.1211 -0.2629
 2723TIP3    H129584   4.616   6.345  10.533  0.8354 -0.0786  0.2991
 2723TIP3    H229585   4.711   6.461  10.557 -0.3244  0.8236  0.5758
 2724TIP3   OH229586   6.336   2.472  12.983  0.3017  0.5369  0.1650
 2724TIP3    H129587   6.398   2.524  13.035  0.1800 -0.0865  0.9577
 2724TIP3    H229588   6.327   2.520  12.901 -1.9638  3.3532  1.8579
 2725TIP3   OH229589   5.067   5.591  16.500 -0.2003  0.1263  0.2508
 2725TIP3    H129590   5.056   5.650  16.425  1.3265  0.6881  0.4193
 2725TIP3    H229591   5.162   5.583  16.509 -0.3742 -0.7511  1.4994
 2726TIP3   OH229592   3.421   2.980  12.411  0.4674 -0.3259  0.0816
 2726TIP3    H129593   3.464   2.998  12.495 -0.8456  2.2404  0.3133
 2726TIP3    H229594   3.471   3.029  12.347 -0.1962  0.0460 -0.1632
 2727TIP3   OH229595   6.484   1.194  12.487 -0.2452  0.5203  0.4343
 2727TIP3    H129596   6.533   1.251  12.428 -2.0410 -0.6638 -2.4558
 2727TIP3    H229597   6.399   1.184  12.444 -1.9330  0.0245  3.6195
 2728TIP3   OH229598   4.468   1.777   5.150  0.2255 -0.1588  0.1802
 2728TIP3    H129599   4.439   1.852   5.200  0.7972  0.2543 -0.0974
 2728TIP3    H229600   4.388   1.729   5.130 -0.1199  0.2717  0.5200
 2729TIP3   OH229601   6.683   3.447  14.525 -0.5013 -0.0514  0.0762
 2729TIP3    H129602   6.625   3.467  14.598 -0.7717 -0.2894 -0.0699
 2729TIP3    H229603   6.704   3.354  14.536  0.4812  0.2226  0.5715
 2730TIP3   OH229604   0.025   3.539  16.202  0.3016 -0.4437 -0.7596
 2730TIP3    H129605   0.071   3.535  16.118  0.8747 -2.6323 -0.4230
 2730TIP3    H229606  -0.041   3.470  16.196  0.6448 -0.9283  0.7327
 2731TIP3   OH229607   4.905   1.114   4.992 -0.3448 -0.9915  0.9059
 2731TIP3    H129608   4.840   1.045   4.980 -0.1683 -0.9274 -0.6672
 2731TIP3    H229609   4.938   1.101   5.081 -2.3456 -1.1385  1.6672
 2732TIP3   OH229610   2.179   1.222   2.653  0.0838 -0.4776  0.1848
 2732TIP3    H129611   2.212   1.149   2.601  0.6950 -1.0289  1.3019
 2732TIP3    H229612   2.215   1.207   2.741 -0.1366  0.9284  0.5452
 2733TIP3   OH229613   3.079   4.903   6.082 -0.0711  0.1627 -0.0977
 2733TIP3    H129614   3.040   4.816   6.075  0.7201 -0.1583 -0.6691
 2733TIP3    H229615   3.024   4.949   6.146 -1.4456 -0.2246 -0.9635
 2734TIP3   OH229616   0.896   1.768  15.165 -0.2622 -0.5192  0.1360
 2734TIP3    H129617   0.911   1.674  15.179 -0.2123 -0.1724  2.9440
 2734TIP3    H229618   0.818   1.787  15.216  0.3893  1.1684  0.5628
 2735TIP3   OH229619   3.397   0.355   3.165  0.7322 -0.7418 -0.2877
 2735TIP3    H129620   3.323   0.298   3.187  1.1253 -0.5599  1.7041
 2735TIP3    H229621   3.457   0.346   3.240  0.2274  3.2259  0.8088
 2736TIP3   OH229622   3.410   0.895  13.568 -0.1725  0.0193 -0.4805
 2736TIP3    H129623   3.416   0.887  13.663  1.2873  1.0804 -0.4513
 2736TIP3    H229624   3.404   0.805  13.537  0.4640 -0.4012  0.5596
 2737TIP3   OH229625   3.568   1.854   4.752 -0.6968  0.0412 -0.1262
 2737TIP3    H129626   3.598   1.941   4.724 -0.2034  0.4069  1.4793
 2737TIP3    H229627   3.485   1.842   4.706 -0.4054  1.0346 -0.9523
 2738TIP3   OH229628   6.646   4.833  12.626 -0.0693 -0.1086  0.3585
 2738TIP3    H129629   6.607   4.869  12.547 -2.2677 -1.1067  0.8825
 2738TIP3    H229630   6.734   4.806  12.601 -0.4676  0.2571 -1.5402
 2739TIP3   OH229631   6.162   6.107  17.104 -0.1602  0.2039 -0.0085
 2739TIP3    H129632   6.126   6.019  17.096  0.2376 -0.0196  0.6441
 2739TIP3    H229633   6.088   6.161  17.132 -0.1673 -0.1108  0.5770
 2740TIP3   OH229634   5.090   6.272   1.380 -0.1239 -0.0617 -0.7443
 2740TIP3    H129635   5.132   6.267   1.466 -1.0541  3.5934  0.0950
 2740TIP3    H229636   5.112   6.360   1.348 -1.9052 -0.3788 -3.0879
 2741TIP3   OH229637   1.787   6.778   0.773  0.0421  0.6442 -0.6758
 2741TIP3    H129638   1.830   6.858   0.803 -0.3234  0.8698 -0.7528
 2741TIP3    H229639   1.831   6.708   0.822  0.3076  0.8964 -0.5478
 2742TIP3   OH229640   1.999   2.388   5.470  0.1328  0.6731 -0.5894
 2742TIP3    H129641   1.914   2.356   5.498  1.0749 -0.3045  1.3616
 2742TIP3    H229642   2.048   2.401   5.551  1.6937  1.6840 -1.6291
 2743TIP3   OH229643   2.061   1.757   5.611  0.5445 -0.4594 -0.1923
 2743TIP3    H129644   2.088   1.817   5.542  1.2947  0.5695  0.9526
 2743TIP3    H229645   2.034   1.814   5.683  1.6986 -1.4536  1.0898
 2744TIP3   OH229646   6.180   5.751  11.581 -0.6461  0.2870 -0.3416
 2744TIP3    H129647   6.089   5.722  11.593 -1.6552  3.2857  0.1762
 2744TIP3    H229648   6.194   5.750  11.486 -1.0651 -0.5961 -0.3980
 2745TIP3   OH229649   2.426   0.942  15.265 -0.7676 -0.2893  0.1380
 2745TIP3    H129650   2.365   1.005  15.302 -0.5859 -0.3809  0.5989
 2745TIP3    H229651   2.372   0.865  15.247 -0.7458 -0.4601  0.7779
 2746TIP3   OH229652   3.783   3.297  13.249 -0.1137 -0.6255  0.0080
 2746TIP3    H129653   3.836   3.375  13.236  0.3393 -0.9168  0.0780
 2746TIP3    H229654   3.735   3.313  13.331  0.2702 -0.5806  0.2257
 2747TIP3   OH229655   6.222   1.395   2.056  0.3153 -0.3975 -0.2601
 2747TIP3    H129656   6.126   1.399   2.053  0.3130  3.5287 -2.9268
 2747TIP3    H229657   6.244   1.325   1.995 -1.0222  1.1727 -2.7485
 2748TIP3   OH229658   4.612   3.676   1.502  0.3709  0.4448 -0.2648
 2748TIP3    H129659   4.518   3.692   1.500  0.2714 -0.0728 -0.0053
 2748TIP3    H229660   4.627   3.607   1.438  0.5435  0.3665 -0.1421
 2749TIP3   OH229661   1.402   0.457   4.569 -0.3272  0.1125 -0.1723
 2749TIP3    H129662   1.368   0.479   4.483 -1.0001 -0.6031 -0.0983
 2749TIP3    H229663   1.455   0.378   4.555  1.3653  1.2195 -0.2910
 2750TIP3   OH229664   0.398   6.523  16.295 -0.6923 -0.6371  0.4211
 2750TIP3    H129665   0.357   6.469  16.362 -0.2641 -3.1056 -1.1667
 2750TIP3    H229666   0.492   6.507  16.306 -0.2715  2.0743  1.6690
 2751TIP3   OH229667   2.356   2.618   3.667 -0.0440  0.3276 -0.1133
 2751TIP3    H129668   2.339   2.709   3.689 -0.8529 -0.1776  1.5044
 2751TIP3    H229669   2.451   2.613   3.657  0.0318  1.2825  0.0334
 2752TIP3   OH229670   2.476   6.071   0.470  0.2119  0.3558  0.4145
 2752TIP3    H129671   2.564   6.052   0.503  0.7612  1.5946 -0.2803
 2752TIP3    H229672   2.423   5.996   0.499  2.1021 -2.0481 -1.7845
 2753TIP3   OH229673   2.088   1.406  13.893  0.4446  0.1650  0.2242
 2753TIP3    H129674   2.002   1.444  13.874  0.6094 -0.3377 -1.8217
 2753TIP3    H229675   2.069   1.314  13.912  0.2579  0.7018  3.1350
 2754TIP3   OH229676   5.678   2.168   6.468  0.4623 -0.6879  0.1390
 2754TIP3    H129677   5.617   2.209   6.407  0.5194 -2.3933 -1.1411
 2754TIP3    H229678   5.668   2.218   6.549 -1.5845 -0.0195 -0.4587
 2755TIP3   OH229679   0.098   5.728   3.405 -0.0100 -0.3085  0.3651
 2755TIP3    H129680   0.150   5.768   3.336  0.0302 -2.0489 -0.6948
 2755TIP3    H229681   0.158   5.667   3.449 -0.9528 -1.9916 -0.5660
 2756TIP3   OH229682   4.437   4.422  14.393 -0.5144 -0.3602  0.2432
 2756TIP3    H129683   4.411   4.514  14.400  0.1786 -0.1589  0.1928
 2756TIP3    H229684   4.454   4.409  14.300 -1.7940 -0.8717  0.0592
 2757TIP3   OH229685   1.304   1.094  12.555 -0.2316  0.4989 -0.6821
 2757TIP3    H129686   1.363   1.153  12.602  3.3898 -3.1500 -0.0525
 2757TIP3    H229687   1.330   1.102  12.463 -0.9296  1.0513 -0.8401
 2758TIP3   OH229688   6.744   1.467   0.223 -0.2257  0.5012  0.1814
 2758TIP3    H129689   6.691   1.546   0.210 -0.2702  0.7893  1.7947
 2758TIP3    H229690   6.702   1.422   0.296  2.0455  1.0800  1.9714
 2759TIP3   OH229691   5.445   5.765  12.260 -0.0240  0.3725 -0.0882
 2759TIP3    H129692   5.539   5.779  12.250 -0.1366  0.8058 -0.6096
 2759TIP3    H229693   5.424   5.802  12.346  0.3900 -0.3466  0.3382
 2760TIP3   OH229694   5.770   4.772   6.260 -0.1970 -0.6782 -0.0637
 2760TIP3    H129695   5.785   4.691   6.211  1.2666  0.7445 -2.1353
 2760TIP3    H229696   5.695   4.812   6.217 -0.4527 -0.5648  0.4802
 2761TIP3   OH229697   4.954   3.954   4.450 -0.0846 -0.5238  0.2409
 2761TIP3    H129698   4.882   3.915   4.401 -0.9570  0.5876  0.5870
 2761TIP3    H229699   4.979   3.888   4.515 -0.9119 -0.8581  0.2231
 2762TIP3   OH229700   0.648   1.175   0.558 -0.4248 -0.7119 -0.3219
 2762TIP3    H129701   0.673   1.138   0.643  0.0009 -0.8343 -0.4932
 2762TIP3    H229702   0.560   1.141   0.541 -1.2940  0.7900  0.9139
 2763TIP3   OH229703   0.636   2.267   2.885 -0.0232  0.5295 -0.0323
 2763TIP3    H129704   0.694   2.236   2.954 -0.6467  0.5468  0.5121
 2763TIP3    H229705   0.693   2.319   2.827  0.9627 -1.3034 -0.7788
 2764TIP3   OH229706   2.963   6.367  11.528  0.1323 -0.1286 -0.0651
 2764TIP3    H129707   2.981   6.290  11.474  0.4553 -0.1905  0.1279
 2764TIP3    H229708   2.880   6.401  11.495  0.1595 -0.3627 -0.3756
 2765TIP3   OH229709   5.815   1.617   2.609 -0.3054 -0.1681  0.5011
 2765TIP3    H129710   5.908   1.618   2.633 -0.2951 -0.0277  0.4586
 2765TIP3    H229711   5.815   1.592   2.516 -0.3977 -1.5807  0.8716
 2766TIP3   OH229712   3.245   3.955   1.167  0.3226  0.0234  0.2920
 2766TIP3    H129713   3.168   3.902   1.187  1.3002 -1.9073 -0.7408
 2766TIP3    H229714   3.301   3.945   1.244 -0.1781  0.9738  0.8045
 2767TIP3   OH229715   2.984   5.762   1.749 -0.4710  0.3027  0.0681
 2767TIP3    H129716   2.902   5.766   1.700 -0.3563 -0.8939 -0.2446
 2767TIP3    H229717   2.959   5.728   1.835 -0.3465  0.1987  0.0633
 2768TIP3   OH229718   5.056   6.148   2.805  0.3277 -0.0586  0.0126
 2768TIP3    H129719   5.004   6.176   2.880  0.2893 -2.1064  0.8231
 2768TIP3    H229720   4.993   6.137   2.734  0.0902  0.1872  0.1851
 2769TIP3   OH229721   1.233   6.468   1.682  0.1666  0.6930 -0.3104
 2769TIP3    H129722   1.230   6.380   1.720 -1.0058 -0.0017 -1.8560
 2769TIP3    H229723   1.187   6.523   1.744  0.5915  0.1446  0.5071
 2770TIP3   OH229724   0.455   0.383   5.550  0.4292  0.0910 -0.5139
 2770TIP3    H129725   0.541   0.393   5.509  0.8367 -0.1185  0.2655
 2770TIP3    H229726   0.409   0.465   5.531  0.6955  0.0870 -1.1810
 2771TIP3   OH229727   5.314   3.543   6.449 -0.5080  0.0723  0.4311
 2771TIP3    H129728   5.343   3.467   6.499 -0.0048  0.3216  0.5317
 2771TIP3    H229729   5.368   3.541   6.370 -0.8276  0.0571  0.2117
 2772TIP3   OH229730   3.526   6.535  12.284  0.2602 -0.8944 -0.2559
 2772TIP3    H129731   3.435   6.515  12.305  0.3329 -2.5673 -1.3191
 2772TIP3    H229732   3.521   6.591  12.207  0.1178  1.3238  1.2705
 2773TIP3   OH229733   4.938   2.866   1.327 -0.2624  0.3355  0.0302
 2773TIP3    H129734   5.015   2.813   1.347 -0.5758 -0.6372 -1.2628
 2773TIP3    H229735   4.878   2.850   1.400  0.2951  0.2122  0.4709
 2774TIP3   OH229736   2.732   3.428   1.738 -0.4674 -0.2621  0.1318
 2774TIP3    H129737   2.705   3.495   1.675  0.0279  0.7609  0.9687
 2774TIP3    H229738   2.810   3.389   1.700 -0.3018  0.1959 -0.0087
 2775TIP3   OH229739   1.839   5.333  16.459 -0.1794  0.7055  0.2754
 2775TIP3    H129740   1.843   5.422  16.493  2.6507  1.0092 -0.5413
 2775TIP3    H229741   1.881   5.280  16.526 -0.8448  0.1641  0.2700
 2776TIP3   OH229742   4.726   3.166  14.572  0.1371 -0.4816 -0.4346
 2776TIP3    H129743   4.735   3.161  14.667  1.9802 -0.4043 -0.5662
 2776TIP3    H229744   4.710   3.258  14.554  0.8013 -0.3196 -0.2421
 2777TIP3   OH229745   3.815   5.508  11.176 -0.2515 -0.2348  0.7858
 2777TIP3    H129746   3.798   5.480  11.086 -1.0137  0.2683  0.7661
 2777TIP3    H229747   3.879   5.445  11.209  1.2534  0.4662 -0.6063
 2778TIP3   OH229748   5.071   5.732  15.703  0.1525 -0.6650 -0.4358
 2778TIP3    H129749   4.990   5.706  15.658 -0.6280 -2.4703  1.8506
 2778TIP3    H229750   5.122   5.776  15.635 -2.8819  0.9740 -1.9041
 2779TIP3   OH229751   0.163   1.933  14.231 -0.0210  0.6559  0.1388
 2779TIP3    H129752   0.247   1.922  14.186 -0.1684  1.2069 -0.2814
 2779TIP3    H229753   0.165   2.021  14.267 -0.0197  0.3186  0.9930
 2780TIP3   OH229754   3.768   4.202   3.798 -0.0149  0.2419  0.2774
 2780TIP3    H129755   3.698   4.267   3.807 -1.3573 -1.2189  0.7102
 2780TIP3    H229756   3.729   4.131   3.748  1.0688 -0.7328  0.7760
 2781TIP3   OH229757   3.490   2.608   1.366  0.0450 -0.3540 -0.0833
 2781TIP3    H129758   3.431   2.652   1.427 -0.9043 -1.8388  0.1365
 2781TIP3    H229759   3.441   2.531   1.337  0.6830  0.0264 -2.3398
 2782TIP3   OH229760   1.261   1.318   1.797  0.1407 -0.7245 -0.1061
 2782TIP3    H129761   1.195   1.381   1.824 -0.1208 -0.4725 -1.2936
 2782TIP3    H229762   1.330   1.326   1.862 -0.1412  0.3769  0.0693
 2783TIP3   OH229763   6.569   3.577   6.625  0.1827 -0.2893 -0.3824
 2783TIP3    H129764   6.589   3.513   6.557  0.0958 -0.4728 -0.2358
 2783TIP3    H229765   6.577   3.662   6.581  1.5782 -0.3448 -0.2555
 2784TIP3   OH229766   3.772   3.147   3.212 -0.9522 -0.4363 -0.2600
 2784TIP3    H129767   3.725   3.089   3.152 -1.0207 -1.5155  0.7878
 2784TIP3    H229768   3.864   3.123   3.202 -0.9766 -0.7182  0.1473
 2785TIP3   OH229769   0.018   1.674  10.970 -0.6619  0.4689 -0.2940
 2785TIP3    H129770  -0.076   1.664  10.955 -0.3926 -0.3022 -1.5740
 2785TIP3    H229771   0.025   1.747  11.032 -2.0505  1.2648 -1.0359
 2786TIP3   OH229772   0.966   5.786   2.141  0.1675 -0.5404 -0.3046
 2786TIP3    H129773   0.981   5.722   2.210 -1.9652  1.2511  1.9837
 2786TIP3    H229774   0.998   5.869   2.177 -2.6643  0.8014 -0.6227
 2787TIP3   OH229775   2.803   5.006   0.017 -0.0159  0.1889 -0.1200
 2787TIP3    H129776   2.853   4.951   0.077 -0.6927  1.0753  1.3083
 2787TIP3    H229777   2.862   5.021  -0.057  0.9865 -0.6198  0.4939
 2788TIP3   OH229778   1.684   6.760  14.564 -0.5203 -0.1747  0.0363
 2788TIP3    H129779   1.721   6.750  14.476 -1.2670 -1.9173 -0.1280
 2788TIP3    H229780   1.745   6.817  14.610  0.7912 -0.6195 -1.0951
 2789TIP3   OH229781   1.383   4.285  12.059 -0.0644 -0.1538 -0.2612
 2789TIP3    H129782   1.393   4.284  12.154 -1.6068 -0.6698 -0.0759
 2789TIP3    H229783   1.308   4.228  12.042 -0.2852  0.5245 -1.7236
 2790TIP3   OH229784   3.837   4.281   1.010  0.5739 -0.1215 -0.1758
 2790TIP3    H129785   3.766   4.324   0.961  0.0656 -0.0695  0.5839
 2790TIP3    H229786   3.917   4.313   0.968  0.2520  2.1619  0.7817
 2791TIP3   OH229787   0.910   2.286  14.293  0.3276  0.3090 -0.8204
 2791TIP3    H129788   0.995   2.330  14.289  0.1531  0.6046 -1.3163
 2791TIP3    H229789   0.881   2.298  14.383  1.3874 -0.8865 -0.2847
 2792TIP3   OH229790   6.030   6.522   2.244  0.0236  0.2784 -0.1593
 2792TIP3    H129791   5.962   6.460   2.269  0.0443  0.0196 -0.7325
 2792TIP3    H229792   6.074   6.544   2.326  0.4928 -1.0246 -0.0361
 2793TIP3   OH229793   5.498   6.009  11.528 -0.2441 -0.0327  0.2510
 2793TIP3    H129794   5.558   5.950  11.574  1.3604  0.5388 -1.0305
 2793TIP3    H229795   5.483   5.966  11.443  1.2630  1.5252 -0.8614
 2794TIP3   OH229796   2.234   5.919   5.419 -0.1417 -0.0195 -0.4186
 2794TIP3    H129797   2.220   5.911   5.514  0.4224 -0.5739 -0.3708
 2794TIP3    H229798   2.159   5.876   5.380 -0.3443  0.1523 -0.2251
 2795TIP3   OH229799   6.770   2.591   5.175 -0.1611  0.1707 -0.4752
 2795TIP3    H129800   6.853   2.549   5.199 -0.7451 -0.7975 -0.0712
 2795TIP3    H229801   6.717   2.586   5.254 -0.8179  0.2380 -0.9013
 2796TIP3   OH229802   3.861   1.325   3.753 -0.0752  0.1654 -0.0740
 2796TIP3    H129803   3.925   1.341   3.683 -0.1739 -1.9526 -0.7210
 2796TIP3    H229804   3.810   1.405   3.758  0.7318  0.8089 -1.5920
 2797TIP3   OH229805   1.226   1.906   4.550 -0.1771 -0.5186  0.2619
 2797TIP3    H129806   1.147   1.854   4.537 -0.4492 -0.0875  0.1641
 2797TIP3    H229807   1.275   1.859   4.618 -1.2838  0.0322  1.4992
 2798TIP3   OH229808   5.768   0.654  13.883  0.0487  0.0276  0.0573
 2798TIP3    H129809   5.693   0.642  13.941  1.4426  0.6904  2.0565
 2798TIP3    H229810   5.729   0.655  13.795 -2.2309 -0.0228  0.9912
 2799TIP3   OH229811   0.227   3.305   0.597  0.0012 -0.0282 -0.7296
 2799TIP3    H129812   0.230   3.362   0.520  2.1057 -0.9277 -1.3868
 2799TIP3    H229813   0.224   3.216   0.561  0.2598 -0.4405  0.2329
 2800TIP3   OH229814   6.439   5.935   4.869 -0.3988 -0.0275 -0.5962
 2800TIP3    H129815   6.500   6.009   4.873  1.2603 -1.3824  0.3801
 2800TIP3    H229816   6.358   5.973   4.833  0.0227  2.4805  0.8688
 2801TIP3   OH229817   0.662   0.641   4.582 -0.4047 -0.1648 -0.3196
 2801TIP3    H129818   0.636   0.549   4.588  0.6601 -0.5266 -0.9470
 2801TIP3    H229819   0.612   0.685   4.650 -0.9703 -1.2023 -0.0473
 2802TIP3   OH229820   5.078   0.045  11.719 -0.2892 -0.3540 -0.0787
 2802TIP3    H129821   5.010   0.083  11.662 -0.2585  2.1289  1.4068
 2802TIP3    H229822   5.051   0.068  11.808  1.6013 -0.8683  0.6736
 2803TIP3   OH229823   1.272   2.182  13.120  0.2180  0.2852 -1.4660
 2803TIP3    H129824   1.249   2.264  13.164 -0.9384 -0.0227 -1.4563
 2803TIP3    H229825   1.365   2.190  13.101  1.2736 -0.3270  2.6109
 2804TIP3   OH229826   0.558   4.865   2.970 -0.0198  0.1165  0.2618
 2804TIP3    H129827   0.563   4.769   2.968 -0.7911 -0.2077  4.2810
 2804TIP3    H229828   0.486   4.887   2.912 -2.3213 -2.1836  2.0202
 2805TIP3   OH229829   5.545   1.617  14.790  0.0749 -0.0515 -0.0763
 2805TIP3    H129830   5.472   1.573  14.746  0.5990 -0.8119 -0.2045
 2805TIP3    H229831   5.512   1.704  14.809 -0.0139  0.5087 -2.4646
 2806TIP3   OH229832   2.215   1.570  12.254 -0.4928  0.0120 -0.0827
 2806TIP3    H129833   2.302   1.568  12.214 -0.4798 -1.0409 -0.0319
 2806TIP3    H229834   2.225   1.521  12.336 -0.8509  0.9505  0.5435
 2807TIP3   OH229835   5.633   4.311  14.380 -0.0153 -0.4354  0.0738
 2807TIP3    H129836   5.579   4.333  14.456  0.2681 -1.9149  0.7399
 2807TIP3    H229837   5.616   4.218  14.364  1.9751 -0.8498  0.0403
 2808TIP3   OH229838   5.779   2.566  16.324  0.4217 -0.2996 -0.7765
 2808TIP3    H129839   5.728   2.503  16.375 -0.9291  1.3894  0.0658
 2808TIP3    H229840   5.801   2.635  16.386  3.8633 -0.9372 -1.1155
 2809TIP3   OH229841   1.199   2.575  14.717  0.3738  0.1732  0.7670
 2809TIP3    H129842   1.157   2.506  14.665  0.3284 -0.3178  1.4532
 2809TIP3    H229843   1.244   2.629  14.652 -3.1763  2.1134 -0.3431
 2810TIP3   OH229844   4.497   5.410   4.648 -0.3111  0.0510 -0.3290
 2810TIP3    H129845   4.479   5.336   4.705  1.3483 -2.4391 -2.8006
 2810TIP3    H229846   4.438   5.399   4.573 -2.4641  3.2463  0.6862
 2811TIP3   OH229847   6.750   6.158   5.142  0.3090 -0.5519 -0.1660
 2811TIP3    H129848   6.770   6.181   5.233  0.0007 -2.0210  0.3053
 2811TIP3    H229849   6.699   6.232   5.109  0.0178 -0.2049  1.0141
 2812TIP3   OH229850   3.568   1.979  15.182 -0.1888  0.3073 -0.2683
 2812TIP3    H129851   3.546   1.886  15.187  0.8902  0.0476 -0.0721
 2812TIP3    H229852   3.517   2.020  15.252 -0.3899 -0.1921 -0.1175
 2813TIP3   OH229853   0.505   3.862   1.119 -0.0517 -0.0473 -0.1765
 2813TIP3    H129854   0.600   3.859   1.132 -0.0907 -1.8888 -0.1412
 2813TIP3    H229855   0.469   3.869   1.208  0.0219  0.5481 -0.1842
 2814TIP3   OH229856   5.845   3.217  15.230 -0.5078  0.3273 -0.4424
 2814TIP3    H129857   5.837   3.134  15.276 -0.9437 -0.0256 -1.1390
 2814TIP3    H229858   5.821   3.283  15.294  0.6590 -0.0106  0.3733
 2815TIP3   OH229859   4.684   1.437  11.156 -0.6943 -0.2211  0.1794
 2815TIP3    H129860   4.741   1.437  11.080  0.0418  1.8588  0.6604
 2815TIP3    H229861   4.646   1.525  11.157 -1.3137 -0.4729  1.7593
 2816TIP3   OH229862   5.547   1.193  15.269 -0.2601  0.0409  0.2620
 2816TIP3    H129863   5.519   1.197  15.177 -0.9055  1.4668  0.4964
 2816TIP3    H229864   5.528   1.103  15.295 -1.6099  0.0526 -0.5455
 2817TIP3   OH229865   4.295   3.868   6.530 -0.1840  0.0621 -0.6869
 2817TIP3    H129866   4.236   3.940   6.510  0.4051  0.7294 -0.0787
 2817TIP3    H229867   4.245   3.789   6.510 -1.3893  0.6008  0.0869
 2818TIP3   OH229868   0.940   0.359   3.898 -0.1428 -0.2753  0.1079
 2818TIP3    H129869   0.880   0.409   3.953  0.4639  0.7776 -0.1619
 2818TIP3    H229870   0.888   0.285   3.868 -0.8088 -0.2874  1.2116
 2819TIP3   OH229871   2.919   1.435  13.753  0.4918  0.5637 -0.1091
 2819TIP3    H129872   2.905   1.367  13.687  0.8828  0.1804  0.1973
 2819TIP3    H229873   2.895   1.393  13.836  0.7219  0.8041  0.0803
 2820TIP3   OH229874   3.315   2.161   5.281  0.5356  0.2584  0.3493
 2820TIP3    H129875   3.226   2.171   5.247 -0.0668 -2.9969  0.6830
 2820TIP3    H229876   3.308   2.187   5.373  0.8137  3.3174 -0.3896
 2821TIP3   OH229877   1.532   6.370   1.607 -0.1194  0.0723 -0.1641
 2821TIP3    H129878   1.441   6.397   1.591  0.1763  1.0821 -0.2346
 2821TIP3    H229879   1.548   6.301   1.543 -1.1252 -0.7895  0.4837
 2822TIP3   OH229880   5.673   5.154  14.420  0.0247 -0.4670 -0.7339
 2822TIP3    H129881   5.648   5.089  14.486  1.3965 -1.1651 -0.8611
 2822TIP3    H229882   5.625   5.129  14.342 -0.7470 -0.3122 -0.3174
 2823TIP3   OH229883   0.136   0.329  15.741  0.4793  0.3290  0.6747
 2823TIP3    H129884   0.090   0.306  15.821  1.3325  0.6293  1.2684
 2823TIP3    H229885   0.219   0.365  15.771  0.3632  1.4697 -0.3134
 2824TIP3   OH229886   1.278   3.749  12.373  0.0977  0.5553 -0.3772
 2824TIP3    H129887   1.210   3.808  12.405  0.6235  0.7712  0.3664
 2824TIP3    H229888   1.346   3.807  12.339  0.5609  0.3784  0.2400
 2825TIP3   OH229889   2.216   1.077   1.782 -0.6461  0.2872 -0.2252
 2825TIP3    H129890   2.268   1.073   1.702  0.5093  1.8486  0.4092
 2825TIP3    H229891   2.126   1.091   1.752  0.0493  3.1404 -1.2711
 2826TIP3   OH229892   5.277   5.310  13.694 -0.0279 -0.9027 -0.1957
 2826TIP3    H129893   5.249   5.251  13.625  0.6350 -1.1760 -0.2387
 2826TIP3    H229894   5.328   5.255  13.754  0.4417 -0.4195 -0.1394
 2827TIP3   OH229895   0.715   3.404  11.859  0.2494  0.5001 -0.0867
 2827TIP3    H129896   0.785   3.361  11.907 -0.3916  0.3218  0.7067
 2827TIP3    H229897   0.668   3.455  11.925 -0.6313  0.2757 -0.5256
 2828TIP3   OH229898   5.632   5.118  10.589 -0.1809 -0.7378 -0.2198
 2828TIP3    H129899   5.630   5.203  10.634 -0.4556 -1.4169  1.1053
 2828TIP3    H229900   5.717   5.118  10.544  0.5871 -0.4356  1.1614
 2829TIP3   OH229901   6.354   1.376   2.323 -0.1588  0.0696  0.0127
 2829TIP3    H129902   6.333   1.376   2.229 -0.8551  4.1162  0.0057
 2829TIP3    H229903   6.301   1.304   2.359  0.1580 -1.6314 -2.6047
 2830TIP3   OH229904   4.809   5.670  15.830  0.0686 -0.2113 -0.2703
 2830TIP3    H129905   4.835   5.651  15.921  0.1435  3.6362  0.6872
 2830TIP3    H229906   4.887   5.708  15.790 -1.3864  3.5187 -0.0034
 2831TIP3   OH229907   3.601   6.652   6.291 -0.4238  0.5335  0.3488
 2831TIP3    H129908   3.680   6.705   6.281  0.3151 -0.1662  2.0239
 2831TIP3    H229909   3.627   6.563   6.268  0.0362 -0.1758  3.1706
 2832TIP3   OH229910   1.243   2.199  14.169 -0.2944  0.1484 -0.5779
 2832TIP3    H129911   1.258   2.286  14.205  4.4888  0.5311 -2.7351
 2832TIP3    H229912   1.234   2.213  14.075  0.2259 -1.6022 -0.9268
 2833TIP3   OH229913   5.499   4.946  13.315  0.4960  0.1534  0.2622
 2833TIP3    H129914   5.498   5.026  13.367 -0.2780  0.6797 -0.5395
 2833TIP3    H229915   5.557   4.966  13.241  0.0649  0.0837 -0.0978
 2834TIP3   OH229916   1.624   3.924   4.854  0.2201 -0.8016 -0.0202
 2834TIP3    H129917   1.715   3.907   4.831  0.6737  0.9735  0.3738
 2834TIP3    H229918   1.628   3.966   4.939 -0.9897 -0.7979  0.0514
 2835TIP3   OH229919   3.364   6.014  13.086 -0.0476 -0.4157 -0.3306
 2835TIP3    H129920   3.281   6.061  13.088 -0.3983 -1.0331 -0.0635
 2835TIP3    H229921   3.398   6.028  12.998 -1.4287 -1.8413 -1.1443
 2836TIP3   OH229922   0.189   0.786   1.635 -0.4744  0.1916  0.0874
 2836TIP3    H129923   0.119   0.849   1.645 -0.0187  0.3729  2.9096
 2836TIP3    H229924   0.263   0.823   1.684  0.4333 -1.5889  0.1739
 2837TIP3   OH229925   4.585   5.603  15.358  1.1822 -0.1388 -0.1993
 2837TIP3    H129926   4.518   5.644  15.302  0.4879 -1.6736 -0.5454
 2837TIP3    H229927   4.667   5.621  15.314  0.9222  0.9978 -0.2543
 2838TIP3   OH229928   4.081   0.671  14.418 -0.3003 -0.0555  0.2098
 2838TIP3    H129929   4.126   0.665  14.334 -0.9975 -1.0160 -0.1209
 2838TIP3    H229930   4.045   0.760  14.420 -0.9283 -0.2659 -0.8727
 2839TIP3   OH229931   0.996   3.314   5.061 -0.8476 -0.8304  0.1795
 2839TIP3    H129932   0.991   3.393   5.008 -1.6396 -0.9223  0.1100
 2839TIP3    H229933   0.975   3.243   5.000 -0.0993 -1.1054  0.2290
 2840TIP3   OH229934   6.273   1.810  17.120  0.4292 -0.0262 -0.0135
 2840TIP3    H129935   6.185   1.776  17.107 -0.1655  2.1377 -2.4019
 2840TIP3    H229936   6.330   1.745  17.079 -0.2443 -0.5240 -0.1730
 2841TIP3   OH229937   3.015   5.141  13.822 -0.1513 -0.2122 -0.1762
 2841TIP3    H129938   2.995   5.222  13.775  1.2723 -0.0979 -0.6399
 2841TIP3    H229939   3.044   5.081  13.753  2.2866  0.0589  0.5497
 2842TIP3   OH229940   6.205   5.292  14.570  0.0774 -0.2670  0.2130
 2842TIP3    H129941   6.203   5.197  14.557  0.0549 -0.5564  2.0682
 2842TIP3    H229942   6.120   5.313  14.610  0.2030  0.4871  0.0969
 2843TIP3   OH229943   0.794   4.703   2.773 -0.1811 -0.4830 -0.0185
 2843TIP3    H129944   0.828   4.690   2.862 -1.0850  1.4833  0.6851
 2843TIP3    H229945   0.781   4.798   2.767  1.1247 -0.3927 -2.7540
 2844TIP3   OH229946   2.633   5.923  11.808 -0.0855  0.7125  0.6079
 2844TIP3    H129947   2.546   5.886  11.823  0.3025 -0.7128 -0.4619
 2844TIP3    H229948   2.616   5.998  11.750 -0.4379 -0.9947 -1.6260
 2845TIP3   OH229949   0.157   4.117  15.664  0.2467 -0.2136  0.2670
 2845TIP3    H129950   0.162   4.078  15.751 -2.3256  1.0618  1.0929
 2845TIP3    H229951   0.174   4.210  15.678  1.4286 -0.2270 -0.8883
 2846TIP3   OH229952   5.319   5.175  14.288 -0.4391  0.4352  0.7669
 2846TIP3    H129953   5.351   5.199  14.375 -2.1816  1.7592  1.1010
 2846TIP3    H229954   5.266   5.097  14.304  2.5196 -1.8783  0.1842
 2847TIP3   OH229955   6.004   0.831   5.137 -0.3092  0.5301  0.1903
 2847TIP3    H129956   6.074   0.766   5.133 -0.9816 -0.1795 -0.2759
 2847TIP3    H229957   5.957   0.820   5.055  1.7405  4.1152 -1.7533
 2848TIP3   OH229958   2.585   2.979   5.245  0.3475 -0.1614 -0.1151
 2848TIP3    H129959   2.565   3.009   5.156  0.8289  0.2245 -0.0936
 2848TIP3    H229960   2.602   3.059   5.295 -0.8391 -0.3148  0.5625
 2849TIP3   OH229961   2.996   2.316   1.678 -0.1184 -0.1584 -0.6750
 2849TIP3    H129962   2.947   2.236   1.658 -0.8453  0.4369 -1.3662
 2849TIP3    H229963   2.936   2.387   1.653  0.2465  0.6098  0.5777
 2850TIP3   OH229964   2.595   2.968   0.332 -0.0091  0.0330 -0.0722
 2850TIP3    H129965   2.663   2.991   0.269  0.4995  1.8571  1.0558
 2850TIP3    H229966   2.642   2.933   0.408 -0.1208  2.3236  1.1569
 2851TIP3   OH229967   5.637   4.516   0.253  0.2982 -0.4752 -0.4317
 2851TIP3    H129968   5.706   4.575   0.284 -0.7594  0.1407  0.8471
 2851TIP3    H229969   5.661   4.430   0.288 -0.0889 -0.0681  0.8787
 2852TIP3   OH229970   0.532   6.432  13.278 -0.0454 -0.3315 -0.0073
 2852TIP3    H129971   0.617   6.457  13.243 -0.1714 -1.1762 -0.9610
 2852TIP3    H229972   0.500   6.511  13.322  1.8196 -0.4091  1.5858
 2853TIP3   OH229973   2.840   3.110  14.611  0.3511 -0.5414  0.3014
 2853TIP3    H129974   2.809   3.047  14.676 -0.1627  1.3501  1.9953
 2853TIP3    H229975   2.897   3.059  14.554 -1.2695 -2.8738  0.6062
 2854TIP3   OH229976   6.720   2.963  11.647 -0.1602  0.1179 -0.7106
 2854TIP3    H129977   6.647   2.936  11.591  0.3990 -2.1450 -0.4137
 2854TIP3    H229978   6.678   2.989  11.729 -0.7617  0.7060 -1.1932
 2855TIP3   OH229979   1.010   2.772  17.102 -0.5767  0.1382 -0.3420
 2855TIP3    H129980   1.082   2.766  17.039  0.5913  0.0241  0.9752
 2855TIP3    H229981   1.038   2.718  17.176 -2.3447 -0.4878 -0.0944
 2856TIP3   OH229982   6.638   2.227   2.077  0.0295  0.6602  0.4089
 2856TIP3    H129983   6.593   2.196   1.998  0.2064  1.8604 -0.2035
 2856TIP3    H229984   6.580   2.204   2.149  0.4944 -1.6646  0.0936
 2857TIP3   OH229985   5.174   0.593  14.306 -0.2748  0.3207 -0.2695
 2857TIP3    H129986   5.208   0.573  14.393  0.5048  1.0167 -0.4001
 2857TIP3    H229987   5.086   0.556  14.305 -0.6665  1.1530  1.1569
 2858TIP3   OH229988   0.635   1.491   6.029 -0.5461  0.2501  0.2492
 2858TIP3    H129989   0.596   1.537   6.104 -1.2133 -0.7513  0.5321
 2858TIP3    H229990   0.590   1.407   6.026  2.0231 -1.2918  1.0151
 2859TIP3   OH229991   6.491   2.479   5.192  0.8113  0.2484  0.1683
 2859TIP3    H129992   6.502   2.385   5.177 -0.6494  0.1160 -0.2425
 2859TIP3    H229993   6.497   2.518   5.105  0.3263  0.4047  0.2021
 2860TIP3   OH229994   5.778   6.112  11.323 -0.7425 -0.3302  0.1532
 2860TIP3    H129995   5.859   6.071  11.353  0.0307  0.3674 -0.9001
 2860TIP3    H229996   5.738   6.047  11.266  0.3557  0.2109 -1.3153
 2861TIP3   OH229997   5.601   5.861  16.861  0.0900  0.1446  0.6672
 2861TIP3    H129998   5.661   5.934  16.874 -0.1297  0.1008  2.1195
 2861TIP3    H229999   5.641   5.808  16.792 -0.5859  2.4927 -1.7108
 2862TIP3   OH230000   2.578   0.508  11.123 -0.2205  0.4981  0.1746
 2862TIP3    H130001   2.588   0.414  11.113 -0.5554  0.4880 -0.0808
 2862TIP3    H230002   2.609   0.544  11.040  0.1975  0.6351  0.3859
 2863TIP3   OH230003   1.653   4.735   4.434 -0.1196 -0.3987 -0.2216
 2863TIP3    H130004   1.720   4.698   4.377  0.1117 -0.2933 -0.0207
 2863TIP3    H230005   1.675   4.702   4.521 -0.9983 -1.2945 -0.3296
 2864TIP3   OH230006   2.754   4.027  14.540 -0.4372  0.4919  0.1253
 2864TIP3    H130007   2.714   4.088  14.478  0.8727  1.1254 -0.1392
 2864TIP3    H230008   2.726   4.058  14.626 -2.0407 -0.2288 -0.1088
 2865TIP3   OH230009   0.163   0.071   1.179 -0.2154 -0.6074 -0.0631
 2865TIP3    H130010   0.152   0.109   1.092  2.0582 -1.8457 -0.9850
 2865TIP3    H230011   0.150   0.144   1.239  0.7291  0.9103 -1.5952
 2866TIP3   OH230012   5.843   5.885   1.904 -0.0759  0.1668 -0.0136
 2866TIP3    H130013   5.900   5.884   1.827  1.0682  1.2066  0.7821
 2866TIP3    H230014   5.887   5.944   1.965 -3.2130  3.0230 -0.2434
 2867TIP3   OH230015   6.748   6.041  16.085 -0.4512 -0.4177  0.3063
 2867TIP3    H130016   6.799   6.007  16.011 -0.3710 -0.1611  0.2439
 2867TIP3    H230017   6.657   6.023  16.062 -0.3711 -1.3656  0.6612
 2868TIP3   OH230018   6.467   0.790   0.053 -0.3241 -0.4834 -0.8399
 2868TIP3    H130019   6.494   0.700   0.071 -0.1233 -0.3372 -0.3924
 2868TIP3    H230020   6.539   0.826   0.000  0.4877 -0.0344  0.5179
 2869TIP3   OH230021   0.404   2.794  14.037  0.2328 -0.3638 -0.4295
 2869TIP3    H130022   0.357   2.775  13.956 -0.0239 -1.0116 -0.1423
 2869TIP3    H230023   0.484   2.837  14.009  0.5825 -1.4038 -1.0998
 2870TIP3   OH230024   2.509   0.212   5.492 -0.1853  0.0698  0.1788
 2870TIP3    H130025   2.523   0.136   5.548 -0.9550  0.0019  0.2959
 2870TIP3    H230026   2.575   0.204   5.423  0.0725 -0.4240  0.4743
 2871TIP3   OH230027   0.831   1.090  15.153  0.1217 -0.3400 -0.2262
 2871TIP3    H130028   0.894   1.036  15.199  1.2331 -0.7927 -2.1645
 2871TIP3    H230029   0.750   1.081  15.202  1.3913 -0.1894  2.0162
 2872TIP3   OH230030   5.883   0.831  12.611  0.1668  0.0544 -0.1813
 2872TIP3    H130031   5.945   0.830  12.538 -0.2556  0.9533 -0.5685
 2872TIP3    H230032   5.928   0.878  12.680  0.7648 -1.2310  0.3473
 2873TIP3   OH230033   5.859   3.306   6.057 -0.3489 -0.2957  0.2650
 2873TIP3    H130034   5.941   3.260   6.040  0.0672  0.5893 -0.2219
 2873TIP3    H230035   5.799   3.238   6.087 -0.2138 -1.4553 -1.8814
 2874TIP3   OH230036   4.674   6.177  15.521 -0.1250 -0.5782  0.4930
 2874TIP3    H130037   4.762   6.159  15.554 -0.2768 -1.5292  0.3993
 2874TIP3    H230038   4.627   6.213  15.596  0.7475  1.4187  0.1679
 2875TIP3   OH230039   5.577   3.194  14.109  0.3287  0.0370  0.3357
 2875TIP3    H130040   5.639   3.173  14.179 -0.2376  0.7933  1.0828
 2875TIP3    H230041   5.550   3.109  14.075  1.4318 -0.3069  0.3099
 2876TIP3   OH230042   1.517   1.799  16.205  0.3845 -0.8230  0.8024
 2876TIP3    H130043   1.428   1.824  16.179  0.5440  0.1810  1.1560
 2876TIP3    H230044   1.574   1.853  16.150  0.7296  0.8599  2.6790
 2877TIP3   OH230045   0.279   5.829   1.531  0.9070  0.1419 -0.3788
 2877TIP3    H130046   0.270   5.862   1.441  0.1100  3.2368  0.7106
 2877TIP3    H230047   0.189   5.818   1.561  1.0940  1.7102  0.8530
 2878TIP3   OH230048   2.009   1.872   1.394 -0.3030 -0.1156  0.1150
 2878TIP3    H130049   1.968   1.855   1.478 -0.7687 -0.4475 -0.1764
 2878TIP3    H230050   1.936   1.883   1.333  0.0278  0.2842 -0.2165
 2879TIP3   OH230051   3.327   2.050  13.598  0.1096  0.1309  0.1844
 2879TIP3    H130052   3.297   2.128  13.643 -1.4270  1.6550 -3.1466
 2879TIP3    H230053   3.247   2.000  13.581  0.7156 -0.7052 -0.2953
 2880TIP3   OH230054   2.823   5.442  12.235  0.3432 -0.1465  0.2707
 2880TIP3    H130055   2.779   5.466  12.153  1.4693 -2.2408 -1.0559
 2880TIP3    H230056   2.853   5.525  12.271 -0.8652  0.9193 -1.0291
 2881TIP3   OH230057   0.783   0.402   5.555  0.0372 -0.2050  0.1588
 2881TIP3    H130058   0.775   0.320   5.605 -2.9364  0.0474  0.3012
 2881TIP3    H230059   0.751   0.470   5.614  1.8236  1.0206 -0.2035
 2882TIP3   OH230060   5.902   0.206  15.517 -0.4063 -0.9374  0.3412
 2882TIP3    H130061   5.881   0.116  15.491  0.0183 -0.7936 -0.5395
 2882TIP3    H230062   5.848   0.222  15.594  0.2393 -2.2964  1.1185
 2883TIP3   OH230063   5.948   5.068   0.146 -0.2731  0.3428  0.1601
 2883TIP3    H130064   5.946   5.039   0.237  1.1761  0.1539  0.1505
 2883TIP3    H230065   5.928   5.161   0.150  1.4454  0.7181  0.8687
 2884TIP3   OH230066   0.320   2.012   4.013 -0.6198  0.2463  0.6227
 2884TIP3    H130067   0.341   2.106   4.007 -0.8747  0.3860  1.6931
 2884TIP3    H230068   0.306   1.997   4.106 -2.6510 -0.4040  0.2743
 2885TIP3   OH230069   0.046   5.646   4.595 -0.5983 -0.1075 -0.0997
 2885TIP3    H130070  -0.018   5.716   4.586  1.2961  1.7546  0.0207
 2885TIP3    H230071   0.102   5.655   4.517  0.4122 -0.6537  0.5414
 2886TIP3   OH230072   0.918   2.683  11.212 -0.5689 -0.3333  0.2267
 2886TIP3    H130073   0.932   2.603  11.263  0.2036 -0.0469  0.4863
 2886TIP3    H230074   0.957   2.664  11.127  2.1677  0.6823  1.1461
 2887TIP3   OH230075   6.531   5.792  15.818  0.7084 -0.1713  0.3460
 2887TIP3    H130076   6.447   5.827  15.788 -0.8450 -1.6804  2.5512
 2887TIP3    H230077   6.543   5.712  15.768 -0.3451 -1.1030  1.5158
 2888TIP3   OH230078   1.031   2.873   1.653 -0.5849  0.5149  0.4835
 2888TIP3    H130079   0.967   2.869   1.581 -0.1244  0.0446  0.0845
 2888TIP3    H230080   0.986   2.918   1.724 -1.3779  0.1414  0.2232
 2889TIP3   OH230081   0.850   0.125   0.440 -0.4476 -0.2113 -0.4276
 2889TIP3    H130082   0.818   0.197   0.495  0.2373  0.4385 -0.8684
 2889TIP3    H230083   0.775   0.103   0.385 -0.3669  0.8356 -0.9716
 2890TIP3   OH230084   6.272   1.792  16.487  0.1332  0.3591  0.4082
 2890TIP3    H130085   6.312   1.856  16.545  0.8521  1.4029 -1.1567
 2890TIP3    H230086   6.286   1.828  16.399 -2.1235 -0.4414 -0.3494
 2891TIP3   OH230087   0.505   6.461   3.566 -0.0271 -0.4097 -0.1048
 2891TIP3    H130088   0.600   6.456   3.563  0.0132  0.4854 -1.2719
 2891TIP3    H230089   0.484   6.544   3.522 -1.3248 -0.4262  0.4275
 2892TIP3   OH230090   3.470   0.611   0.583 -0.2805 -0.0644  0.3514
 2892TIP3    H130091   3.468   0.544   0.651  1.1999 -0.3738  0.1270
 2892TIP3    H230092   3.424   0.572   0.509  2.1751 -1.6681 -0.4523
 2893TIP3   OH230093   6.615   5.447  16.284  0.0066 -0.1987  0.1099
 2893TIP3    H130094   6.525   5.414  16.276  0.1779 -0.3271 -1.5401
 2893TIP3    H230095   6.655   5.392  16.351  0.0603 -2.9413 -2.0353
 2894TIP3   OH230096   0.821   2.078  16.536  0.0138  0.2373 -0.1563
 2894TIP3    H130097   0.879   2.109  16.605 -0.3032  0.8085 -0.1371
 2894TIP3    H230098   0.798   1.989  16.562 -1.4554  1.0122  1.3853
 2895TIP3   OH230099   4.311   3.517   1.854 -0.0231 -0.5198 -0.5448
 2895TIP3    H130100   4.267   3.509   1.769  0.1667 -0.5039 -0.6444
 2895TIP3    H230101   4.302   3.610   1.877  0.7358 -0.3310 -0.9869
 2896TIP3   OH230102   0.248   3.712  15.773  0.1306  0.9928  0.3011
 2896TIP3    H130103   0.157   3.709  15.744  0.3024 -0.3554 -0.1562
 2896TIP3    H230104   0.278   3.622  15.766  1.8579  1.6149 -0.6718
 2897TIP3   OH230105   5.475   2.411  13.000  0.2697  0.1152 -0.5744
 2897TIP3    H130106   5.544   2.414  13.066  1.4774  0.8149 -1.8233
 2897TIP3    H230107   5.463   2.318  12.982  1.1087 -0.0007 -0.5533
 2898TIP3   OH230108   0.068   4.444   4.693 -0.1547  0.7682  0.0158
 2898TIP3    H130109   0.124   4.391   4.749 -2.4172 -2.0445 -0.1067
 2898TIP3    H230110   0.104   4.434   4.605 -0.6088 -0.7851 -0.0221
 2899TIP3   OH230111   1.900   5.282   0.691 -0.4787  0.3330  0.1025
 2899TIP3    H130112   1.822   5.227   0.691 -0.9329  0.9531  0.2501
 2899TIP3    H230113   1.918   5.298   0.598  0.4797 -1.1666  0.0006
 2900TIP3   OH230114   5.657   4.954  16.110  0.7286  0.4620 -0.2734
 2900TIP3    H130115   5.572   4.996  16.117  1.5796  2.1462  0.5299
 2900TIP3    H230116   5.686   4.941  16.200  0.9184 -1.0136 -0.5193
 2901TIP3   OH230117   0.998   3.083  11.438  0.0152  0.9393 -0.2518
 2901TIP3    H130118   1.000   3.139  11.360 -0.6372  1.4367  0.0720
 2901TIP3    H230119   0.980   3.144  11.510 -0.8984  0.2955  0.0838
 2902TIP3   OH230120   6.151   3.773   3.950  0.2280 -0.2986 -0.4723
 2902TIP3    H130121   6.110   3.690   3.978  1.0770 -0.1798  1.2596
 2902TIP3    H230122   6.196   3.805   4.028 -0.9671  2.3809 -0.7634
 2903TIP3   OH230123   0.158   1.192   6.453  0.6958 -0.3063 -0.8359
 2903TIP3    H130124   0.244   1.234   6.444  0.4014  0.5888  0.2997
 2903TIP3    H230125   0.166   1.137   6.530 -0.7156  2.4697  1.4889
 2904TIP3   OH230126   6.045   3.424  11.336  0.1279  0.0277 -0.0973
 2904TIP3    H130127   6.121   3.368  11.321  1.4372  1.6156  0.3412
 2904TIP3    H230128   6.018   3.452  11.248  1.5986  1.3785 -0.1651
 2905TIP3   OH230129   5.825   5.611   0.140 -0.1497  0.4746  0.3241
 2905TIP3    H130130   5.832   5.663   0.060  1.2711 -2.4128 -1.6265
 2905TIP3    H230131   5.732   5.590   0.148 -0.5316  2.0961  0.3882
 2906TIP3   OH230132   1.754   2.484  15.761 -0.1515  0.2317  0.4330
 2906TIP3    H130133   1.732   2.394  15.785 -0.4169  0.2302  0.1861
 2906TIP3    H230134   1.709   2.499  15.678  2.0692 -0.3242 -0.9764
 2907TIP3   OH230135   1.892   2.317   4.117  0.1231  0.3928  0.3745
 2907TIP3    H130136   1.878   2.225   4.136  0.6982 -0.0771 -1.2523
 2907TIP3    H230137   1.970   2.341   4.168 -0.0559 -0.0036  0.8337
 2908TIP3   OH230138   2.862   0.028  15.822 -0.4046 -0.0553 -0.9383
 2908TIP3    H130139   2.882   0.120  15.840 -1.5526  0.5176 -2.3952
 2908TIP3    H230140   2.926  -0.021  15.873 -1.0204  1.4811  1.4622
 2909TIP3   OH230141   0.722   2.160  14.909  0.0246 -0.0658  0.3680
 2909TIP3    H130142   0.647   2.136  14.854  0.5776 -0.8639 -0.0634
 2909TIP3    H230143   0.764   2.076  14.930 -0.1672  0.2254  2.0259
 2910TIP3   OH230144   2.837   2.987  15.048 -1.0507  0.3388  1.2295
 2910TIP3    H130145   2.840   3.053  14.980 -1.7200  0.4572  1.3112
 2910TIP3    H230146   2.922   2.943  15.042 -1.9847 -1.3609 -1.3878
 2911TIP3   OH230147   1.764   3.472  11.551 -0.3078 -0.1033 -0.5608
 2911TIP3    H130148   1.833   3.406  11.542  1.5236  1.8552 -1.7019
 2911TIP3    H230149   1.810   3.552  11.577 -2.2370  1.1306 -0.7467
 2912TIP3   OH230150   6.447   1.933  14.167 -0.0658 -0.7908 -0.1482
 2912TIP3    H130151   6.491   2.008  14.208  0.3775 -0.0616 -1.8792
 2912TIP3    H230152   6.495   1.857  14.199  0.8021 -0.1852  0.0185
 2913TIP3   OH230153   4.476   4.859   1.869  0.3129  0.1921 -0.5669
 2913TIP3    H130154   4.405   4.794   1.861  0.9165 -0.2500 -3.0191
 2913TIP3    H230155   4.439   4.939   1.832  0.7285  0.2473 -0.8693
 2914TIP3   OH230156   1.727   2.097   4.093 -0.1150  0.5181  0.3097
 2914TIP3    H130157   1.688   2.178   4.060  0.3672  0.6825  0.1299
 2914TIP3    H230158   1.684   2.027   4.043  0.4222  0.7492 -0.5012
 2915TIP3   OH230159   0.971   2.546  15.979 -0.1025 -0.5182 -0.6855
 2915TIP3    H130160   0.934   2.460  15.956  1.0080 -1.2069  0.0095
 2915TIP3    H230161   0.908   2.584  16.039  0.0841 -1.4888  0.1523
 2916TIP3   OH230162   3.639   5.833  14.979 -0.2026 -0.5018  0.0800
 2916TIP3    H130163   3.604   5.760  15.030 -0.7156 -0.2884  0.0384
 2916TIP3    H230164   3.664   5.794  14.895 -0.6972 -0.5910 -0.0300
 2917TIP3   OH230165   4.054   3.360  14.055  0.3801  0.3055 -0.3242
 2917TIP3    H130166   4.104   3.280  14.043  1.5715  1.1256 -1.1254
 2917TIP3    H230167   4.094   3.422  13.993  0.8426  2.1217  1.6889
 2918TIP3   OH230168   2.588   4.855   0.303  0.6336 -0.2219  0.4964
 2918TIP3    H130169   2.560   4.900   0.223  1.5563 -0.5958 -0.0570
 2918TIP3    H230170   2.635   4.922   0.353 -0.5797  0.2144  1.0968
 2919TIP3   OH230171   2.970   1.704   4.502  0.7957  0.6450  0.0328
 2919TIP3    H130172   2.891   1.658   4.529  0.5414 -0.2484 -2.0297
 2919TIP3    H230173   2.955   1.795   4.526 -0.1276  0.2187  1.1774
 2920TIP3   OH230174   2.890   4.473   5.192 -0.1864 -0.2059 -0.1736
 2920TIP3    H130175   2.794   4.474   5.191 -0.2121  0.4005  0.9096
 2920TIP3    H230176   2.914   4.382   5.175 -1.0288 -0.8881  1.9628
 2921TIP3   OH230177   3.165   0.518   5.696 -0.5861 -0.3283 -0.0693
 2921TIP3    H130178   3.230   0.455   5.728 -2.0541 -1.5584  0.6313
 2921TIP3    H230179   3.189   0.601   5.738 -0.5171 -1.1647  1.6197
 2922TIP3   OH230180   0.903   1.490  16.501  0.1511  0.1175 -0.3209
 2922TIP3    H130181   0.880   1.501  16.593  0.9509 -0.5605 -0.0296
 2922TIP3    H230182   0.917   1.579  16.469  0.7397  0.3106  0.4487
 2923TIP3   OH230183   1.959   6.004   0.398 -0.8930 -0.2246  0.2174
 2923TIP3    H130184   2.014   6.009   0.320 -0.1574  1.4279  0.7891
 2923TIP3    H230185   1.992   6.074   0.455 -1.6690 -1.1197  1.8395
 2924TIP3   OH230186   4.104   0.949   1.516  0.0588 -0.1182 -0.2428
 2924TIP3    H130187   4.012   0.928   1.503 -0.1480  0.7539 -0.2260
 2924TIP3    H230188   4.138   0.965   1.428  0.4599 -1.4562 -0.3521
 2925TIP3   OH230189   5.971   1.999   0.497  0.7901 -0.0643  0.8542
 2925TIP3    H130190   5.958   1.904   0.491  2.4383 -0.3752  1.5606
 2925TIP3    H230191   5.951   2.020   0.588 -0.6770  0.4888  0.4302
 2926TIP3   OH230192   3.250   3.714   0.322 -0.4244  0.4841 -0.8486
 2926TIP3    H130193   3.218   3.678   0.239 -2.6543 -2.6150  1.1149
 2926TIP3    H230194   3.276   3.637   0.373 -1.4942  1.9644  2.1857
 2927TIP3   OH230195   4.370   3.636  17.082  0.5102 -0.1203  0.2797
 2927TIP3    H130196   4.334   3.665  16.998  2.4180  0.6895 -0.3302
 2927TIP3    H230197   4.411   3.552  17.062 -1.1502 -1.1542  1.0194
 2928TIP3   OH230198   3.354   0.528   0.346 -0.3636  0.2295 -0.3951
 2928TIP3    H130199   3.414   0.521   0.272  1.3638  2.1100  0.7388
 2928TIP3    H230200   3.289   0.592   0.318  1.5630  2.6815  0.4139
 2929TIP3   OH230201   0.556   1.495   2.543 -0.4934 -0.7341 -0.2314
 2929TIP3    H130202   0.468   1.523   2.517 -1.2170 -2.5702  0.1237
 2929TIP3    H230203   0.608   1.502   2.463 -0.8953  0.5481 -0.3997
 2930TIP3   OH230204   2.519   1.641   2.049 -0.3328 -0.5107 -0.0433
 2930TIP3    H130205   2.547   1.555   2.083  0.0747  0.4595  2.3156
 2930TIP3    H230206   2.440   1.661   2.099 -1.6448 -0.3640 -2.0621
 2931TIP3   OH230207   1.293   4.387  15.536  0.1901  0.1572 -0.4197
 2931TIP3    H130208   1.323   4.422  15.620  0.2127 -2.2326  0.6381
 2931TIP3    H230209   1.373   4.381  15.483  0.4616  0.0707 -0.0050
 2932TIP3   OH230210   1.418   3.918  12.028 -0.5143 -0.2212  0.0822
 2932TIP3    H130211   1.368   3.882  12.102 -1.1825  0.0696 -0.2227
 2932TIP3    H230212   1.422   3.847  11.965 -2.0375  0.2867 -0.6204
 2933TIP3   OH230213   5.066   1.345  12.123  0.1556  0.1343  0.1026
 2933TIP3    H130214   5.001   1.334  12.053 -0.2807 -0.8307  0.6449
 2933TIP3    H230215   5.017   1.384  12.195  0.0802 -0.9292  0.6398
 2934TIP3   OH230216   3.208   2.234  13.274 -0.3646 -0.3840 -0.0609
 2934TIP3    H130217   3.285   2.291  13.272 -0.6000 -0.0241  0.7791
 2934TIP3    H230218   3.150   2.274  13.339 -1.6138 -0.2079 -1.2385
 2935TIP3   OH230219   2.898   4.616   2.959  0.7677 -0.1861  0.5196
 2935TIP3    H130220   2.853   4.601   2.875  0.2927 -0.0728  0.7475
 2935TIP3    H230221   2.844   4.570   3.023  0.7451  0.3047  0.8571
 2936TIP3   OH230222   2.610   5.739   4.826  0.2463 -0.0088  0.0194
 2936TIP3    H130223   2.703   5.716   4.818  0.3950  0.5338  0.1257
 2936TIP3    H230224   2.604   5.782   4.912 -0.4202 -1.5159  0.7633
 2937TIP3   OH230225   3.244   6.739   1.952 -0.4794 -0.1912  0.2652
 2937TIP3    H130226   3.246   6.778   1.864  0.3584  0.3897  0.5392
 2937TIP3    H230227   3.264   6.647   1.937 -1.6436 -0.3794 -0.2905
 2938TIP3   OH230228   0.003   1.104   2.933 -0.2912 -0.0746  0.1967
 2938TIP3    H130229  -0.019   1.045   3.004 -0.6656 -0.0614  0.0958
 2938TIP3    H230230   0.033   1.047   2.863  2.4056  0.0494  1.1629
 2939TIP3   OH230231   6.097   3.747   2.265 -1.4078 -0.4431  0.8346
 2939TIP3    H130232   6.176   3.800   2.254 -1.6552  0.6150  3.3815
 2939TIP3    H230233   6.129   3.661   2.289 -1.0348 -1.0196 -1.5007
 2940TIP3   OH230234   0.404   5.380   4.109 -0.2652  1.0506  0.3074
 2940TIP3    H130235   0.444   5.337   4.033  1.9928 -0.2499  2.0911
 2940TIP3    H230236   0.315   5.344   4.113  0.3522 -0.6822 -0.3986
 2941TIP3   OH230237   1.443   3.270  15.197 -0.0169  0.1802  0.2906
 2941TIP3    H130238   1.455   3.229  15.111 -0.8504 -1.3767  0.8698
 2941TIP3    H230239   1.524   3.251  15.244  0.0817  0.2458  0.1464
 2942TIP3   OH230240   5.979   3.141  12.709 -0.3833 -0.2360 -0.1530
 2942TIP3    H130241   5.892   3.127  12.745 -0.2475 -0.2674  0.1679
 2942TIP3    H230242   6.038   3.134  12.784 -0.2827  2.1626  0.0617
 2943TIP3   OH230243   4.817   0.443   1.912  0.0474 -0.1698 -0.1403
 2943TIP3    H130244   4.729   0.439   1.874 -0.3627 -1.3412  0.8500
 2943TIP3    H230245   4.867   0.379   1.862  0.0781 -0.1831 -0.0924
 2944TIP3   OH230246   0.105   6.028   3.745  0.1713 -0.5444  0.5342
 2944TIP3    H130247   0.044   6.010   3.674  0.0917 -0.4172  0.5695
 2944TIP3    H230248   0.178   5.969   3.730  0.1057 -0.5925  0.4071
 2945TIP3   OH230249   3.695   2.117  12.847  0.0734  0.2645 -0.1341
 2945TIP3    H130250   3.716   2.131  12.940  0.8079 -2.8360  0.2788
 2945TIP3    H230251   3.609   2.156  12.836 -0.9664 -1.0474  2.4411
 2946TIP3   OH230252   4.954   1.752   2.425  0.4509 -0.1966  0.0177
 2946TIP3    H130253   5.040   1.776   2.461  0.0966  2.7570 -0.8327
 2946TIP3    H230254   4.975   1.706   2.344  1.2133 -0.6410  0.4464
 2947TIP3   OH230255   1.624   4.747  13.193 -0.7275 -0.1979  0.1259
 2947TIP3    H130256   1.664   4.812  13.251 -0.6701 -0.6156  0.5586
 2947TIP3    H230257   1.531   4.748  13.216 -0.6325 -0.6780  0.5296
 2948TIP3   OH230258   3.183   3.490   2.398  0.3377  0.4245 -0.4509
 2948TIP3    H130259   3.248   3.420   2.404  3.0636  2.5499 -2.4387
 2948TIP3    H230260   3.148   3.483   2.309  0.3303  1.2834 -0.5280
 2949TIP3   OH230261   2.864   6.703   0.991  0.5203 -0.3548 -0.4977
 2949TIP3    H130262   2.916   6.776   1.023 -0.0079 -0.5408  0.8691
 2949TIP3    H230263   2.902   6.626   1.033 -1.0979 -0.4458  0.9102
 2950TIP3   OH230264   4.958   1.745  11.620  0.0252  0.0796  0.0236
 2950TIP3    H130265   5.029   1.797  11.581 -0.8868  0.3922 -1.2964
 2950TIP3    H230266   4.879   1.778  11.578 -0.8285 -0.7715  0.9256
 2951TIP3   OH230267   5.571   6.773  12.362  0.2326  0.2235 -1.0884
 2951TIP3    H130268   5.515   6.697  12.379  0.9706  0.2184  1.7642
 2951TIP3    H230269   5.658   6.737  12.349  0.3263  0.4975 -1.2314
 2952TIP3   OH230270   2.477   0.939  15.849  0.3622 -0.0013 -0.0318
 2952TIP3    H130271   2.428   0.916  15.770 -0.5905  0.6647  0.3515
 2952TIP3    H230272   2.529   1.016  15.824  0.9819 -0.5113 -0.3428
 2953TIP3   OH230273   5.897   6.288   3.667 -0.6537  0.1990 -0.0885
 2953TIP3    H130274   5.868   6.211   3.618  0.2753 -0.0604 -0.2459
 2953TIP3    H230275   5.819   6.319   3.712 -1.1315 -0.5772 -0.3725
 2954TIP3   OH230276   5.997   6.643   6.675 -0.0853 -0.2205 -0.5776
 2954TIP3    H130277   5.992   6.607   6.587  0.7331  0.5478 -0.9601
 2954TIP3    H230278   6.052   6.582   6.723  1.1491  0.3808 -1.1724
 2955TIP3   OH230279   1.422   4.756  14.627  0.7183 -0.3636 -0.6061
 2955TIP3    H130280   1.426   4.787  14.536  0.4628 -1.9923 -1.2052
 2955TIP3    H230281   1.342   4.796  14.663  1.9254  2.0322 -0.3688
 2956TIP3   OH230282   3.506   3.186   1.133  0.0299  0.0282 -0.0486
 2956TIP3    H130283   3.523   3.111   1.190  2.6572  0.8531  0.4092
 2956TIP3    H230284   3.553   3.167   1.052  0.0310  0.8017 -0.2408
 2957TIP3   OH230285   3.427   1.423   1.024  0.2856  0.0847  0.6343
 2957TIP3    H130286   3.455   1.433   0.933 -3.0584  1.7922 -0.3957
 2957TIP3    H230287   3.508   1.419   1.074  2.2564 -0.4609 -2.3455
 2958TIP3   OH230288   5.899   0.571  15.769  0.0604 -0.0622  0.4256
 2958TIP3    H130289   5.930   0.531  15.688  0.2317  1.5740 -0.3349
 2958TIP3    H230290   5.921   0.663  15.762  2.1576 -0.2002  3.3129
 2959TIP3   OH230291   3.182   2.949   0.023  0.2140 -0.5487  0.1720
 2959TIP3    H130292   3.147   2.896   0.094  0.3038  0.0535  0.6721
 2959TIP3    H230293   3.258   2.899  -0.009 -0.1236 -1.0594  0.1622
 2960TIP3   OH230294   1.275   1.532   2.160 -0.4568 -0.3199  0.4771
 2960TIP3    H130295   1.339   1.514   2.229  0.4164  0.8633  0.0073
 2960TIP3    H230296   1.326   1.529   2.079 -1.3444 -1.0382 -0.0744
 2961TIP3   OH230297   4.589   0.501  17.164  0.0498  0.1825 -0.0480
 2961TIP3    H130298   4.622   0.505  17.074  0.8405  1.2962  0.2619
 2961TIP3    H230299   4.621   0.582  17.204  0.8545 -0.9129  1.6214
 2962TIP3   OH230300   0.424   2.001  14.929  0.6067  0.0870 -0.2466
 2962TIP3    H130301   0.370   2.063  14.881 -0.8712 -1.0408 -0.1111
 2962TIP3    H230302   0.381   1.992  15.014  1.1389 -0.6638 -0.0416
 2963TIP3   OH230303   0.873   2.551  12.456 -0.2984 -0.1036 -0.4099
 2963TIP3    H130304   0.862   2.587  12.368  0.1334  0.8827 -0.0746
 2963TIP3    H230305   0.866   2.456  12.444 -0.6954  0.0423 -1.4340
 2964TIP3   OH230306   6.108   2.140   5.225  0.1104 -0.0026  0.1045
 2964TIP3    H130307   6.022   2.170   5.254 -0.3030 -0.6613 -0.4032
 2964TIP3    H230308   6.107   2.154   5.130  1.2427  1.6410  0.3022
 2965TIP3   OH230309   5.020   0.225   4.600 -0.1089  0.3091  0.0365
 2965TIP3    H130310   5.006   0.131   4.590  0.6589  0.2824 -1.0796
 2965TIP3    H230311   5.090   0.245   4.537  0.5446  1.4239  1.0717
 2966TIP3   OH230312   1.171   6.496  13.988 -0.7598 -0.2331  0.3733
 2966TIP3    H130313   1.151   6.405  13.968  0.5836 -0.7173  1.1428
 2966TIP3    H230314   1.115   6.517  14.062  1.3120 -1.5264  2.4107
 2967TIP3   OH230315   1.929   5.756   1.113 -0.3986 -0.6012  0.2730
 2967TIP3    H130316   1.995   5.815   1.150  0.0180 -0.9338  0.0795
 2967TIP3    H230317   1.971   5.670   1.114  0.0099 -0.4839 -1.8443
 2968TIP3   OH230318   6.629   3.340  15.255 -0.4645  0.2251  0.2408
 2968TIP3    H130319   6.645   3.427  15.292  0.0398  0.0008  0.5593
 2968TIP3    H230320   6.570   3.298  15.318  0.9410 -0.4077  1.1795
 2969TIP3   OH230321   4.115   4.174  14.232  0.1289 -0.1906 -0.1523
 2969TIP3    H130322   4.108   4.162  14.137 -0.3735 -0.3188 -0.1034
 2969TIP3    H230323   4.179   4.109  14.259  0.7438  0.2741 -0.4871
 2970TIP3   OH230324   0.577   2.847   3.728 -0.2510 -0.7097  0.2499
 2970TIP3    H130325   0.585   2.940   3.706  1.3631 -0.8048  0.2961
 2970TIP3    H230326   0.488   2.824   3.703 -0.6820  0.8474  0.2326
 2971TIP3   OH230327   5.537   6.566  15.267 -0.4764  0.2022 -0.5205
 2971TIP3    H130328   5.530   6.471  15.277 -0.5474  0.4496  3.3879
 2971TIP3    H230329   5.447   6.595  15.249 -0.6488 -0.3759 -0.6021
 2972TIP3   OH230330   0.534   5.246   3.263  0.1011  0.3168  0.1068
 2972TIP3    H130331   0.481   5.187   3.317  0.4316 -0.5251 -0.4601
 2972TIP3    H230332   0.557   5.194   3.186  0.2601  1.2560 -0.4961
 2973TIP3   OH230333   0.548   6.134   0.996 -0.3284 -0.5768 -0.2028
 2973TIP3    H130334   0.454   6.126   0.977 -0.3752 -0.9857  0.1696
 2973TIP3    H230335   0.569   6.225   0.974 -0.9149 -0.3447  0.1474
 2974TIP3   OH230336   6.189   1.370   1.087  0.1838  0.0314 -0.0279
 2974TIP3    H130337   6.229   1.440   1.034  0.7587 -0.7523 -0.6616
 2974TIP3    H230338   6.100   1.362   1.053 -0.8452  2.2469  1.8348
 2975TIP3   OH230339   3.881   0.057  15.763 -0.4097  0.0854 -0.3034
 2975TIP3    H130340   3.839  -0.002  15.825 -0.1008 -0.8977 -1.0080
 2975TIP3    H230341   3.969   0.022  15.751 -0.6112 -0.0332 -1.6500
 2976TIP3   OH230342   5.240   3.885  16.901  0.0182 -0.5367 -0.0434
 2976TIP3    H130343   5.272   3.801  16.867 -0.7877 -2.0624  2.6282
 2976TIP3    H230344   5.163   3.905  16.848  1.0227 -0.7090 -1.6293
 2977TIP3   OH230345   0.885   6.425   1.718  0.3158 -0.0702  0.0128
 2977TIP3    H130346   0.891   6.473   1.800 -1.5241  0.5390 -0.1521
 2977TIP3    H230347   0.931   6.480   1.654  0.7601  0.0205  0.4099
 2978TIP3   OH230348   0.273   3.081  16.694  0.2350 -0.5187 -0.7185
 2978TIP3    H130349   0.218   3.138  16.641 -0.5386 -0.6820 -0.1029
 2978TIP3    H230350   0.346   3.136  16.721  0.1731 -0.1906 -1.2041
 2979TIP3   OH230351   2.831   0.118  10.690  0.3914 -0.4500 -0.2546
 2979TIP3    H130352   2.740   0.144  10.677  0.2595 -0.1170  1.1664
 2979TIP3    H230353   2.857   0.078  10.607 -0.3396  1.5058 -1.4902
 2980TIP3   OH230354   1.703   4.042   4.086  0.7139  0.2185 -0.5586
 2980TIP3    H130355   1.737   3.961   4.124 -0.8366 -0.8762 -1.3532
 2980TIP3    H230356   1.667   4.090   4.160 -1.1566 -1.3053 -0.4051
 2981TIP3   OH230357   2.223   1.974   2.107  0.3535  0.0122 -0.2282
 2981TIP3    H130358   2.233   1.880   2.125 -1.4402 -0.2733 -0.5526
 2981TIP3    H230359   2.150   2.001   2.162  0.2714  1.0220 -0.8189
 2982TIP3   OH230360   3.196   5.600  13.720  0.6808  0.4380 -0.0322
 2982TIP3    H130361   3.224   5.513  13.749 -3.4479 -0.1144  3.2481
 2982TIP3    H230362   3.270   5.657  13.740  2.2876 -1.8272  0.8981
 2983TIP3   OH230363   5.971   3.073   6.286 -0.7648 -0.0331  0.4318
 2983TIP3    H130364   5.911   3.042   6.354  0.0717  0.4788  1.4406
 2983TIP3    H230365   6.050   3.021   6.298 -0.8518 -0.4168 -0.6150
 2984TIP3   OH230366   4.867   6.775   0.581 -0.3454 -0.2063  0.0836
 2984TIP3    H130367   4.869   6.838   0.654 -0.3269 -1.3328  1.0945
 2984TIP3    H230368   4.878   6.690   0.624  0.9083 -0.8180 -1.3623
 2985TIP3   OH230369   0.569   4.560  17.092 -0.2514  0.0151 -0.1088
 2985TIP3    H130370   0.641   4.574  17.030 -0.3262 -1.2452 -0.5155
 2985TIP3    H230371   0.534   4.474  17.069 -2.4345  0.9296 -0.4535
 2986TIP3   OH230372   2.626   4.798   4.806 -0.3641  0.1656 -0.3503
 2986TIP3    H130373   2.702   4.850   4.782 -0.3438  0.4096  0.2510
 2986TIP3    H230374   2.569   4.858   4.854 -0.4833 -0.2803  0.0749
 2987TIP3   OH230375   3.938   1.740   4.634 -0.5093 -0.0350  0.0405
 2987TIP3    H130376   3.843   1.738   4.644 -0.6926 -1.6932 -1.5137
 2987TIP3    H230377   3.958   1.664   4.579  1.6759  0.5243 -0.0299
 2988TIP3   OH230378   2.186   0.080   2.791 -0.8654 -0.1178 -0.8549
 2988TIP3    H130379   2.142   0.165   2.787 -0.7497  0.0722  0.8270
 2988TIP3    H230380   2.272   0.100   2.828 -0.8105 -0.9476 -0.5136
 2989TIP3   OH230381   0.183   2.304  16.240  0.4572 -0.4039  0.3101
 2989TIP3    H130382   0.176   2.353  16.158 -1.7749 -0.5949  0.3181
 2989TIP3    H230383   0.238   2.359  16.296  0.2280  0.7929 -0.5913
 2990TIP3   OH230384   6.316   1.883  14.675 -1.2114  0.0987 -0.4970
 2990TIP3    H130385   6.247   1.873  14.609 -1.6633 -0.5786  0.0610
 2990TIP3    H230386   6.360   1.965  14.652 -2.3506  0.6609 -0.7234
 2991TIP3   OH230387   5.396   3.101  12.186  0.3359 -0.2431 -0.0797
 2991TIP3    H130388   5.435   3.082  12.101  0.9392  0.3531  0.0513
 2991TIP3    H230389   5.463   3.076  12.249 -0.3492 -1.2656  0.2579
 2992TIP3   OH230390   1.215   3.608   2.056 -0.5582 -0.0799 -0.4440
 2992TIP3    H130391   1.146   3.590   2.120 -0.2698 -0.9655 -0.3715
 2992TIP3    H230392   1.227   3.526   2.009  0.5890  0.0016 -0.3225
 2993TIP3   OH230393   4.519   1.044   2.715  0.0337  0.4822 -0.2379
 2993TIP3    H130394   4.579   0.970   2.710  0.0985  0.5300 -0.1594
 2993TIP3    H230395   4.461   1.032   2.640  0.1381  0.4336 -0.3122
 2994TIP3   OH230396   3.819   6.227  14.299 -0.4192  0.4067 -0.0179
 2994TIP3    H130397   3.855   6.312  14.323 -0.2738  0.3057  0.1269
 2994TIP3    H230398   3.864   6.165  14.357  0.0288  0.1425 -0.6350
 2995TIP3   OH230399   2.904   2.204   0.292 -0.6552  0.5905  0.5815
 2995TIP3    H130400   2.986   2.177   0.332 -0.3581  1.0850  0.3142
 2995TIP3    H230401   2.853   2.241   0.363 -2.0212 -2.6592  1.4879
 2996TIP3   OH230402   5.811   3.342   5.747  0.4529  0.1931  0.0856
 2996TIP3    H130403   5.898   3.335   5.708  0.2985  1.1877 -0.4774
 2996TIP3    H230404   5.793   3.255   5.782  0.7976 -0.6386 -1.6834
 2997TIP3   OH230405   6.609   4.413  11.105  0.3707  0.1603 -0.7210
 2997TIP3    H130406   6.538   4.349  11.094 -0.8493  1.3571 -0.1315
 2997TIP3    H230407   6.673   4.389  11.039 -1.3471  0.0308 -2.4243
 2998TIP3   OH230408   5.423   0.121   0.845 -0.2389 -0.7187 -0.0941
 2998TIP3    H130409   5.334   0.087   0.831 -0.8598 -0.0190  1.8766
 2998TIP3    H230410   5.415   0.215   0.829 -0.2439 -0.4093  1.5514
 2999TIP3   OH230411   2.442   6.626  15.639 -0.7681 -0.1389 -0.6869
 2999TIP3    H130412   2.375   6.634  15.706 -2.3233  1.7536 -2.3415
 2999TIP3    H230413   2.457   6.716  15.608  2.0668 -0.5592 -0.8822
 3000TIP3   OH230414   2.873   5.108   4.512  0.3992 -0.1195  0.4895
 3000TIP3    H130415   2.932   5.183   4.523  0.4677 -0.0814 -0.0962
 3000TIP3    H230416   2.873   5.092   4.417 -1.3544  0.5577  0.3417
 3001TIP3   OH230417   3.352   6.031   3.469 -0.1107 -0.5853 -0.4201
 3001TIP3    H130418   3.367   6.024   3.563 -0.9658  1.4441 -0.0937
 3001TIP3    H230419   3.279   6.092   3.460  1.1439  0.7400 -2.4397
 3002TIP3   OH230420   5.817   1.110   4.903 -0.5542  0.3203  0.1731
 3002TIP3    H130421   5.782   1.184   4.951  0.4508  1.0212 -0.1494
 3002TIP3    H230422   5.908   1.103   4.931 -0.9713 -1.6498  1.2185
 3003TIP3   OH230423   6.196   6.515  13.700 -0.4172  0.0092  0.4684
 3003TIP3    H130424   6.264   6.555  13.646 -0.1713  1.0383  1.5115
 3003TIP3    H230425   6.182   6.429  13.660  0.9954  0.0480 -0.1866
 3004TIP3   OH230426   2.993   2.724  16.920  0.0984  0.2343 -0.5282
 3004TIP3    H130427   2.918   2.780  16.940 -1.5568 -2.3265  1.0873
 3004TIP3    H230428   2.998   2.724  16.825  0.0212  2.8524 -0.5902
 3005TIP3   OH230429   1.822   3.789   2.991 -0.0106  0.5890 -0.6294
 3005TIP3    H130430   1.840   3.883   2.981  0.5951  0.4413 -1.0083
 3005TIP3    H230431   1.862   3.765   3.074 -0.3359  0.7042 -0.4379
 3006TIP3   OH230432   6.343   6.522  12.362 -0.2625  0.6081 -0.5093
 3006TIP3    H130433   6.431   6.512  12.327 -0.3427  0.8928 -0.8003
 3006TIP3    H230434   6.332   6.617  12.372 -0.1040  0.5172  0.6462
 3007TIP3   OH230435   3.295   6.114   1.682  0.3199  0.0640 -0.1092
 3007TIP3    H130436   3.299   6.030   1.728  1.3004 -0.0414 -0.3586
 3007TIP3    H230437   3.234   6.099   1.610  0.1457 -0.3009  0.1134
 3008TIP3   OH230438   4.567   2.493   5.891  0.0428 -0.2134  0.0173
 3008TIP3    H130439   4.531   2.533   5.971 -0.1408 -1.3510  0.5164
 3008TIP3    H230440   4.558   2.562   5.825  0.7545  0.9665  1.1002
 3009TIP3   OH230441   6.417   3.206   2.787  0.3307 -0.4348 -0.3634
 3009TIP3    H130442   6.413   3.257   2.868 -3.0168  0.3300 -0.8408
 3009TIP3    H230443   6.495   3.239   2.742 -0.6174  3.0538  0.1956
 3010TIP3   OH230444   1.434   2.223  11.897  0.1680 -0.0810  0.4127
 3010TIP3    H130445   1.343   2.195  11.909  0.7710 -2.2247  0.4614
 3010TIP3    H230446   1.456   2.192  11.809  0.4783  1.6559 -0.1687
 3011TIP3   OH230447   1.793   1.779  12.458  0.6886 -0.1617 -0.2920
 3011TIP3    H130448   1.791   1.804  12.550 -0.1238  1.2472 -0.6559
 3011TIP3    H230449   1.882   1.796  12.430  0.7489  0.0924  0.0563
 3012TIP3   OH230450   1.831   1.326   4.972 -0.4601 -0.1136  0.4917
 3012TIP3    H130451   1.850   1.342   4.880  0.7360  2.0253  1.0406
 3012TIP3    H230452   1.735   1.329   4.978 -0.5438 -0.1465 -0.6361
 3013TIP3   OH230453   3.216   4.970   0.428 -0.2314 -0.1039 -0.1058
 3013TIP3    H130454   3.181   4.954   0.515  0.6379 -0.2975  0.2178
 3013TIP3    H230455   3.310   4.978   0.441  0.1998 -2.3874 -1.3135
 3014TIP3   OH230456   2.316   1.490  11.472  0.1477 -0.2078  0.2235
 3014TIP3    H130457   2.305   1.414  11.414 -1.4741  0.1364  0.0173
 3014TIP3    H230458   2.325   1.564  11.412 -0.8642  0.0652  0.3937
 3015TIP3   OH230459   1.903   6.261  12.112  0.5450  0.0940 -0.7890
 3015TIP3    H130460   1.832   6.320  12.087 -0.6567 -0.0812  1.8562
 3015TIP3    H230461   1.981   6.316  12.113 -0.5279  1.7309  1.4787
 3016TIP3   OH230462   2.261   0.581   0.250  0.2066  0.0312  0.3343
 3016TIP3    H130463   2.188   0.636   0.220  0.6999  0.0013 -1.0046
 3016TIP3    H230464   2.306   0.556   0.169  0.9270 -1.0368  1.0491
 3017TIP3   OH230465   3.316   2.371  16.941  0.1145 -0.3326 -0.4373
 3017TIP3    H130466   3.405   2.336  16.933 -0.0327 -1.2308  1.3720
 3017TIP3    H230467   3.277   2.320  17.012 -1.4435  0.8886 -0.3793
 3018TIP3   OH230468   4.422   4.546   2.167  0.1475 -0.4687  0.0659
 3018TIP3    H130469   4.422   4.481   2.097  0.6894 -1.5584  1.0391
 3018TIP3    H230470   4.336   4.537   2.208 -0.2391  0.2978 -0.5628
 3019TIP3   OH230471   6.161   5.195  11.057  0.6158 -0.6543 -0.1080
 3019TIP3    H130472   6.091   5.220  11.118  0.1945 -0.1503 -0.7882
 3019TIP3    H230473   6.119   5.138  10.994  0.7322 -0.0821 -0.7149
 3020TIP3   OH230474   4.022   6.240   3.995 -0.3150 -0.3299 -0.6543
 3020TIP3    H130475   3.997   6.276   3.910 -0.5189 -0.5207 -0.6762
 3020TIP3    H230476   3.944   6.250   4.050  1.3586  5.2181  1.3851
 3021TIP3   OH230477   0.268   1.504  15.372 -0.0297 -0.4738  0.2648
 3021TIP3    H130478   0.327   1.550  15.432 -0.3753  1.0269 -0.4969
 3021TIP3    H230479   0.268   1.414  15.403  0.6015  0.0463  1.8841
 3022TIP3   OH230480   3.842   2.518   5.442 -0.1703 -0.1951 -0.1701
 3022TIP3    H130481   3.753   2.494   5.416 -0.4696 -0.9876  1.4506
 3022TIP3    H230482   3.834   2.544   5.534  1.6332 -2.7331  0.8269
 3023TIP3   OH230483   5.845   2.211   5.734  0.0158  0.1151 -0.0330
 3023TIP3    H130484   5.822   2.131   5.782 -1.5312  1.5341  1.7872
 3023TIP3    H230485   5.904   2.257   5.792  0.4925  0.5348 -0.8421
 3024TIP3   OH230486   2.679   1.974  12.482  0.0654  0.2955  0.0296
 3024TIP3    H130487   2.624   1.916  12.429 -0.5542  0.3104  0.6572
 3024TIP3    H230488   2.638   1.975  12.568  1.0229  0.3430  0.4982
 3025TIP3   OH230489   3.528   2.166   2.550 -0.1632 -0.1950 -0.0041
 3025TIP3    H130490   3.494   2.121   2.626  1.2122 -2.2181 -0.5128
 3025TIP3    H230491   3.461   2.232   2.529 -1.0268 -0.2499  2.2972
 3026TIP3   OH230492   2.942   3.348  14.185  0.0766  0.6401 -0.4951
 3026TIP3    H130493   2.926   3.366  14.092  0.0713 -0.1515 -0.6492
 3026TIP3    H230494   3.035   3.324  14.189  0.3059  1.5432 -0.1557
 3027TIP3   OH230495   6.401   2.540  14.606  0.1666 -0.1630 -0.6071
 3027TIP3    H130496   6.425   2.632  14.603 -0.3325 -0.0240 -0.5157
 3027TIP3    H230497   6.422   2.507  14.518  1.5590 -0.2859 -0.2388
 3028TIP3   OH230498   2.996   4.175   3.930 -0.6631  0.5086  0.2049
 3028TIP3    H130499   2.983   4.249   3.990 -1.4276 -0.5951  1.4382
 3028TIP3    H230500   2.968   4.099   3.979  0.5105 -0.6883 -0.8991
 3029TIP3   OH230501   1.632   1.334  11.005  0.0047 -0.0627 -0.7703
 3029TIP3    H130502   1.567   1.397  11.036 -0.0711 -0.7936  0.6360
 3029TIP3    H230503   1.647   1.357  10.913 -0.0340  1.9693 -0.2964
 3030TIP3   OH230504   1.368   1.384  13.243 -0.3379 -0.0762 -0.2530
 3030TIP3    H130505   1.369   1.297  13.281 -2.6055  0.6043  1.6173
 3030TIP3    H230506   1.391   1.442  13.315 -2.4082  1.0872 -0.4370
 3031TIP3   OH230507   4.145   2.700  15.358  0.0994 -0.1531  0.4768
 3031TIP3    H130508   4.163   2.616  15.400 -0.4737 -0.1572  0.7175
 3031TIP3    H230509   4.153   2.682  15.264 -0.4582 -0.5841  0.5088
 3032TIP3   OH230510   6.492   3.523  11.107 -0.1028 -0.2398 -0.8875
 3032TIP3    H130511   6.439   3.444  11.093  1.7338 -1.4031 -1.6960
 3032TIP3    H230512   6.497   3.531  11.202  0.8547 -1.9747 -0.7512
 3033TIP3   OH230513   1.179   2.244   3.744 -0.8719  0.1606  0.2396
 3033TIP3    H130514   1.090   2.232   3.710 -1.2438  1.5840  0.6511
 3033TIP3    H230515   1.236   2.210   3.674 -1.6448  2.2352 -1.5216
 3034TIP3   OH230516   4.443   4.511   4.331  0.0006 -0.7503 -0.6279
 3034TIP3    H130517   4.439   4.604   4.355 -1.4913 -1.2323  1.2227
 3034TIP3    H230518   4.532   4.500   4.297  0.8570  0.9860  0.8215
 3035TIP3   OH230519   3.844   6.576   0.354  0.5366  0.0246  0.5998
 3035TIP3    H130520   3.815   6.600   0.267  0.7155 -0.2770  0.4545
 3035TIP3    H230521   3.910   6.508   0.340  0.9513  0.3423  0.9415
 3036TIP3   OH230522   3.604   1.991   3.075 -0.6923 -0.2980 -0.4330
 3036TIP3    H130523   3.593   1.912   3.021  1.2067  0.0177 -1.3408
 3036TIP3    H230524   3.698   2.009   3.073 -0.9802  1.5121  0.4712
 3037TIP3   OH230525   5.942   5.863   2.260  0.4764  0.2092  0.0455
 3037TIP3    H130526   5.900   5.929   2.205  0.4288  0.1204 -0.0246
 3037TIP3    H230527   5.938   5.783   2.208 -1.8975 -0.5169  1.1958
 3038TIP3   OH230528   5.366   2.905   2.407  0.2537  0.1225 -0.1209
 3038TIP3    H130529   5.294   2.875   2.351  0.1848 -0.8771  0.4655
 3038TIP3    H230530   5.390   2.827   2.458  0.7752  0.8232  0.7340
 3039TIP3   OH230531   4.750   5.044   0.674  0.4222  0.1268  0.3310
 3039TIP3    H130532   4.657   5.043   0.651  0.3424 -2.0744  0.5036
 3039TIP3    H230533   4.793   5.088   0.601 -0.7597  1.4896  0.4126
 3040TIP3   OH230534   2.103   2.636   2.815 -0.4198  0.7340 -0.4897
 3040TIP3    H130535   2.155   2.628   2.735  0.2617 -0.5005  0.0527
 3040TIP3    H230536   2.031   2.575   2.802 -0.0456  0.1766  0.0264
 3041TIP3   OH230537   1.492   3.038   5.866 -0.3300  0.2089  0.2878
 3041TIP3    H130538   1.419   3.003   5.916 -0.0858  0.2911  0.7092
 3041TIP3    H230539   1.560   2.971   5.874  0.0199  0.6166  0.8160
 3042TIP3   OH230540   5.660   2.198   5.520  0.4880 -0.6879  0.2836
 3042TIP3    H130541   5.609   2.277   5.501 -1.5464 -1.6483  1.3768
 3042TIP3    H230542   5.717   2.224   5.592 -1.0477 -0.4761  1.4869
 3043TIP3   OH230543   1.048   6.296   5.571 -0.2983  0.0846  0.3378
 3043TIP3    H130544   1.066   6.357   5.500  0.0834  0.0397  0.3951
 3043TIP3    H230545   1.054   6.348   5.650  1.1393 -0.2461  0.4693
 3044TIP3   OH230546   0.094   0.460  16.938  0.3749 -0.3175  0.4675
 3044TIP3    H130547   0.141   0.463  16.855 -0.7011  1.9990 -0.1533
 3044TIP3    H230548   0.160   0.436  17.003  1.2861 -1.9751 -0.9874
 3045TIP3   OH230549   5.133   5.059   0.721 -0.1533  0.0325  0.3030
 3045TIP3    H130550   5.100   5.136   0.767  0.7403  0.2693  0.5618
 3045TIP3    H230551   5.087   4.985   0.761  0.1070  0.2994  1.1086
 3046TIP3   OH230552   3.473   4.728  14.380  0.1195 -0.1023  0.0413
 3046TIP3    H130553   3.387   4.768  14.369  0.0335  0.5042  2.3708
 3046TIP3    H230554   3.517   4.781  14.447  1.8789 -1.0609 -0.2708
 3047TIP3   OH230555   1.835   1.568   2.242  0.1936 -0.2936 -0.6489
 3047TIP3    H130556   1.740   1.567   2.229  0.2914  0.9353 -1.6192
 3047TIP3    H230557   1.854   1.655   2.275  1.0459 -0.3723 -0.9136
 3048TIP3   OH230558   2.503   5.530   1.911  0.0325  0.6595  0.1978
 3048TIP3    H130559   2.562   5.459   1.888 -0.2116  0.3505  0.5205
 3048TIP3    H230560   2.461   5.501   1.992 -0.3581  0.9973  0.1180
 3049TIP3   OH230561   6.229   3.682   3.477  0.0617 -0.0385 -0.2592
 3049TIP3    H130562   6.310   3.728   3.454 -1.0681  1.7670 -0.7813
 3049TIP3    H230563   6.173   3.692   3.400  0.6361 -4.6841 -1.6035
 3050TIP3   OH230564   6.532   5.972  16.296  0.3467 -0.4260 -0.8884
 3050TIP3    H130565   6.498   5.883  16.306 -0.6629  0.0698  0.4206
 3050TIP3    H230566   6.542   5.984  16.202  1.6039 -2.3092 -1.0597
 3051TIP3   OH230567   1.220   5.558  15.604  0.3065 -0.4176  0.0499
 3051TIP3    H130568   1.238   5.649  15.630  1.5094 -0.6234  0.0122
 3051TIP3    H230569   1.160   5.565  15.530 -0.3481  0.3083  0.6309
 3052TIP3   OH230570   0.839   0.635   2.729  0.2739 -0.1867  0.0404
 3052TIP3    H130571   0.890   0.601   2.802 -0.9227  0.9564  1.4585
 3052TIP3    H230572   0.758   0.668   2.768 -0.3466  0.6150 -1.7740
 3053TIP3   OH230573   4.077   3.450  14.338  0.1484 -0.1858 -0.2573
 3053TIP3    H130574   4.053   3.372  14.387  3.1829 -2.3154 -1.8074
 3053TIP3    H230575   4.095   3.418  14.249  0.0748  2.5569 -1.3657
 3054TIP3   OH230576   4.056   5.518   4.222 -0.8423 -0.8338  0.1198
 3054TIP3    H130577   4.120   5.464   4.177 -0.3922 -0.0473 -0.2138
 3054TIP3    H230578   4.013   5.568   4.152 -1.8378 -1.3714  0.3381
 3055TIP3   OH230579   3.426   6.192   5.404  0.4278 -0.0505 -0.2820
 3055TIP3    H130580   3.457   6.235   5.324 -1.9206  1.6769 -0.3738
 3055TIP3    H230581   3.353   6.137   5.375  0.2991 -0.3162  0.5285
 3056TIP3   OH230582   4.676   6.187  16.207  0.2946  0.1655 -0.7156
 3056TIP3    H130583   4.715   6.102  16.185  0.4833  0.2320 -0.6409
 3056TIP3    H230584   4.724   6.249  16.152 -0.1065  0.1797 -1.0562
 3057TIP3   OH230585   2.355   5.671   5.204  1.1277  0.2890 -0.5911
 3057TIP3    H130586   2.409   5.599   5.173  2.4129  1.3767 -0.9760
 3057TIP3    H230587   2.412   5.748   5.200  0.2008  1.1241  1.0120
 3058TIP3   OH230588   4.775   5.493   2.458 -0.1042 -0.1501  0.0035
 3058TIP3    H130589   4.789   5.434   2.532 -1.2132 -0.7460 -0.2485
 3058TIP3    H230590   4.862   5.503   2.419  0.4318 -0.0772  1.1896
 3059TIP3   OH230591   6.246   5.555  15.931 -0.3877  0.3144  0.0704
 3059TIP3    H130592   6.212   5.600  15.854  0.9311  2.4147  0.6409
 3059TIP3    H230593   6.281   5.472  15.896 -0.1253  1.0629 -1.5336
 3060TIP3   OH230594   3.015   5.294   2.160  0.5302  0.3059  0.4891
 3060TIP3    H130595   2.981   5.328   2.242  1.3869  0.5471  0.7577
 3060TIP3    H230596   3.101   5.258   2.182  0.7779  0.3822 -0.2923
 3061TIP3   OH230597   4.736   3.748  16.321  0.1537 -0.0755  1.1211
 3061TIP3    H130598   4.723   3.655  16.343 -1.0819  0.1296  1.3515
 3061TIP3    H230599   4.708   3.755  16.229  1.1667 -0.0986  0.7946
 3062TIP3   OH230600   3.926   2.073  13.072  0.0928 -0.3509  0.0440
 3062TIP3    H130601   3.867   2.046  13.143 -0.7258  0.1213 -0.4430
 3062TIP3    H230602   3.991   2.130  13.116 -0.1247 -0.4429  0.4948
 3063TIP3   OH230603   1.095   0.836   6.653  0.6404 -0.1154 -0.0419
 3063TIP3    H130604   1.155   0.884   6.596  0.8976 -2.6018 -2.0182
 3063TIP3    H230605   1.009   0.850   6.615  0.5035  0.0569  0.3262
 3064TIP3   OH230606   0.455   1.860   0.764 -0.1790  0.1214 -0.2449
 3064TIP3    H130607   0.451   1.847   0.669 -0.6083  0.4172 -0.2690
 3064TIP3    H230608   0.416   1.780   0.800 -0.6559  0.3112 -0.3359
 3065TIP3   OH230609   4.391   0.873  11.494  0.0674  0.1874 -0.3471
 3065TIP3    H130610   4.347   0.957  11.508  1.3782  0.9708 -0.7225
 3065TIP3    H230611   4.329   0.808  11.527 -1.1796  1.2550 -0.4818
 3066TIP3   OH230612   4.885   5.959  12.284 -0.9271 -0.5035 -0.5477
 3066TIP3    H130613   4.863   6.051  12.266  0.6838 -0.1469 -0.8589
 3066TIP3    H230614   4.975   5.962  12.317 -1.2022 -1.8923  0.4131
 3067TIP3   OH230615   5.867   4.003   4.004  0.2603 -0.8184 -0.1314
 3067TIP3    H130616   5.878   4.058   4.081  0.3314 -0.1051 -0.6455
 3067TIP3    H230617   5.954   3.996   3.966  0.0125 -0.0469 -0.8912
 3068TIP3   OH230618   6.254   2.785   4.266  0.5869  0.6638  0.6956
 3068TIP3    H130619   6.175   2.774   4.320  0.5101  2.5789  1.0498
 3068TIP3    H230620   6.326   2.784   4.329  0.5332  2.4006  0.8482
 3069TIP3   OH230621   5.221   1.875  14.945  0.4302 -0.2860 -0.4998
 3069TIP3    H130622   5.162   1.858  15.018 -2.7282 -1.8012 -3.1323
 3069TIP3    H230623   5.208   1.968  14.924 -0.9358 -0.5422 -0.8949
 3070TIP3   OH230624   4.869   4.771   5.074 -0.3270  0.5619  0.2108
 3070TIP3    H130625   4.845   4.720   5.152 -3.6600  1.4141 -0.1135
 3070TIP3    H230626   4.861   4.862   5.101 -0.8196  0.8733 -0.9392
 3071TIP3   OH230627   4.901   3.637  13.709 -0.4735 -0.0100  0.2000
 3071TIP3    H130628   4.874   3.546  13.699  0.6293 -0.2966 -0.2221
 3071TIP3    H230629   4.981   3.634  13.761  0.6699  0.5371 -1.4455
 3072TIP3   OH230630   6.036   2.828  13.824 -0.1277 -0.1393 -0.5082
 3072TIP3    H130631   5.951   2.872  13.826 -0.2303 -0.2745  2.1726
 3072TIP3    H230632   6.098   2.897  13.802 -0.8165  0.1497 -1.6151
 3073TIP3   OH230633   4.264   3.400   0.604 -0.7137  0.4135 -0.6133
 3073TIP3    H130634   4.338   3.461   0.600 -0.1791 -0.1487  0.2700
 3073TIP3    H230635   4.299   3.323   0.649 -1.8929  0.2270  0.0324
 3074TIP3   OH230636   3.098   0.380  10.725 -0.4938  0.5326 -0.2453
 3074TIP3    H130637   3.120   0.331  10.646 -0.0370 -1.0202  0.7990
 3074TIP3    H230638   3.176   0.432  10.743  0.2635 -0.7829  0.3865
 3075TIP3   OH230639   5.114   1.390  14.309  0.2297 -0.0021 -0.3755
 3075TIP3    H130640   5.198   1.347  14.295 -1.1934 -3.2507  0.2363
 3075TIP3    H230641   5.093   1.429  14.224  1.7857 -0.1807 -0.8743
 3076TIP3   OH230642   0.248   4.051  12.132 -1.1040 -0.2222  0.1320
 3076TIP3    H130643   0.294   4.132  12.154 -0.7425 -0.2336 -0.5420
 3076TIP3    H230644   0.276   4.032  12.043 -1.9692 -0.5558 -0.0716
 3077TIP3   OH230645   1.498   6.170  11.853 -0.1591  0.1663  0.3613
 3077TIP3    H130646   1.476   6.077  11.849 -1.1350  0.4445 -1.8698
 3077TIP3    H230647   1.475   6.195  11.943 -0.0658 -1.6721  0.9585
 3078TIP3   OH230648   4.435   5.680   3.508 -0.7806  0.0306 -0.5417
 3078TIP3    H130649   4.488   5.726   3.574 -1.3495  0.4638 -0.3747
 3078TIP3    H230650   4.437   5.589   3.535  1.2641 -0.2577 -1.4861
 3079TIP3   OH230651   2.599   1.657   0.108 -0.1749  0.0468  0.6122
 3079TIP3    H130652   2.562   1.583   0.061 -1.0438 -0.0614  1.4367
 3079TIP3    H230653   2.689   1.664   0.076 -0.6814 -0.1366 -0.9145
 3080TIP3   OH230654   6.253   0.398   6.580 -0.3660 -0.1177 -0.1950
 3080TIP3    H130655   6.176   0.456   6.582 -0.8294 -0.6266 -1.8085
 3080TIP3    H230656   6.231   0.326   6.639 -0.6884  0.2570  0.1487
 3081TIP3   OH230657   6.463   4.442  12.001 -0.1699  0.1684 -0.2138
 3081TIP3    H130658   6.405   4.482  12.065 -1.0937 -2.1247  0.4926
 3081TIP3    H230659   6.491   4.360  12.042  3.5888  1.0768 -0.5356
 3082TIP3   OH230660   3.852   0.238  12.506  0.7912  0.6252  0.4078
 3082TIP3    H130661   3.839   0.169  12.441  0.1546  1.4719 -0.3801
 3082TIP3    H230662   3.765   0.256  12.541  1.0166  0.7229  0.9427
 3083TIP3   OH230663   1.588   0.224  15.843 -0.4130 -0.4773 -0.3083
 3083TIP3    H130664   1.492   0.224  15.836 -0.4871  1.4526  0.1907
 3083TIP3    H230665   1.605   0.180  15.926 -1.2141  3.1608  2.0148
 3084TIP3   OH230666   5.600   2.659   1.038  0.5596  0.6194 -0.4347
 3084TIP3    H130667   5.672   2.701   0.990  2.1941 -1.2703  0.2242
 3084TIP3    H230668   5.554   2.607   0.972  0.6690  0.7140 -0.5860
 3085TIP3   OH230669   2.589   4.548   4.684 -0.3566 -0.1228  0.3829
 3085TIP3    H130670   2.644   4.625   4.675 -0.4842  0.1576  1.7204
 3085TIP3    H230671   2.522   4.575   4.747  0.1399 -1.6115  1.5871
 3086TIP3   OH230672   0.461   3.764   0.759 -0.2967 -0.1183  0.1369
 3086TIP3    H130673   0.472   3.748   0.853  0.2406 -0.8558 -0.0462
 3086TIP3    H230674   0.398   3.697   0.731 -0.0916 -0.2034 -0.1184
 3087TIP3   OH230675   4.412   3.126   4.276 -0.1420  0.4801  0.1228
 3087TIP3    H130676   4.379   3.211   4.248 -0.1104  0.4515 -0.0054
 3087TIP3    H230677   4.335   3.076   4.301 -0.3779 -0.1334 -1.6606
 3088TIP3   OH230678   6.723   5.021  14.847  0.0334 -0.0435 -0.5298
 3088TIP3    H130679   6.681   5.073  14.778 -1.1075 -0.9336 -0.5339
 3088TIP3    H230680   6.683   4.934  14.839  0.4833 -0.3808  0.7291
 3089TIP3   OH230681   6.125   1.077   0.938 -0.1158 -0.3168 -0.2593
 3089TIP3    H130682   6.060   1.141   0.966  0.4387 -0.2947  1.0399
 3089TIP3    H230683   6.183   1.126   0.879 -0.3698  0.0731 -0.1857
 3090TIP3   OH230684   0.012   0.688  16.687 -0.3121  0.0745  0.0561
 3090TIP3    H130685  -0.070   0.725  16.657  0.0144 -1.2693 -2.8166
 3090TIP3    H230686   0.036   0.624  16.621  1.9389 -1.2309  1.9435
 3091TIP3   OH230687   0.707   4.356   1.146 -0.1098  0.6408  0.0006
 3091TIP3    H130688   0.787   4.377   1.194 -0.9236  1.2038  1.1981
 3091TIP3    H230689   0.643   4.419   1.180 -1.0343  0.2452 -0.9721
 3092TIP3   OH230690   3.532   5.189   3.378  0.2284  0.5227  0.2278
 3092TIP3    H130691   3.573   5.108   3.406 -0.9710  0.0876  0.7922
 3092TIP3    H230692   3.457   5.162   3.325  0.5287  1.2965 -0.6401
 3093TIP3   OH230693   3.538   6.214   2.003 -0.1518 -0.2477 -0.5306
 3093TIP3    H130694   3.507   6.223   2.093  2.1941  0.6702  0.2710
 3093TIP3    H230695   3.523   6.122   1.982 -2.2409 -0.1153  0.1660
 3094TIP3   OH230696   1.154   1.730  17.204 -0.0213  0.3343 -0.1333
 3094TIP3    H130697   1.112   1.798  17.151  0.3499 -0.1802 -1.1309
 3094TIP3    H230698   1.093   1.714  17.275 -0.9690  0.4313 -0.8962
 3095TIP3   OH230699   1.919   2.569  15.434 -0.6996 -0.1042  0.6971
 3095TIP3    H130700   1.948   2.642  15.378  1.1238  1.4632  3.4294
 3095TIP3    H230701   1.937   2.491  15.382 -1.9062  1.2712 -2.0334
 3096TIP3   OH230702   2.242   2.915   3.128  0.3314 -0.3715 -0.1498
 3096TIP3    H130703   2.171   2.938   3.067  0.3639 -0.9498 -0.4160
 3096TIP3    H230704   2.208   2.937   3.214  0.6427  1.3637 -0.4358
 3097TIP3   OH230705   1.484   1.366   5.485  0.0351 -0.6372  1.0297
 3097TIP3    H130706   1.534   1.376   5.566  0.3356  0.1760  0.7589
 3097TIP3    H230707   1.416   1.433   5.490 -0.4514 -1.1183  0.9696
 3098TIP3   OH230708   4.534   2.475   3.528  0.2148  0.1010 -0.4382
 3098TIP3    H130709   4.552   2.392   3.483  2.2030  0.4349 -0.3424
 3098TIP3    H230710   4.546   2.542   3.462 -0.1804  0.4026 -0.2095
 3099TIP3   OH230711   2.369   1.028  12.056 -0.4379 -0.8880  0.0419
 3099TIP3    H130712   2.348   1.115  12.091  2.6527  0.2554 -0.5887
 3099TIP3    H230713   2.401   0.978  12.131 -2.1416 -1.5058  0.3900
 3100TIP3   OH230714   2.512   3.477  14.760 -0.2855 -0.0616 -0.2924
 3100TIP3    H130715   2.489   3.384  14.756 -0.6895  0.0713 -1.4733
 3100TIP3    H230716   2.514   3.497  14.854 -0.5811 -1.1616 -0.0329
 3101TIP3   OH230717   2.924   0.603   4.461 -0.2035  0.3473  0.1792
 3101TIP3    H130718   2.851   0.661   4.484 -0.5098  0.2837 -0.6172
 3101TIP3    H230719   2.974   0.653   4.396 -0.3355 -0.1807 -0.3321
 3102TIP3   OH230720   6.565   0.533   0.126  0.2394 -0.1173 -0.4639
 3102TIP3    H130721   6.611   0.492   0.052 -0.7259  0.8443 -1.6439
 3102TIP3    H230722   6.598   0.487   0.203  1.8675 -0.6216 -1.4121
 3103TIP3   OH230723   0.617   5.222   1.919 -0.5731  0.6010 -0.2701
 3103TIP3    H130724   0.566   5.254   1.845  1.7809  2.4714 -1.2058
 3103TIP3    H230725   0.690   5.175   1.879 -1.1290 -1.4798  1.0080
 3104TIP3   OH230726   0.618   4.398   0.602  0.6474 -0.0858  0.5227
 3104TIP3    H130727   0.583   4.382   0.515  1.3266  0.5966  0.1151
 3104TIP3    H230728   0.543   4.432   0.652  0.2184 -0.6279  0.2676
 3105TIP3   OH230729   4.433   4.201  13.590  0.1617 -0.3923  0.5455
 3105TIP3    H130730   4.517   4.228  13.627 -1.6975  2.2899  3.2409
 3105TIP3    H230731   4.430   4.246  13.505 -0.0906  2.8947  2.1464
 3106TIP3   OH230732   0.269   4.894   1.488  0.2570 -0.3046 -0.0440
 3106TIP3    H130733   0.202   4.877   1.554  1.8616 -1.0958  1.4606
 3106TIP3    H230734   0.319   4.968   1.522 -0.1990  0.7007 -1.4618
 3107TIP3   OH230735   6.658   3.029   3.881 -0.0189 -0.8950  0.0077
 3107TIP3    H130736   6.646   3.107   3.828 -1.6185  0.0463  1.6199
 3107TIP3    H230737   6.601   2.963   3.840 -0.2181 -0.5876 -0.2120
 3108TIP3   OH230738   3.646   3.813   2.408 -0.0010  0.6120 -0.1487
 3108TIP3    H130739   3.657   3.825   2.503 -0.4651 -0.8942  0.1262
 3108TIP3    H230740   3.552   3.801   2.396 -0.0103  1.3632 -0.8876
 3109TIP3   OH230741   1.335   6.275  12.287 -0.5641  0.4727  0.0630
 3109TIP3    H130742   1.274   6.277  12.213 -0.5473 -0.0999  0.0332
 3109TIP3    H230743   1.279   6.260  12.363 -0.5840  1.0813  0.1761
 3110TIP3   OH230744   1.786   6.693   0.076  0.5684 -0.1065  0.3113
 3110TIP3    H130745   1.717   6.754   0.053  0.7011  0.4658  1.3677
 3110TIP3    H230746   1.861   6.748   0.097  0.5429 -0.5853  1.7679
 3111TIP3   OH230747   4.042   6.464  15.371  0.1765 -0.4467  0.0309
 3111TIP3    H130748   4.109   6.445  15.305 -0.4052  2.4466 -1.5531
 3111TIP3    H230749   4.059   6.554  15.397 -1.8052 -0.3558  1.2072
 3112TIP3   OH230750   5.455   1.000  11.540  0.3972 -0.5098 -0.0586
 3112TIP3    H130751   5.521   0.934  11.561 -0.3337 -1.4817 -0.7377
 3112TIP3    H230752   5.473   1.024  11.449  0.0675 -0.4953 -0.1227
 3113TIP3   OH230753   2.642   0.205  16.112 -0.3894 -0.0204  0.2621
 3113TIP3    H130754   2.703   0.190  16.040  0.7196  1.8034  0.7659
 3113TIP3    H230755   2.557   0.219  16.069 -0.0953 -0.7112 -0.5593
 3114TIP3   OH230756   2.668   4.123   5.217 -0.1091 -0.0070  0.3543
 3114TIP3    H130757   2.621   4.073   5.283  0.3561  0.5154  1.0968
 3114TIP3    H230758   2.605   4.189   5.188 -0.0596  0.2727  0.8675
 3115TIP3   OH230759   3.287   5.081   3.181 -0.0923  0.2989  0.0779
 3115TIP3    H130760   3.267   5.116   3.094  0.7899  0.2224 -0.1697
 3115TIP3    H230761   3.351   5.011   3.165  0.3283  0.4968  0.8086
 3116TIP3   OH230762   5.829   0.413   1.287  0.7668 -0.1289 -0.1662
 3116TIP3    H130763   5.847   0.327   1.325 -0.7834 -0.4493 -0.1291
 3116TIP3    H230764   5.875   0.412   1.203  0.2642 -1.2151 -0.4323
 3117TIP3   OH230765   5.894   1.135  11.212 -0.1331  0.0698  0.5741
 3117TIP3    H130766   5.867   1.113  11.123  1.5108  1.4126 -0.3101
 3117TIP3    H230767   5.821   1.185  11.248 -1.1050 -1.0858  0.2530
 3118TIP3   OH230768   0.587   0.365  13.384 -0.5535  0.4456  0.4295
 3118TIP3    H130769   0.502   0.336  13.417 -0.6823 -0.0570 -0.3330
 3118TIP3    H230770   0.567   0.418  13.307 -0.1095 -2.0496 -1.5471
 3119TIP3   OH230771   5.077   4.768  13.520  0.4939  0.1478 -0.3643
 3119TIP3    H130772   4.982   4.763  13.525  0.3839  2.0496  0.0078
 3119TIP3    H230773   5.100   4.717  13.442 -0.6323 -1.8963  0.5571
 3120TIP3   OH230774   1.618   5.894   1.066  0.1243  0.1449  0.1410
 3120TIP3    H130775   1.675   5.818   1.053  0.9972  0.5660  1.3859
 3120TIP3    H230776   1.667   5.952   1.124 -0.4377  1.7671 -0.9184
 3121TIP3   OH230777   5.327   1.377   3.336  0.3191  0.1289 -0.4808
 3121TIP3    H130778   5.344   1.422   3.419  0.1957  3.4911 -2.1216
 3121TIP3    H230779   5.380   1.297   3.341  1.6628  1.0620  2.1238
 3122TIP3   OH230780   2.208   3.321  14.638  0.1305 -0.2796  0.4710
 3122TIP3    H130781   2.183   3.377  14.712 -0.9116 -0.6147  0.3896
 3122TIP3    H230782   2.301   3.307  14.650  0.5284  1.8077  0.2604
 3123TIP3   OH230783   3.634   4.988  16.515 -0.7189 -0.1895 -0.0355
 3123TIP3    H130784   3.569   4.924  16.487  0.8391 -1.3193 -1.1888
 3123TIP3    H230785   3.627   5.059  16.452  0.5993 -1.2915 -1.4816
 3124TIP3   OH230786   3.355   4.983   0.076  0.2088  0.6429  0.3040
 3124TIP3    H130787   3.416   4.922   0.033 -0.4934  0.0658  0.1154
 3124TIP3    H230788   3.411   5.054   0.108  1.1838 -0.6020  1.4572
 3125TIP3   OH230789   0.724   5.154  13.263  0.2476 -0.0323  0.3767
 3125TIP3    H130790   0.770   5.071  13.247  1.2786  0.5011  0.5108
 3125TIP3    H230791   0.766   5.216  13.203 -1.8162 -0.0120 -1.1548
 3126TIP3   OH230792   2.651   2.003  15.842  0.1236 -0.3974 -0.5292
 3126TIP3    H130793   2.724   1.980  15.900 -0.1307 -0.6930 -0.3242
 3126TIP3    H230794   2.653   1.936  15.773 -0.5486 -0.9934  0.0073
 3127TIP3   OH230795   2.248   3.118  11.311  0.1906 -0.1243  0.0236
 3127TIP3    H130796   2.153   3.119  11.321  0.0003 -2.0282 -1.1166
 3127TIP3    H230797   2.266   3.043  11.255  2.3948  0.1195  0.2935
 3128TIP3   OH230798   0.699   3.136   1.779 -0.1795 -0.7157  0.4384
 3128TIP3    H130799   0.705   3.162   1.687 -1.0716 -0.8709  0.3297
 3128TIP3    H230800   0.605   3.131   1.797 -0.0172 -1.4482  1.1487
 3129TIP3   OH230801   1.774   2.023  14.536 -0.1414 -0.0450 -0.3014
 3129TIP3    H130802   1.727   2.025  14.619 -0.0111 -1.6858 -0.1509
 3129TIP3    H230803   1.840   1.954  14.547  1.0328  0.8970 -1.1738
 3130TIP3   OH230804   0.761   1.692   0.648  0.0330 -0.1966  0.0098
 3130TIP3    H130805   0.724   1.604   0.652  0.4335 -0.3136  1.8847
 3130TIP3    H230806   0.728   1.728   0.565  2.4560 -3.2014 -2.4725
 3131TIP3   OH230807   1.865   6.373   1.868  0.1274  0.2756 -0.3991
 3131TIP3    H130808   1.924   6.331   1.806 -0.0090  2.6743 -2.3173
 3131TIP3    H230809   1.778   6.342   1.843  0.2019  0.0437 -0.3760
 3132TIP3   OH230810   6.108   0.220  17.083 -0.1506  0.1048 -0.4977
 3132TIP3    H130811   6.166   0.228  17.007 -1.4137  2.4542 -1.3144
 3132TIP3    H230812   6.022   0.200  17.046 -1.5237  4.3502 -0.2133
 3133TIP3   OH230813   6.184   4.553  16.086 -0.6206  0.1893 -0.3574
 3133TIP3    H130814   6.239   4.515  16.017 -1.2078  0.9988 -1.2894
 3133TIP3    H230815   6.206   4.646  16.085 -0.4440  0.1743  0.7500
 3134TIP3   OH230816   1.393   3.002   0.367 -0.3459  0.3385  0.1740
 3134TIP3    H130817   1.341   2.942   0.420 -1.3097  1.5990  0.6984
 3134TIP3    H230818   1.478   2.959   0.358 -1.7283 -2.2580 -1.5719
 3135TIP3   OH230819   4.339   3.603  13.650 -0.8469  0.4065 -0.3799
 3135TIP3    H130820   4.432   3.625  13.646 -0.7663 -0.0519 -1.6896
 3135TIP3    H230821   4.298   3.678  13.694 -0.6098  3.3829 -4.6278
 3136TIP3   OH230822   3.104   5.000  12.030 -0.1885 -0.1076  0.2850
 3136TIP3    H130823   3.073   5.088  12.052  0.1680 -0.0766  0.6556
 3136TIP3    H230824   3.032   4.943  12.055 -1.0788  0.1993 -1.3879
 3137TIP3   OH230825   1.575   2.178  16.550 -0.5495  0.0373  0.2919
 3137TIP3    H130826   1.561   2.199  16.458  0.0157  0.1425  0.2256
 3137TIP3    H230827   1.661   2.137  16.552 -0.8526 -0.5936  0.6796
 3138TIP3   OH230828   0.163   5.918   4.471 -0.5332 -0.5717 -0.1916
 3138TIP3    H130829   0.150   5.912   4.566  0.0471  0.7774 -0.0099
 3138TIP3    H230830   0.257   5.905   4.459 -0.3377  0.9096 -0.4041
 3139TIP3   OH230831   5.426   1.856  16.035 -0.2651  0.4340 -0.4180
 3139TIP3    H130832   5.396   1.943  16.009  0.4908  0.7437 -0.2787
 3139TIP3    H230833   5.497   1.835  15.975 -0.6240 -0.2096 -0.6262
 3140TIP3   OH230834   3.088   6.001  13.422 -0.1474 -0.1971  0.4128
 3140TIP3    H130835   3.144   6.010  13.344 -0.9255 -1.5176 -0.3394
 3140TIP3    H230836   3.149   5.992  13.494  0.6222 -0.5198 -0.2597
 3141TIP3   OH230837   1.217   3.858  13.997 -0.4388  0.0817 -0.2938
 3141TIP3    H130838   1.237   3.943  13.958 -1.0683 -0.7308 -2.5611
 3141TIP3    H230839   1.221   3.797  13.924  0.5032 -1.9500  1.3776
 3142TIP3   OH230840   6.660   4.658  13.125 -0.3064 -0.0045 -0.5744
 3142TIP3    H130841   6.666   4.639  13.219  0.4760  0.5078 -0.5047
 3142TIP3    H230842   6.610   4.739  13.120 -0.4692 -0.1079 -0.6051
 3143TIP3   OH230843   5.760   3.446  14.062 -0.2188 -0.6030 -0.7845
 3143TIP3    H130844   5.718   3.365  14.090  2.2469 -1.7629 -0.0604
 3143TIP3    H230845   5.836   3.454  14.120  0.8002  1.0732 -2.2389
 3144TIP3   OH230846   4.039   4.275   0.764  0.0822  0.5071 -0.0311
 3144TIP3    H130847   4.044   4.180   0.756 -1.1111  0.2917  1.4801
 3144TIP3    H230848   4.092   4.307   0.691  0.4863 -1.3008 -0.5921
 3145TIP3   OH230849   1.521   4.184  12.566  0.0572  0.1363 -0.9710
 3145TIP3    H130850   1.462   4.179  12.641  2.5477  0.4600  1.1574
 3145TIP3    H230851   1.553   4.095  12.553 -0.0178  0.1634 -1.3757
 3146TIP3   OH230852   6.591   6.347  10.937  0.3400 -0.2762 -0.3512
 3146TIP3    H130853   6.533   6.423  10.936 -0.6136 -0.9000  1.6856
 3146TIP3    H230854   6.678   6.383  10.955 -0.5154  0.2853  3.7193
 3147TIP3   OH230855   0.466   5.277   4.955  0.5550  0.3372  0.3874
 3147TIP3    H130856   0.420   5.312   4.879  0.4097  0.1092  0.3689
 3147TIP3    H230857   0.513   5.200   4.921 -0.6492 -0.6178  0.8176
 3148TIP3   OH230858   0.511   4.804  12.644 -0.4936 -0.5341  0.3215
 3148TIP3    H130859   0.438   4.741  12.642 -1.3582  0.4453  0.1152
 3148TIP3    H230860   0.500   4.855  12.564  2.0373 -2.0882 -1.1576
 3149TIP3   OH230861   1.439   1.631   5.725  0.0592 -0.6381 -0.2947
 3149TIP3    H130862   1.524   1.675   5.730 -0.4531  0.5070 -1.0651
 3149TIP3    H230863   1.411   1.644   5.634 -1.2591 -0.3289  0.1281
 3150TIP3   OH230864   3.051   6.496  13.264  0.1285  0.2094  0.0192
 3150TIP3    H130865   3.015   6.444  13.335  1.0711 -0.7170 -0.1549
 3150TIP3    H230866   3.002   6.579  13.267 -0.8641 -0.3846  0.7866
 3151TIP3   OH230867   2.788   1.527   2.004  0.2700  0.1250 -0.2952
 3151TIP3    H130868   2.741   1.444   2.010 -0.1491  0.0386 -3.2338
 3151TIP3    H230869   2.719   1.592   1.991  0.6666  0.8375  1.0136
 3152TIP3   OH230870   6.213   5.546  14.426  0.0698 -0.1069 -0.1945
 3152TIP3    H130871   6.243   5.617  14.483 -1.5873 -0.7617  1.6061
 3152TIP3    H230872   6.229   5.466  14.477 -1.4367 -0.7179 -0.6289
 3153TIP3   OH230873   6.057   4.445  14.560  0.2077 -0.0485  0.3884
 3153TIP3    H130874   6.091   4.515  14.504  0.9380 -0.7661 -0.0754
 3153TIP3    H230875   6.029   4.490  14.640 -0.6501  0.9623 -0.4543
 3154TIP3   OH230876   6.608   0.109  11.329  0.1807 -1.1804  0.0402
 3154TIP3    H130877   6.525   0.153  11.350 -0.2034 -1.9312  0.1446
 3154TIP3    H230878   6.585   0.050  11.257  0.2022 -2.6962  1.2220
 3155TIP3   OH230879   6.262   5.711  16.142  0.0436 -0.2795  0.3381
 3155TIP3    H130880   6.243   5.660  16.063 -0.7460  0.6207 -0.0753
 3155TIP3    H230881   6.358   5.711  16.148  0.0685 -1.6326  0.2462
 3156TIP3   OH230882   2.610   5.361  13.167 -0.0552  0.7204  0.5744
 3156TIP3    H130883   2.631   5.273  13.197  0.6405  0.2230 -1.2300
 3156TIP3    H230884   2.636   5.362  13.075 -2.0717  2.1231 -0.0476
 3157TIP3   OH230885   3.552   1.200   5.572 -0.5335 -0.7308 -0.2736
 3157TIP3    H130886   3.637   1.226   5.536 -0.3396 -1.0829 -0.0801
 3157TIP3    H230887   3.574   1.134   5.638 -0.9310 -0.5358  0.0546
 3158TIP3   OH230888   3.759   4.260  17.092 -0.1198 -0.7498 -0.1908
 3158TIP3    H130889   3.679   4.208  17.097 -0.4843 -0.2094 -0.3069
 3158TIP3    H230890   3.760   4.309  17.174 -1.0528  0.8727 -1.1003
 3159TIP3   OH230891   5.158   6.215   3.649 -0.1863  0.0348 -0.6529
 3159TIP3    H130892   5.102   6.269   3.704 -0.9509 -0.6440 -0.7461
 3159TIP3    H230893   5.239   6.205   3.699 -0.5508  0.1259 -0.0401
 3160TIP3   OH230894   6.509   0.339   4.085 -0.6953  0.1478  0.0523
 3160TIP3    H130895   6.598   0.316   4.110  0.0106  1.4107 -1.2214
 3160TIP3    H230896   6.477   0.394   4.157 -0.6133 -0.6196  0.6925
 3161TIP3   OH230897   2.186   2.785  11.792  0.0263  0.4862 -0.3646
 3161TIP3    H130898   2.190   2.852  11.861 -1.4577 -0.0024  0.2367
 3161TIP3    H230899   2.202   2.702  11.838  0.8983  0.3299 -0.9384
 3162TIP3   OH230900   6.375   5.285  16.811 -0.0016 -0.1805  0.5673
 3162TIP3    H130901   6.447   5.328  16.857  0.5773 -2.4200  1.8770
 3162TIP3    H230902   6.412   5.258  16.727  0.2812 -0.1564  0.6839
 3163TIP3   OH230903   6.039   4.164   1.521  0.4069  0.6974 -0.2864
 3163TIP3    H130904   5.971   4.139   1.583 -0.4004  1.6053 -0.7829
 3163TIP3    H230905   6.076   4.245   1.557  0.8112  0.5272 -0.3206
 3164TIP3   OH230906   4.877   0.495   6.378  0.2920  0.1509  0.2383
 3164TIP3    H130907   4.815   0.560   6.345 -1.5277 -1.1270  1.0184
 3164TIP3    H230908   4.886   0.433   6.306 -0.9507 -0.7482  0.8276
 3165TIP3   OH230909   3.027   4.911   5.095  0.3636 -0.2717  0.2804
 3165TIP3    H130910   2.993   4.989   5.138  1.3128 -0.0585  0.6716
 3165TIP3    H230911   2.999   4.839   5.151  0.0182 -0.1541  0.2579
 3166TIP3   OH230912   0.526   0.232  16.660  0.2456 -0.0632  0.4529
 3166TIP3    H130913   0.580   0.179  16.719 -0.6155 -0.3094  1.0428
 3166TIP3    H230914   0.577   0.312  16.647  1.3016 -0.7837  0.0094
 3167TIP3   OH230915   2.882   1.653  14.054 -0.2302  0.4159  0.4258
 3167TIP3    H130916   2.889   1.559  14.066 -0.8553  0.1410 -1.1359
 3167TIP3    H230917   2.931   1.671  13.973 -0.7061  1.3180  0.3177
 3168TIP3   OH230918   2.183   2.555  12.791  0.0099 -0.4389  0.4767
 3168TIP3    H130919   2.145   2.643  12.796  0.4410 -0.2224  0.0750
 3168TIP3    H230920   2.271   2.566  12.828  0.3156 -0.5458 -0.2075
 3169TIP3   OH230921   1.080   5.030   5.452 -0.8824  0.4500 -0.1201
 3169TIP3    H130922   1.111   4.945   5.422 -1.4959  0.3066 -0.3711
 3169TIP3    H230923   1.159   5.081   5.469 -0.5185  0.2706 -1.2390
 3170TIP3   OH230924   3.089   4.386   2.958 -0.1305  0.6250 -0.5429
 3170TIP3    H130925   3.033   4.335   3.017 -0.6753  2.6120  0.7631
 3170TIP3    H230926   3.042   4.468   2.945  1.5948  1.6038 -0.9789
 3171TIP3   OH230927   6.457   3.954  16.979  0.2866  0.1606  0.7315
 3171TIP3    H130928   6.462   3.956  17.074 -1.9257  0.9746  0.8986
 3171TIP3    H230929   6.393   3.885  16.960  2.0487 -1.2805 -0.3075
 3172TIP3   OH230930   1.401   1.635  15.286 -0.4023  0.4329 -0.0695
 3172TIP3    H130931   1.472   1.690  15.319 -1.0721  0.2669  1.7958
 3172TIP3    H230932   1.347   1.617  15.363 -2.1321  0.0417 -1.3155
 3173TIP3   OH230933   4.078   2.212  15.169  0.2339  0.0135 -0.1814
 3173TIP3    H130934   4.114   2.162  15.095  1.4773 -0.9638  1.0450
 3173TIP3    H230935   4.011   2.268  15.129  1.0652 -0.2746 -2.0925
 3174TIP3   OH230936   3.254   2.028   6.098  0.0454  0.1787  0.2916
 3174TIP3    H130937   3.272   2.030   6.192 -0.3693  0.5162  0.3642
 3174TIP3    H230938   3.194   1.954   6.086  0.1477  0.0971  0.2838
 3175TIP3   OH230939   3.215   4.276   5.096  0.0708  0.1282  0.5417
 3175TIP3    H130940   3.120   4.281   5.084 -0.0520 -3.1894 -0.9890
 3175TIP3    H230941   3.226   4.224   5.176  0.7267  2.4167  2.0419
 3176TIP3   OH230942   1.101   0.195   1.321 -0.2914 -0.1239  0.1051
 3176TIP3    H130943   1.042   0.258   1.281 -0.4947 -1.2699 -1.5006
 3176TIP3    H230944   1.168   0.180   1.255  0.4622 -0.6479  0.9588
 3177TIP3   OH230945   1.307   4.185   0.736  0.4629 -0.7951 -0.7351
 3177TIP3    H130946   1.322   4.134   0.656  1.3840  1.3100 -1.9860
 3177TIP3    H230947   1.212   4.197   0.740  0.5055  0.5522 -2.5416
 3178TIP3   OH230948   2.433   1.844   0.408 -0.0420 -0.0010 -0.2624
 3178TIP3    H130949   2.469   1.759   0.382 -1.3118 -1.0154  1.0924
 3178TIP3    H230950   2.510   1.898   0.426  0.8325 -1.4859  0.6826
 3179TIP3   OH230951   3.482   3.891  16.359 -0.2043 -0.0320  0.3865
 3179TIP3    H130952   3.574   3.877  16.335 -0.1784  1.3274 -0.3861
 3179TIP3    H230953   3.478   3.865  16.451  0.8943 -0.3626  0.3651
 3180TIP3   OH230954   1.924   2.399  14.048 -0.0743 -0.0147 -0.3932
 3180TIP3    H130955   1.884   2.486  14.037  0.9106  0.3956 -0.8789
 3180TIP3    H230956   2.007   2.405  14.001  1.1202 -0.4623  1.5520
 3181TIP3   OH230957   4.134   1.999   0.551 -0.3344 -0.2756  0.0743
 3181TIP3    H130958   4.101   1.920   0.593 -1.4260 -0.6029 -1.2935
 3181TIP3    H230959   4.078   2.070   0.584  0.0163 -0.2303  0.5707
 3182TIP3   OH230960   1.878   2.433   1.672 -0.3332 -0.4652  0.3662
 3182TIP3    H130961   1.802   2.476   1.711 -0.7103 -2.3636  1.8680
 3182TIP3    H230962   1.927   2.504   1.631 -0.5421  1.5300  3.2595
 3183TIP3   OH230963   5.711   1.086  13.164 -0.3355 -0.1869  0.2653
 3183TIP3    H130964   5.700   1.073  13.258  0.1781 -0.0162  0.3508
 3183TIP3    H230965   5.800   1.119  13.155 -1.0404  1.7798 -0.0788
 3184TIP3   OH230966   0.913   6.335   3.023 -0.0546  0.2138 -0.4053
 3184TIP3    H130967   0.851   6.287   3.078 -1.4902  1.3308 -0.9625
 3184TIP3    H230968   0.984   6.274   3.007 -1.9790 -1.8867 -1.4361
 3185TIP3   OH230969   1.332   5.745   3.132 -0.3766 -0.5751  0.8258
 3185TIP3    H130970   1.313   5.816   3.071  0.9769 -0.8637  0.0187
 3185TIP3    H230971   1.253   5.737   3.186 -0.8650  0.9653  0.3800
 3186TIP3   OH230972   4.413   1.853   0.422 -0.3364 -0.4064 -0.4152
 3186TIP3    H130973   4.364   1.843   0.504 -0.4167 -1.3752 -0.5684
 3186TIP3    H230974   4.455   1.768   0.409 -0.1971 -0.2089 -1.3050
 3187TIP3   OH230975   2.949   2.290   2.218  0.0077  0.2381  0.3383
 3187TIP3    H130976   2.975   2.272   2.128 -1.2864 -1.9328  0.3459
 3187TIP3    H230977   2.857   2.262   2.223  0.3637 -0.7385  2.5969
 3188TIP3   OH230978   1.763   4.420   1.225  0.4479 -0.3569  0.0946
 3188TIP3    H130979   1.855   4.416   1.202  0.0877 -1.1920 -1.3039
 3188TIP3    H230980   1.734   4.506   1.193  0.6296 -0.2844  0.1238
 3189TIP3   OH230981   3.378   6.766   4.305 -0.3480  0.0228 -0.5918
 3189TIP3    H130982   3.435   6.842   4.313  0.5033 -0.6398 -0.2180
 3189TIP3    H230983   3.366   6.754   4.210 -1.2222  1.1411 -0.6357
 3190TIP3   OH230984   1.591   0.809  14.897  0.6094 -0.4333  0.0064
 3190TIP3    H130985   1.649   0.879  14.866 -0.2833  0.0210 -0.6894
 3190TIP3    H230986   1.504   0.833  14.863 -0.5497  0.3305  3.1888
 3191TIP3   OH230987   5.519   0.281   4.475  0.4264 -0.1412 -0.0901
 3191TIP3    H130988   5.574   0.250   4.403 -1.5224  1.2194 -2.3213
 3191TIP3    H230989   5.522   0.376   4.467 -0.5429 -0.0010  1.0858
 3192TIP3   OH230990   1.019   5.423  14.925 -0.1618  0.1141 -0.0996
 3192TIP3    H130991   1.023   5.337  14.883 -0.1638  0.0548  0.0204
 3192TIP3    H230992   1.005   5.484  14.853  0.2415  0.0554 -0.2260
 3193TIP3   OH230993   2.805   2.263   0.544 -0.0968  0.5380 -0.1428
 3193TIP3    H130994   2.727   2.308   0.576 -0.2927 -0.2995  0.5847
 3193TIP3    H230995   2.874   2.289   0.605  0.0629  0.8019 -0.4332
 3194TIP3   OH230996   2.756   4.175   3.434 -0.1043 -1.1198  0.4817
 3194TIP3    H130997   2.794   4.091   3.461 -1.0545 -1.3510  1.1766
 3194TIP3    H230998   2.735   4.163   3.342 -0.1111 -1.6076  0.5423
 3195TIP3   OH230999   2.822   5.526   0.265  0.1179  0.4839 -0.8098
 3195TIP3    H131000   2.891   5.578   0.222 -0.1570  0.8663 -0.7937
 3195TIP3    H231001   2.829   5.439   0.225  0.8971  0.3943 -0.4994
 3196TIP3   OH231002   0.972   2.776  16.451 -0.1522 -0.7835  0.2599
 3196TIP3    H131003   0.914   2.787  16.526  1.3551 -1.6438  1.6213
 3196TIP3    H231004   1.034   2.708  16.479  1.1099 -0.3582 -1.3658
 3197TIP3   OH231005   1.539   3.702  13.962  0.2883 -0.3705 -0.2417
 3197TIP3    H131006   1.507   3.704  14.052  2.0909 -0.6012  0.4445
 3197TIP3    H231007   1.625   3.660  13.968  1.3136  1.3634 -1.7727
 3198TIP3   OH231008   6.266   2.909  15.204 -0.7069 -0.4651 -1.1281
 3198TIP3    H131009   6.230   2.920  15.292 -0.4379 -0.7007 -0.9853
 3198TIP3    H231010   6.279   2.815  15.195 -0.5574 -0.4249 -1.3470
 3199TIP3   OH231011   6.204   5.626   2.849  0.2136  0.0342  0.0806
 3199TIP3    H131012   6.286   5.580   2.829  1.6348  1.1176  2.8538
 3199TIP3    H231013   6.136   5.572   2.809  2.1433 -1.7379 -1.0334
 3200TIP3   OH231014   5.379   4.912  16.138 -0.1362 -0.4980 -0.3437
 3200TIP3    H131015   5.379   4.816  16.135  0.7392 -0.5414  0.6008
 3200TIP3    H231016   5.344   4.933  16.224  1.5963 -0.0287  0.2837
 3201TIP3   OH231017   6.007   3.727   2.947 -0.2688 -0.4827  1.0001
 3201TIP3    H131018   6.088   3.717   2.897 -2.3747  0.0156 -2.8803
 3201TIP3    H231019   6.036   3.735   3.038  3.9378 -0.9952 -0.0841
 3202TIP3   OH231020   1.011   6.277  13.916  0.1520  0.2087 -0.2794
 3202TIP3    H131021   1.008   6.189  13.880  0.3840  0.6606 -1.4451
 3202TIP3    H231022   0.963   6.330  13.852  0.2571  0.9737  0.2678
 3203TIP3   OH231023   0.781   3.356  15.789 -0.3846  0.1999  0.5952
 3203TIP3    H131024   0.795   3.323  15.701 -1.6448  1.6666 -0.2106
 3203TIP3    H231025   0.868   3.378  15.821  0.4723 -3.1716  0.9848
 3204TIP3   OH231026   3.303   2.479   4.809  0.0432  0.4236 -0.6030
 3204TIP3    H131027   3.213   2.483   4.843  0.1774 -0.3564 -0.1226
 3204TIP3    H231028   3.301   2.406   4.748  0.2882  0.5730 -0.7883
 3205TIP3   OH231029   3.989   0.164   3.007  0.3122  0.3720  0.1003
 3205TIP3    H131030   3.950   0.104   2.944 -0.0286 -0.0570  0.7108
 3205TIP3    H231031   4.079   0.133   3.017  0.3204  0.3451 -0.0546
 3206TIP3   OH231032   6.218   0.405   3.180  0.2208  0.0844  0.4167
 3206TIP3    H131033   6.150   0.444   3.125 -0.1000  0.6206  1.1674
 3206TIP3    H231034   6.169   0.363   3.251  0.6453 -0.1504  0.5729
 3207TIP3   OH231035   4.876   3.354   0.520  0.0444 -0.1591  0.3106
 3207TIP3    H131036   4.930   3.403   0.583 -0.4766  1.3276 -0.3473
 3207TIP3    H231037   4.921   3.364   0.437  0.3357 -1.4974  0.2833
 3208TIP3   OH231038   4.424   5.898  10.784  0.2846 -0.1245  0.5398
 3208TIP3    H131039   4.408   5.925  10.694 -0.0350 -0.6454  0.4352
 3208TIP3    H231040   4.517   5.875  10.786  0.7746  1.6725  0.8246
 3209TIP3   OH231041   3.576   0.996   1.322 -0.0275 -0.4870 -0.2523
 3209TIP3    H131042   3.553   1.048   1.399 -1.1387  0.2552 -1.0642
 3209TIP3    H231043   3.540   1.044   1.248 -2.0882 -2.9175 -0.9845
 3210TIP3   OH231044   2.129   3.129  16.857  0.5890 -0.1924  0.4917
 3210TIP3    H131045   2.105   3.089  16.940  0.8348  0.1887  0.7477
 3210TIP3    H231046   2.051   3.121  16.803  0.1242  0.3837  1.0704
 3211TIP3   OH231047   1.037   6.720  11.567  0.1353 -0.3896  0.2712
 3211TIP3    H131048   0.953   6.719  11.523  0.7698 -1.2596 -0.9665
 3211TIP3    H231049   1.092   6.661  11.517  1.5541  0.3047  0.9311
 3212TIP3   OH231050   3.243   3.881   5.094 -0.2615  0.0643 -0.1385
 3212TIP3    H131051   3.304   3.924   5.034  2.0816 -0.6677  1.5630
 3212TIP3    H231052   3.216   3.801   5.048  0.6520  0.0398 -0.6480
 3213TIP3   OH231053   4.351   0.767   3.050 -0.3865 -0.0220  0.0275
 3213TIP3    H131054   4.323   0.772   3.141 -1.5000  0.5825 -0.3282
 3213TIP3    H231055   4.425   0.826   3.044 -0.2471 -0.1381  0.5586
 3214TIP3   OH231056   1.834   2.393   0.606 -0.3568  0.0742  0.0067
 3214TIP3    H131057   1.772   2.333   0.563  0.4488 -0.0941 -0.9419
 3214TIP3    H231058   1.796   2.407   0.693 -2.4774  1.0625 -0.9873
 3215TIP3   OH231059   3.738   5.367   2.230 -0.1406 -0.1637 -0.0299
 3215TIP3    H131060   3.788   5.439   2.192 -0.3311 -0.3815 -0.7058
 3215TIP3    H231061   3.720   5.395   2.320  0.8502  0.0797  0.1006
 3216TIP3   OH231062   2.021   1.540   1.939  0.6596  0.3745 -0.1314
 3216TIP3    H131063   2.097   1.594   1.963  1.1648  0.4181 -1.7165
 3216TIP3    H231064   2.058   1.468   1.889 -0.1284 -0.9110  1.0768
 3217TIP3   OH231065   2.596   0.529   2.391  0.1521  0.1507 -0.1092
 3217TIP3    H131066   2.610   0.472   2.467 -1.0254  0.1079  0.0910
 3217TIP3    H231067   2.655   0.495   2.324  0.6827 -0.2589  0.5544
 3218TIP3   OH231068   6.414   4.949  16.607  0.1377  0.1388 -0.4318
 3218TIP3    H131069   6.472   5.025  16.618 -0.2168  0.2970  0.4597
 3218TIP3    H231070   6.455   4.897  16.539  0.6172  0.9225 -0.7583
 3219TIP3   OH231071   4.624   4.534  11.428  0.1446 -0.3586  0.1583
 3219TIP3    H131072   4.628   4.495  11.516  0.5908 -2.1327 -0.6107
 3219TIP3    H231073   4.575   4.471  11.376  0.6088  0.2646 -1.0689
 3220TIP3   OH231074   1.031   2.750  13.755  0.0494 -0.0824  0.5287
 3220TIP3    H131075   1.109   2.749  13.700 -0.4542  0.5878 -0.2135
 3220TIP3    H231076   1.023   2.840  13.785 -0.7891  0.0157  0.0634
 3221TIP3   OH231077   1.521   4.536  17.061 -0.2922  0.0263 -0.4364
 3221TIP3    H131078   1.613   4.554  17.079  0.4625 -2.1785 -1.6724
 3221TIP3    H231079   1.505   4.573  16.975 -0.8197  1.0910  0.0995
 3222TIP3   OH231080   3.013   6.665  16.198  0.3133  0.3751 -0.0131
 3222TIP3    H131081   3.019   6.683  16.104  0.4078  2.1376  0.3108
 3222TIP3    H231082   3.035   6.747  16.240  1.9994 -0.8347  1.6194
 3223TIP3   OH231083   0.936   5.041  14.978  0.1739  0.3498 -0.3492
 3223TIP3    H131084   0.979   5.099  14.916 -1.7023  1.3195 -0.8220
 3223TIP3    H231085   0.939   5.088  15.061  1.9276 -0.5726  0.1608
 3224TIP3   OH231086   3.256   5.136  15.032 -0.9411  0.0602  0.3510
 3224TIP3    H131087   3.183   5.169  15.084 -1.1268  0.8438 -0.3874
 3224TIP3    H231088   3.319   5.208  15.031  1.5955 -1.7917  4.0430
 3225TIP3   OH231089   5.848   4.991   4.122 -0.6375  0.0370  0.2127
 3225TIP3    H131090   5.829   4.984   4.215  1.2222  1.7239  0.7936
 3225TIP3    H231091   5.789   5.060   4.090  0.5837  1.4198  0.8084
 3226TIP3   OH231092   3.121   5.541  16.775  0.1605 -0.0839  0.0958
 3226TIP3    H131093   3.135   5.632  16.748 -1.4159  0.0903 -0.2434
 3226TIP3    H231094   3.029   5.524  16.752  0.6588 -2.0263 -0.6056
 3227TIP3   OH231095   6.382   4.828  15.594  0.0200  0.0273  0.4703
 3227TIP3    H131096   6.400   4.905  15.648  1.3421  1.2627 -1.5631
 3227TIP3    H231097   6.464   4.814  15.545 -0.9918 -1.1823 -0.9632
 3228TIP3   OH231098   1.236   1.570   4.859  0.2856  0.4906 -0.9289
 3228TIP3    H131099   1.143   1.577   4.883  0.2627 -0.4859 -0.6642
 3228TIP3    H231100   1.275   1.522   4.931  0.8392  0.1937 -1.4212
 3229TIP3   OH231101   5.778   4.871  14.166 -0.3130 -0.3285 -0.2658
 3229TIP3    H131102   5.702   4.929  14.165  0.7453  1.1986  1.7833
 3229TIP3    H231103   5.836   4.907  14.099  0.0114  0.5378  0.4706
 3230TIP3   OH231104   1.215   2.014  13.708  0.1946  0.2227  0.2210
 3230TIP3    H131105   1.258   1.937  13.671  0.7155  1.1331 -1.1247
 3230TIP3    H231106   1.123   2.004  13.684  0.0336 -0.5501  1.0835
 3231TIP3   OH231107   0.193   5.621  12.732 -0.6620 -0.3232 -0.5840
 3231TIP3    H131108   0.144   5.540  12.745 -1.6798  0.2531 -0.7119
 3231TIP3    H231109   0.241   5.634  12.813 -1.0611 -0.6878 -0.2854
 3232TIP3   OH231110   2.936   5.345   2.443 -0.2183  0.7760  0.1962
 3232TIP3    H131111   2.857   5.291   2.449  0.4849 -0.8057 -2.8403
 3232TIP3    H231112   2.964   5.357   2.534  0.1560 -4.9436  1.1989
 3233TIP3   OH231113   5.032   2.680   2.492 -0.3789  0.4962  0.0996
 3233TIP3    H131114   5.092   2.617   2.532 -0.7750  0.7346  1.0827
 3233TIP3    H231115   5.058   2.682   2.400 -0.9684 -1.8026 -0.1829
 3234TIP3   OH231116   1.769   4.643   5.836  0.3868  0.4182 -0.1135
 3234TIP3    H131117   1.751   4.687   5.919 -2.6625 -2.5020  0.9920
 3234TIP3    H231118   1.840   4.582   5.857 -0.1303 -0.0595  0.2643
 3235TIP3   OH231119   1.727   4.661   0.873  0.1658  0.6359 -0.2749
 3235TIP3    H131120   1.779   4.685   0.796  1.4623 -0.0961  0.3345
 3235TIP3    H231121   1.790   4.662   0.945 -0.8919  0.6909  0.6722
 3236TIP3   OH231122   2.242   2.063  12.627  0.4558  0.5912  0.4653
 3236TIP3    H131123   2.212   2.148  12.595  1.1755  0.7864  0.2864
 3236TIP3    H231124   2.236   2.069  12.722  1.2394  1.1356  0.4934
 3237TIP3   OH231125   0.201   1.188  16.845 -0.0311  0.1826  0.3709
 3237TIP3    H131126   0.148   1.113  16.870  0.4301 -0.0411  0.6824
 3237TIP3    H231127   0.141   1.262  16.849 -0.5132 -0.1842 -0.0473
 3238TIP3   OH231128   1.193   5.980  16.160 -0.1455  0.1392 -0.4523
 3238TIP3    H131129   1.189   6.073  16.138  1.0642  0.1843 -0.5616
 3238TIP3    H231130   1.108   5.961  16.200 -0.3902  1.3032 -0.3852
 3239TIP3   OH231131   4.021   0.686  13.571 -0.4151 -0.5125  0.7305
 3239TIP3    H131132   4.112   0.685  13.602  0.0475  0.0269 -0.5213
 3239TIP3    H231133   3.976   0.747  13.630  0.3545  0.2257  0.5847
 3240TIP3   OH231134   5.357   5.438  12.926  0.0368 -0.7452 -0.5732
 3240TIP3    H131135   5.344   5.368  12.863  0.0788 -0.9332 -0.3750
 3240TIP3    H231136   5.297   5.507  12.899 -0.0018 -0.8570 -0.7714
 3241TIP3   OH231137   1.205   0.428   4.776 -0.1919 -0.0445 -0.2488
 3241TIP3    H131138   1.286   0.466   4.740 -0.4091 -0.1573 -0.8552
 3241TIP3    H231139   1.148   0.416   4.701 -0.3682 -0.9981  0.0256
 3242TIP3   OH231140   0.242   1.076  11.436  0.1440 -0.2151 -0.1248
 3242TIP3    H131141   0.224   1.046  11.525  1.0140 -1.0442 -0.2058
 3242TIP3    H231142   0.180   1.028  11.381 -1.4271  1.4077  0.1434
 3243TIP3   OH231143   4.608   3.563  12.758 -0.7322  0.0991  0.3041
 3243TIP3    H131144   4.630   3.531  12.846 -2.3253 -0.2698  0.6152
 3243TIP3    H231145   4.532   3.620  12.773 -0.5389  0.6389 -0.7494
 3244TIP3   OH231146   0.041   5.239  13.330 -0.1249  0.1227  0.0568
 3244TIP3    H131147  -0.025   5.235  13.400 -1.7712  1.8605 -1.2704
 3244TIP3    H231148   0.124   5.227  13.375 -1.3188 -2.8858  1.7344
 3245TIP3   OH231149   0.132   6.193   4.722 -0.4175 -0.2184  0.1994
 3245TIP3    H131150   0.163   6.261   4.781  1.0128 -0.1473 -0.6030
 3245TIP3    H231151   0.198   6.188   4.653 -0.5450 -2.3161  0.1562
 3246TIP3   OH231152   2.353   1.510   3.641  0.3929  0.0968  0.0065
 3246TIP3    H131153   2.366   1.595   3.598  1.3258  0.4579  0.9663
 3246TIP3    H231154   2.316   1.532   3.727 -1.5788 -0.6258 -0.5945
 3247TIP3   OH231155   1.465   1.503   3.756 -0.0082 -0.2584 -0.0258
 3247TIP3    H131156   1.434   1.424   3.713 -0.3212 -0.7251  1.0307
 3247TIP3    H231157   1.549   1.522   3.713 -0.6447 -0.2832 -1.3255
 3248TIP3   OH231158   1.565   3.303   0.852 -0.1627 -0.0975 -0.2091
 3248TIP3    H131159   1.482   3.343   0.826 -0.5788 -0.3261  0.7334
 3248TIP3    H231160   1.626   3.328   0.783 -1.5074 -1.7111 -2.1198
 3249TIP3   OH231161   4.788   2.664   0.279  0.0135 -0.3425 -0.1822
 3249TIP3    H131162   4.813   2.754   0.299  0.0758  0.1984 -2.4370
 3249TIP3    H231163   4.851   2.610   0.327  0.2263  0.8005  0.8742
 3250TIP3   OH231164   1.838   6.566   4.588  0.4620 -0.2834  0.3917
 3250TIP3    H131165   1.930   6.587   4.574  0.8334 -2.5852 -1.1497
 3250TIP3    H231166   1.835   6.470   4.591 -1.6825 -0.2354  2.0538
 3251TIP3   OH231167   4.131   0.225   0.517  0.2937 -0.3603 -0.3237
 3251TIP3    H131168   4.098   0.157   0.458 -1.5746  0.3781 -0.1883
 3251TIP3    H231169   4.062   0.291   0.519  2.1327  1.7008 -0.6373
 3252TIP3   OH231170   0.567   1.770  14.845 -0.2492  0.5498  0.1310
 3252TIP3    H131171   0.524   1.750  14.761 -0.2180 -0.7059  0.4017
 3252TIP3    H231172   0.528   1.853  14.872 -0.5506  0.7716 -0.9350
 3253TIP3   OH231173   5.585   5.057   5.013 -0.5287  0.2108  0.4576
 3253TIP3    H131174   5.662   5.066   4.957 -0.9623  1.6238  0.0630
 3253TIP3    H231175   5.576   4.963   5.027 -1.1347 -0.3217 -2.8786
 3254TIP3   OH231176   5.977   4.996  12.690  0.2464  0.3496  0.4936
 3254TIP3    H131177   5.903   4.957  12.737  0.5925 -0.2897  0.5180
 3254TIP3    H231178   5.954   5.089  12.682 -1.7808 -0.2307 -1.7565
 3255TIP3   OH231179   0.821   2.570   1.777 -0.0621 -0.4158  0.0774
 3255TIP3    H131180   0.850   2.493   1.728 -0.2544 -1.1472  1.0787
 3255TIP3    H231181   0.725   2.568   1.770 -0.0915 -0.5394  0.4977
 3256TIP3   OH231182   1.244   1.559   2.724 -0.6744  0.0494 -0.3210
 3256TIP3    H131183   1.287   1.519   2.649  1.8396  0.9056  0.5710
 3256TIP3    H231184   1.210   1.642   2.691  0.4938  0.4602 -0.5323
 3257TIP3   OH231185   4.978   4.745   0.356 -0.3490  0.4449 -0.0511
 3257TIP3    H131186   4.996   4.839   0.349 -0.4464  0.4234 -0.6257
 3257TIP3    H231187   5.037   4.705   0.291  0.1617  0.0497  0.6407
 3258TIP3   OH231188   5.285   4.816   2.671  0.3242 -0.5091 -0.0722
 3258TIP3    H131189   5.238   4.740   2.706  0.1142 -0.9257 -1.2264
 3258TIP3    H231190   5.278   4.882   2.741  2.3014 -2.1711  1.8388
 3259TIP3   OH231191   3.325   1.250  10.793  0.4117  1.0613 -0.0942
 3259TIP3    H131192   3.292   1.307  10.724 -2.6126  1.6059  1.5780
 3259TIP3    H231193   3.280   1.166  10.779  1.4208  0.4972 -0.0204
 3260TIP3   OH231194   0.424   0.652   4.167  0.2741  0.9423 -0.1940
 3260TIP3    H131195   0.415   0.748   4.166  3.4045  1.3695  0.8913
 3260TIP3    H231196   0.446   0.631   4.258  0.3950 -0.7311 -0.5820
 3261TIP3   OH231197   0.336   6.336   0.300  0.5856 -0.0281 -0.2733
 3261TIP3    H131198   0.397   6.402   0.333  1.0831 -1.4160  1.7616
 3261TIP3    H231199   0.256   6.350   0.351  0.9357 -1.3880  0.7242
 3262TIP3   OH231200   4.178   4.401   4.386 -0.1840 -0.6871 -0.3646
 3262TIP3    H131201   4.241   4.453   4.435 -0.4704 -1.5409  0.9611
 3262TIP3    H231202   4.207   4.407   4.295  1.3614 -0.4584  0.1238
 3263TIP3   OH231203   6.445   6.092   2.708  0.0131  0.3826  0.3374
 3263TIP3    H131204   6.375   6.143   2.667 -0.5820 -0.9098 -0.2974
 3263TIP3    H231205   6.448   6.011   2.658  1.1699 -0.0815  1.1198
 3264TIP3   OH231206   2.762   3.917   3.622  0.5052 -0.0392 -0.4357
 3264TIP3    H131207   2.757   4.010   3.641 -0.8992  0.2511 -1.9434
 3264TIP3    H231208   2.701   3.876   3.683 -0.0336  0.2335 -0.7830
 3265TIP3   OH231209   5.027   4.595  15.710  0.5567 -0.7143 -0.0496
 3265TIP3    H131210   5.015   4.522  15.650  0.1915  0.3042 -1.2484
 3265TIP3    H231211   4.984   4.669  15.668  3.1348  0.8540 -0.1655
 3266TIP3   OH231212   1.029   5.071   2.690  0.2550 -0.1710  0.1402
 3266TIP3    H131213   1.028   4.976   2.675 -4.3142 -0.0115 -2.3104
 3266TIP3    H231214   1.015   5.080   2.784  0.2005 -1.9198  0.3405
 3267TIP3   OH231215   2.717   4.316  16.012 -0.1694  0.2076  0.4315
 3267TIP3    H131216   2.784   4.253  15.987  0.2377  1.2341 -1.2619
 3267TIP3    H231217   2.664   4.327  15.933 -2.1389 -0.2769  1.5964
 3268TIP3   OH231218   6.257   3.785  16.906 -0.4749 -0.1426 -0.5016
 3268TIP3    H131219   6.227   3.873  16.884 -2.5751 -0.6381  0.0632
 3268TIP3    H231220   6.249   3.736  16.824  0.4980  0.1181 -0.7651
 3269TIP3   OH231221   6.714   0.036   3.310 -0.6420  0.6375  0.3591
 3269TIP3    H131222   6.694   0.110   3.368  0.1749  0.4550  0.8997
 3269TIP3    H231223   6.760   0.075   3.236 -0.8350  0.7502  0.2968
 3270TIP3   OH231224   1.179   0.054  15.970  0.5825 -0.9761 -0.1458
 3270TIP3    H131225   1.227   0.100  15.901 -0.1090  0.1651  0.0983
 3270TIP3    H231226   1.089   0.085  15.961  0.5386 -0.5439  1.4530
 3271TIP3   OH231227   3.289   5.409   6.012  0.7561  0.8075 -0.1331
 3271TIP3    H131228   3.292   5.341   5.945  1.4554 -0.6333  1.2966
 3271TIP3    H231229   3.378   5.413   6.046  0.1828  0.6690  1.4730
 3272TIP3   OH231230   1.015   3.774   1.945 -0.2169  0.2951  0.0307
 3272TIP3    H131231   0.954   3.740   2.011  1.8214  0.2536  2.0072
 3272TIP3    H231232   1.084   3.708   1.941  0.3823  0.9666 -1.1961
 3273TIP3   OH231233   0.013   1.916   3.571  0.4743  0.1102  0.5785
 3273TIP3    H131234  -0.038   1.993   3.596 -2.7291 -1.8784  0.7328
 3273TIP3    H231235  -0.008   1.850   3.638  3.8876 -0.6953  1.0355
 3274TIP3   OH231236   0.475   1.899  13.822 -0.3642 -0.3183 -0.3404
 3274TIP3    H131237   0.486   1.896  13.917  0.7561  0.9442 -0.4053
 3274TIP3    H231238   0.532   1.971  13.793 -0.0042 -1.2393 -2.0652
 3275TIP3   OH231239   1.984   0.327   2.785  0.3770  0.2346  0.0012
 3275TIP3    H131240   1.917   0.353   2.721  2.2809  1.2838 -1.6994
 3275TIP3    H231241   1.939   0.326   2.869 -2.0667 -0.4276 -1.2456
 3276TIP3   OH231242   2.183   5.914  12.845  0.4233  0.5561 -0.5478
 3276TIP3    H131243   2.200   5.876  12.758  0.5689  0.4755 -0.4850
 3276TIP3    H231244   2.197   5.842  12.905  3.5738  1.3306 -0.1558
 3277TIP3   OH231245   2.476   4.035   5.412  0.6158 -0.3201  0.0223
 3277TIP3    H131246   2.479   3.942   5.433  0.4952  0.1152  2.2006
 3277TIP3    H231247   2.404   4.070   5.464  0.1188  0.8649 -1.3970
 3278TIP3   OH231248   5.130   5.649   1.688  0.1784  0.0402 -0.0354
 3278TIP3    H131249   5.090   5.720   1.638 -0.3518 -0.6341 -0.6011
 3278TIP3    H231250   5.067   5.629   1.757  0.0581 -0.2574 -0.2280
 3279TIP3   OH231251   5.625   3.189   5.900 -0.4337 -0.1200  0.2205
 3279TIP3    H131252   5.660   3.173   5.988 -0.0339  0.6016  0.1970
 3279TIP3    H231253   5.559   3.120   5.888  0.3335 -0.9387  0.6226
 3280TIP3   OH231254   1.974   3.360   2.258  0.0242  0.3469 -0.0198
 3280TIP3    H131255   1.972   3.339   2.351 -0.6679  2.9997  0.6653
 3280TIP3    H231256   1.902   3.422   2.247  1.2090  1.4661 -1.9400
 3281TIP3   OH231257   2.082   3.021   6.589 -0.5891  0.5942  0.0250
 3281TIP3    H131258   2.061   2.961   6.660  0.3825  0.2205  0.0143
 3281TIP3    H231259   2.040   3.104   6.615 -2.6810 -0.2850 -0.3906
 3282TIP3   OH231260   0.981   2.639   4.586  0.0238  0.4033 -0.2699
 3282TIP3    H131261   0.921   2.592   4.528  2.1495  0.1199 -2.3896
 3282TIP3    H231262   1.042   2.572   4.616 -0.0491  0.8768  0.9900
 3283TIP3   OH231263   5.379   6.614   2.404 -0.2172  0.6634  0.0031
 3283TIP3    H131264   5.297   6.591   2.448  1.0099 -0.6361  1.7263
 3283TIP3    H231265   5.429   6.663   2.469  0.2949  1.6793 -1.1100
 3284TIP3   OH231266   2.413   3.656   6.463  0.1591  0.0041  0.4891
 3284TIP3    H131267   2.448   3.732   6.511 -0.5547  0.1832  0.7448
 3284TIP3    H231268   2.416   3.584   6.527  1.6068 -0.4085 -0.0050
 3285TIP3   OH231269   5.319   5.136   4.984 -0.0262 -0.6577  0.8236
 3285TIP3    H131270   5.413   5.117   4.981  0.0117 -0.4886 -2.2249
 3285TIP3    H231271   5.313   5.231   4.989 -0.0822 -0.7108  2.0492
 3286TIP3   OH231272   6.623   3.877   0.505  0.1484  0.0140  0.1647
 3286TIP3    H131273   6.690   3.854   0.570 -0.0566  0.1119  0.4109
 3286TIP3    H231274   6.636   3.814   0.434  1.1170  0.6319 -0.2144
 3287TIP3   OH231275   2.227   5.849   1.836  0.6824 -0.0476  0.0205
 3287TIP3    H131276   2.229   5.824   1.928  1.2194  1.9983  0.6121
 3287TIP3    H231277   2.135   5.844   1.811  0.3608  0.6083  1.0362
 3288TIP3   OH231278   1.411   4.581   5.009  0.8532 -0.3976  0.0327
 3288TIP3    H131279   1.367   4.665   5.022 -1.0020 -1.3835  0.4697
 3288TIP3    H231280   1.405   4.565   4.915  0.8565 -0.2185  0.0022
 3289TIP3   OH231281   0.713   3.247   0.059 -0.7041 -0.5334  0.0823
 3289TIP3    H131282   0.655   3.308   0.106  0.1021 -1.1236  1.9380
 3289TIP3    H231283   0.653   3.186   0.016 -1.4965 -0.7763  1.4671
 3290TIP3   OH231284   4.683   2.685  11.722 -1.0044  0.0892 -0.0045
 3290TIP3    H131285   4.703   2.660  11.812  1.0329 -2.3816 -1.0423
 3290TIP3    H231286   4.761   2.732  11.692 -0.3356 -1.7800 -1.3590
 3291TIP3   OH231287   3.021   5.515   6.022 -0.0144  0.7334  0.2024
 3291TIP3    H131288   3.004   5.510   5.928 -0.8256 -0.3959  0.3809
 3291TIP3    H231289   3.108   5.477   6.034  0.5385  1.8277 -0.1804
 3292TIP3   OH231290   6.034   5.818  14.270 -0.0697 -0.0039 -0.3364
 3292TIP3    H131291   6.079   5.898  14.243 -0.5896  0.0775 -0.9779
 3292TIP3    H231292   6.037   5.762  14.193 -0.3250 -0.3268 -0.1127
 3293TIP3   OH231293   3.175   1.678   0.300  0.6042  0.2508  0.0940
 3293TIP3    H131294   3.183   1.666   0.205 -0.6711 -1.4077  0.1463
 3293TIP3    H231295   3.093   1.725   0.311 -0.3850 -1.4466  0.4123
 3294TIP3   OH231296   1.813   6.234  13.064 -0.2829  0.4174 -0.4062
 3294TIP3    H131297   1.755   6.293  13.112  0.1000  0.3333  0.1706
 3294TIP3    H231298   1.778   6.233  12.974 -1.4455  0.0051  0.0271
 3295TIP3   OH231299   6.324   4.936  12.144  0.3516  0.1756  0.1727
 3295TIP3    H131300   6.278   4.879  12.083  0.0755 -0.4779  0.9676
 3295TIP3    H231301   6.257   4.963  12.207  0.4830  1.3743 -0.1692
 3296TIP3   OH231302   6.025   2.222   1.860  0.1233 -0.1686  0.3468
 3296TIP3    H131303   6.087   2.293   1.848 -2.2002  1.6737 -1.6333
 3296TIP3    H231304   6.041   2.163   1.786 -0.3010  0.1754 -0.0224
 3297TIP3   OH231305   5.478   6.295  15.808  0.5869  0.6690  0.0110
 3297TIP3    H131306   5.485   6.209  15.848 -0.8678  1.3607  1.9169
 3297TIP3    H231307   5.488   6.357  15.881  1.4759  2.1239 -1.2812
 3298TIP3   OH231308   0.718   2.526  16.124 -0.6573 -0.1555  0.2525
 3298TIP3    H131309   0.737   2.434  16.141  5.9505  0.9798  1.8880
 3298TIP3    H231310   0.658   2.551  16.195  0.1147 -2.5386  1.8783
 3299TIP3   OH231311   5.765   3.153   2.969 -0.2597 -0.3822  0.0945
 3299TIP3    H131312   5.732   3.227   2.917 -0.1911 -0.9413 -0.7590
 3299TIP3    H231313   5.704   3.082   2.952  2.0051 -1.8877 -2.6319
 3300TIP3   OH231314   5.649   2.562   6.857 -0.0950  0.0730  0.6747
 3300TIP3    H131315   5.699   2.593   6.934 -2.3002  0.1054  2.1864
 3300TIP3    H231316   5.610   2.642   6.821  1.3023  0.1249 -0.8566
 3301TIP3   OH231317   1.700   2.351  14.668 -0.2020 -0.2146 -0.5783
 3301TIP3    H131318   1.794   2.354  14.652 -0.2768 -3.0731 -2.2302
 3301TIP3    H231319   1.660   2.348  14.580 -1.7858  0.3298  0.0833
 3302TIP3   OH231320   6.090   6.021   5.834 -0.0513  0.0311  0.0085
 3302TIP3    H131321   6.089   5.967   5.912 -0.2962 -2.1308 -1.4077
 3302TIP3    H231322   6.003   6.061   5.831 -0.5263 -0.9829  0.1111
 3303TIP3   OH231323   0.665   2.989  13.025  0.5249  0.2337 -0.3084
 3303TIP3    H131324   0.745   3.020  13.068  0.5802 -1.8648  1.2503
 3303TIP3    H231325   0.684   2.899  13.001 -0.8274  0.2197 -1.4340
 3304TIP3   OH231326   2.239   4.338   1.603 -0.3885 -0.2974 -0.2593
 3304TIP3    H131327   2.296   4.343   1.526 -0.9313 -0.5136 -0.6843
 3304TIP3    H231328   2.150   4.347   1.567 -0.6225 -0.0154  0.3850
 3305TIP3   OH231329   1.061   5.846  12.273  0.7526  0.2086  0.5558
 3305TIP3    H131330   1.050   5.905  12.348  0.0789  0.3995  0.3086
 3305TIP3    H231331   0.985   5.863  12.217 -0.5405 -2.2485  1.4127
 3306TIP3   OH231332   1.651   0.803  11.957  0.1507  0.0520 -0.0403
 3306TIP3    H131333   1.698   0.877  11.996  0.0273 -0.2586  0.7305
 3306TIP3    H231334   1.570   0.840  11.925  0.9744  0.6292 -1.5378
 3307TIP3   OH231335   4.176   3.124  16.251 -0.0565 -0.0697  0.4442
 3307TIP3    H131336   4.130   3.042  16.232  0.8551 -0.4786 -0.0772
 3307TIP3    H231337   4.265   3.110  16.217  0.0619  1.2020  0.1925
 3308TIP3   OH231338   2.331   6.488   4.364  0.2232 -0.2899  0.3323
 3308TIP3    H131339   2.426   6.499   4.376  0.3895 -0.9888 -0.2763
 3308TIP3    H231340   2.307   6.556   4.302  0.5214 -0.7592 -0.3112
 3309TIP3   OH231341   2.775   1.933   1.827  0.3129 -0.3161 -0.2650
 3309TIP3    H131342   2.723   1.855   1.813  2.6865 -1.8487 -1.2387
 3309TIP3    H231343   2.857   1.901   1.866  0.3161  2.0293  1.8878
 3310TIP3   OH231344   1.333   3.169  13.934 -0.4857  0.2356  0.2770
 3310TIP3    H131345   1.265   3.233  13.910  1.4502  1.8743 -1.1835
 3310TIP3    H231346   1.415   3.216  13.920  1.0385 -2.5337 -0.7383
 3311TIP3   OH231347   6.670   1.746   1.367 -0.5907 -0.4700  0.2228
 3311TIP3    H131348   6.655   1.806   1.294  1.8068  0.3165  0.2934
 3311TIP3    H231349   6.601   1.766   1.430 -2.5998 -1.0447 -1.6917
 3312TIP3   OH231350   5.242   3.056   6.227 -0.3228  0.4915 -0.1638
 3312TIP3    H131351   5.306   2.993   6.193 -1.3192  0.3925 -1.9923
 3312TIP3    H231352   5.174   3.002   6.268  0.2421  0.5449  0.8621
 3313TIP3   OH231353   0.549   0.521   0.554 -0.2432 -0.7170  0.5049
 3313TIP3    H131354   0.512   0.601   0.517  3.1354  1.4148  1.2473
 3313TIP3    H231355   0.510   0.514   0.640  1.0806  1.6692  1.4257
 3314TIP3   OH231356   4.409   2.821  13.557  0.6237  0.3844  0.2518
 3314TIP3    H131357   4.461   2.757  13.509 -3.1070 -1.2616 -2.0504
 3314TIP3    H231358   4.371   2.773  13.630  2.2636  1.5897  1.9902
 3315TIP3   OH231359   6.002   3.694   1.837 -0.3861 -0.2790  0.1841
 3315TIP3    H131360   5.941   3.699   1.912  0.7929 -0.3762  1.1802
 3315TIP3    H231361   6.063   3.625   1.861  0.2135 -0.0766 -0.7393
 3316TIP3   OH231362   4.028   4.095   5.699 -0.3255 -0.2695  0.3200
 3316TIP3    H131363   4.023   4.140   5.783 -0.6753 -0.2392  0.2867
 3316TIP3    H231364   4.012   4.164   5.634  0.2434 -0.2373  0.2123
 3317TIP3   OH231365   2.960   0.504  12.052 -0.4306 -0.2379 -0.4201
 3317TIP3    H131366   3.030   0.443  12.076  0.1107  0.5688  0.1083
 3317TIP3    H231367   2.896   0.450  12.006  0.0629 -1.1904 -0.0197
 3318TIP3   OH231368   2.451   6.292  16.698  0.3671 -0.1078 -0.4429
 3318TIP3    H131369   2.447   6.357  16.627  0.1137 -0.1755 -0.4900
 3318TIP3    H231370   2.485   6.213  16.656 -0.1850 -0.2754 -0.5881
 3319TIP3   OH231371   3.958   5.983  11.974 -0.5272 -0.7273 -0.5020
 3319TIP3    H131372   3.964   5.888  11.989  0.4262 -0.4158  1.3948
 3319TIP3    H231373   4.027   6.020  12.028 -0.8228  1.0699 -1.2984
 3320TIP3   OH231374   2.308   1.947   1.672  0.4998  0.1215  0.2313
 3320TIP3    H131375   2.214   1.943   1.692  0.2964 -0.9826 -0.8672
 3320TIP3    H231376   2.343   1.863   1.702  0.8847 -0.0187 -0.5803
 3321TIP3   OH231377   1.606   0.402   2.221  0.5327 -0.4118 -0.2725
 3321TIP3    H131378   1.600   0.413   2.316  1.4404 -0.0624 -0.2427
 3321TIP3    H231379   1.614   0.491   2.187  0.7950 -0.5663 -0.6239
 3322TIP3   OH231380   6.646   1.143   4.973  0.2951 -0.2634  0.8010
 3322TIP3    H131381   6.722   1.186   4.935 -0.4622  2.0371  1.7499
 3322TIP3    H231382   6.672   1.124   5.064 -0.2031  0.3931  1.0842
 3323TIP3   OH231383   3.948   0.269  11.770 -0.5457  0.0629  0.2980
 3323TIP3    H131384   4.020   0.321  11.806 -1.4046  1.4595  0.1002
 3323TIP3    H231385   3.913   0.220  11.844  0.9071 -1.0492  0.2971
 3324TIP3   OH231386   1.819   0.455  16.784  0.5326 -0.1757 -0.8142
 3324TIP3    H131387   1.839   0.377  16.835  2.1876  0.3314 -0.6314
 3324TIP3    H231388   1.733   0.437  16.746 -0.3398 -0.9681  1.3503
 3325TIP3   OH231389   2.395   3.598  16.002 -0.0857 -0.3064 -0.4389
 3325TIP3    H131390   2.474   3.627  16.045  0.1660  0.2269 -1.2319
 3325TIP3    H231391   2.385   3.506  16.028  0.2614 -0.1027  0.4212
 3326TIP3   OH231392   4.008   4.006  13.727 -0.0697 -0.1244  0.2816
 3326TIP3    H131393   3.967   3.941  13.670 -2.3919  1.2203  0.2671
 3326TIP3    H231394   3.940   4.073  13.740  1.4993  1.2703  1.9548
 3327TIP3   OH231395   4.120   3.797  12.141  0.1442 -0.3950 -0.0825
 3327TIP3    H131396   4.167   3.766  12.219 -0.6034 -0.2295  0.4449
 3327TIP3    H231397   4.040   3.836  12.175 -1.9264 -3.3792 -1.1122
 3328TIP3   OH231398   5.199   1.614   0.531  0.1854 -0.2277  0.7772
 3328TIP3    H131399   5.281   1.565   0.533 -0.0300 -0.5671  1.2010
 3328TIP3    H231400   5.223   1.698   0.491  1.1447  0.4442  2.6803
 3329TIP3   OH231401   2.966   0.288  15.855  0.0668  0.0326  0.3935
 3329TIP3    H131402   2.941   0.290  15.947 -1.1758 -0.4058  0.0851
 3329TIP3    H231403   3.027   0.361  15.845 -0.3398  0.5246  1.4076
 3330TIP3   OH231404   1.635   1.848   1.208 -0.3284 -0.3388  0.1572
 3330TIP3    H131405   1.653   1.754   1.202  1.8153 -0.0763  1.3990
 3330TIP3    H231406   1.681   1.886   1.133  0.6703 -0.0950  0.8733
 3331TIP3   OH231407   3.340   2.884  12.851  0.2285 -0.0625  1.0858
 3331TIP3    H131408   3.265   2.827  12.832 -0.3280 -0.0060  2.9469
 3331TIP3    H231409   3.398   2.873  12.776 -2.7546  1.8906 -1.7919
 3332TIP3   OH231410   3.805   2.854   0.048  0.2198  0.2021  0.1599
 3332TIP3    H131411   3.714   2.885   0.055  0.4600  0.8160  0.6142
 3332TIP3    H231412   3.846   2.882   0.129  1.2388  1.3707 -0.7189
 3333TIP3   OH231413   0.211   5.070   5.980 -0.2959  0.2076 -0.0372
 3333TIP3    H131414   0.167   5.010   6.041  0.3866  0.8481  1.1223
 3333TIP3    H231415   0.140   5.123   5.944 -0.7279 -0.2606  0.1023
 3334TIP3   OH231416   4.222   5.002  15.209 -0.3745 -0.1984 -0.5243
 3334TIP3    H131417   4.269   4.920  15.223  0.4064  0.3462  0.1178
 3334TIP3    H231418   4.168   5.011  15.287 -1.3408 -0.6597 -1.1151
 3335TIP3   OH231419   3.474   0.389  15.287  0.2312 -0.3188  0.2544
 3335TIP3    H131420   3.473   0.459  15.221 -3.3341  0.2482  0.6783
 3335TIP3    H231421   3.490   0.435  15.370 -1.0751 -0.0693  0.4020
 3336TIP3   OH231422   4.035   5.933  16.011 -0.0052 -0.2748 -0.0274
 3336TIP3    H131423   4.030   5.869  15.940  2.3566  0.7317 -1.2163
 3336TIP3    H231424   4.065   6.013  15.969 -2.0135  1.4352  1.5728
 3337TIP3   OH231425   5.094   4.417  12.515 -0.7197  0.3961 -0.0917
 3337TIP3    H131426   5.111   4.386  12.426 -1.2299  0.4272 -0.2037
 3337TIP3    H231427   5.006   4.386  12.534 -1.6390  2.5614 -0.5623
 3338TIP3   OH231428   2.884   5.946  11.028  0.6175  0.9301  1.0132
 3338TIP3    H131429   2.840   5.952  10.943  2.4187 -1.4539 -0.2109
 3338TIP3    H231430   2.896   6.037  11.055 -0.6356  1.7454 -0.9389
 3339TIP3   OH231431   4.136   0.771  10.958 -0.6893  0.2083  0.8564
 3339TIP3    H131432   4.057   0.792  11.007 -0.5148  1.5730  0.5895
 3339TIP3    H231433   4.206   0.766  11.023 -0.3846  2.4006  0.7642
 3340TIP3   OH231434   6.124   4.865   1.489  0.4097  0.3777 -0.0937
 3340TIP3    H131435   6.153   4.923   1.560 -0.6897 -0.4483  1.0853
 3340TIP3    H231436   6.070   4.799   1.533  3.0133 -2.6349 -1.0743
 3341TIP3   OH231437   0.505   0.384  11.436  0.0261  0.2694  0.0061
 3341TIP3    H131438   0.500   0.293  11.405 -1.9654 -0.0360  1.0550
 3341TIP3    H231439   0.481   0.436  11.359 -1.3271 -0.2755  0.0215
 3342TIP3   OH231440   1.371   6.527  16.741  0.3257  0.2513 -0.2546
 3342TIP3    H131441   1.344   6.482  16.821  1.7233  1.2672  0.8380
 3342TIP3    H231442   1.414   6.459  16.689 -0.4571 -0.3824 -0.1092
 3343TIP3   OH231443   4.848   2.186   2.050 -0.3601 -0.2662  0.7739
 3343TIP3    H131444   4.878   2.114   2.106 -1.8834 -0.4677  1.3839
 3343TIP3    H231445   4.896   2.263   2.082  0.5614 -0.8221  0.7566
 3344TIP3   OH231446   4.961   0.987   3.981 -0.1442 -0.0474  0.1556
 3344TIP3    H131447   5.043   1.015   3.940 -0.1946 -1.6642 -1.1770
 3344TIP3    H231448   4.973   1.006   4.074  1.3472  0.6358 -0.1361
 3345TIP3   OH231449   2.784   3.316  13.352 -0.3528  0.0542 -0.0852
 3345TIP3    H131450   2.871   3.354  13.345 -0.7040  1.5394  2.2871
 3345TIP3    H231451   2.792   3.249  13.420 -1.0852  0.3033  0.2590
 3346TIP3   OH231452   1.696   0.096   4.270  0.5390  0.0291  0.7409
 3346TIP3    H131453   1.762   0.037   4.306  0.2641 -0.7015  0.0794
 3346TIP3    H231454   1.710   0.094   4.175 -0.5459 -0.2894  0.5682
 3347TIP3   OH231455   1.530   2.980   4.247  0.1950  0.2141  0.1111
 3347TIP3    H131456   1.516   3.070   4.217 -1.9660  0.0871  0.6172
 3347TIP3    H231457   1.553   2.932   4.168 -0.7720  0.8012 -0.5460
 3348TIP3   OH231458   3.499   2.125  11.825 -0.2688  0.0643  0.1632
 3348TIP3    H131459   3.582   2.140  11.870 -0.6212  0.1758  0.7997
 3348TIP3    H231460   3.481   2.032  11.838  0.5732 -0.3474 -1.4284
 3349TIP3   OH231461   5.183   0.312  14.627 -0.0673  0.7755  0.2543
 3349TIP3    H131462   5.176   0.281  14.537  0.7791  0.5762  0.2469
 3349TIP3    H231463   5.112   0.375  14.637 -1.7888 -1.1032  0.2451
 3350TIP3   OH231464   1.693   3.791  14.328  0.9128  0.2100 -0.0007
 3350TIP3    H131465   1.703   3.699  14.352  1.6842  0.5317  0.9626
 3350TIP3    H231466   1.706   3.839  14.410  4.0993  1.3760 -1.0274
 3351TIP3   OH231467   6.361   1.683   3.175  0.1866  0.4969  0.2304
 3351TIP3    H131468   6.318   1.603   3.145  1.1690 -0.5479  1.4988
 3351TIP3    H231469   6.359   1.741   3.098 -0.0949 -0.9241 -0.8875
 3352TIP3   OH231470   4.503   6.041  16.398 -0.1638  0.2885  0.1687
 3352TIP3    H131471   4.514   5.946  16.398 -1.5290  0.0666 -1.9199
 3352TIP3    H231472   4.551   6.070  16.321 -2.2632  0.8863 -0.9800
 3353TIP3   OH231473   4.792   1.518  13.553  1.1784 -0.1007  0.3850
 3353TIP3    H131474   4.761   1.606  13.534  2.1446  0.2552  0.4393
 3353TIP3    H231475   4.860   1.501  13.489  0.4027 -1.1623 -0.1957
 3354TIP3   OH231476   1.573   2.982  11.599 -0.4947 -0.0461 -0.0254
 3354TIP3    H131477   1.548   2.911  11.540  0.2086  0.2422 -0.6992
 3354TIP3    H231478   1.578   3.059  11.542  0.8533  0.1118  0.2632
 3355TIP3   OH231479   6.228   1.469   3.498 -0.7735 -0.2390  0.0959
 3355TIP3    H131480   6.180   1.424   3.429 -1.0362 -1.4559  1.0352
 3355TIP3    H231481   6.196   1.560   3.495 -0.3135 -0.1039 -1.7581
 3356TIP3   OH231482   2.109   1.898   4.930  0.1793 -0.5740 -0.1855
 3356TIP3    H131483   2.132   1.924   4.841  0.0855 -0.8365 -0.2880
 3356TIP3    H231484   2.157   1.958   4.986 -1.3691  0.9678 -0.4294
 3357TIP3   OH231485   1.965   5.864  11.601 -0.0041 -0.5566  0.2085
 3357TIP3    H131486   1.932   5.775  11.593 -0.5233 -0.1796 -2.7811
 3357TIP3    H231487   1.901   5.908  11.657 -0.6606 -1.5999  0.3056
 3358TIP3   OH231488   6.752   6.690   5.066 -0.0148 -0.5669  0.1147
 3358TIP3    H131489   6.709   6.761   5.113 -2.1375 -2.0238  0.5449
 3358TIP3    H231490   6.710   6.690   4.979 -0.4709 -1.6296  0.3219
 3359TIP3   OH231491   0.538   4.087   4.661 -0.1179 -0.7529  0.4576
 3359TIP3    H131492   0.530   4.182   4.654  1.2957 -0.5759  0.9650
 3359TIP3    H231493   0.507   4.054   4.577 -1.1540  0.1089  0.4763
 3360TIP3   OH231494   3.308   2.856  12.176  0.1007 -0.3879  0.0135
 3360TIP3    H131495   3.384   2.798  12.171  0.1987 -0.3350  0.7866
 3360TIP3    H231496   3.340   2.932  12.225 -0.6553 -0.6924  0.9981
 3361TIP3   OH231497   5.568   3.806  12.569 -0.0382  0.0911  0.2955
 3361TIP3    H131498   5.661   3.810  12.547  0.2512 -0.3033  1.4172
 3361TIP3    H231499   5.553   3.883  12.624 -0.5951  0.6499 -0.5946
 3362TIP3   OH231500   3.877   2.288  16.571  0.0851 -0.0564  0.2642
 3362TIP3    H131501   3.857   2.215  16.630 -1.1597 -0.5038 -0.6800
 3362TIP3    H231502   3.814   2.280  16.500 -2.2982  3.7634  1.6214
 3363TIP3   OH231503   4.899   3.433   2.685 -0.1197 -0.6925 -0.9492
 3363TIP3    H131504   4.897   3.346   2.645  0.1074 -0.2421 -1.9502
 3363TIP3    H231505   4.968   3.427   2.751 -0.4295 -1.4091 -0.6716
 3364TIP3   OH231506   5.268   6.783   2.984 -0.0644  0.6804 -0.5478
 3364TIP3    H131507   5.298   6.705   2.937  0.0276  0.1810  0.3171
 3364TIP3    H231508   5.284   6.763   3.077 -2.0238  0.8458 -0.1414
 3365TIP3   OH231509   4.794   6.505   0.652  0.5107 -0.0505 -0.1835
 3365TIP3    H131510   4.838   6.421   0.667  0.6616 -0.1951 -1.3522
 3365TIP3    H231511   4.799   6.550   0.736  0.3742 -1.2333  0.4735
 3366TIP3   OH231512   1.326   6.482  12.535 -0.3606  0.4724 -0.2873
 3366TIP3    H131513   1.273   6.407  12.510 -2.6034  1.9443 -0.1697
 3366TIP3    H231514   1.263   6.550  12.557  1.5927  2.3335 -0.1493
 3367TIP3   OH231515   0.550   5.893   5.767 -0.0776  0.3240 -0.2019
 3367TIP3    H131516   0.497   5.828   5.813  0.6192  0.4512  0.7989
 3367TIP3    H231517   0.598   5.939   5.836 -0.2055  1.5951 -0.9293
 3368TIP3   OH231518   0.138   1.879   0.702 -0.2849 -0.5731 -0.0986
 3368TIP3    H131519   0.118   1.963   0.661 -2.1357 -0.0957  1.6502
 3368TIP3    H231520   0.142   1.898   0.795 -0.5592 -2.3860  0.3142
 3369TIP3   OH231521   5.166   4.813  12.256 -0.3269  0.0488  0.0173
 3369TIP3    H131522   5.125   4.804  12.170  0.4052  0.0771 -0.3338
 3369TIP3    H231523   5.092   4.813  12.317 -0.8555  0.1227 -0.6128
 3370TIP3   OH231524   0.522   0.980  14.164 -0.1650 -0.2270 -0.4685
 3370TIP3    H131525   0.556   0.906  14.215  0.8189  0.4852 -0.0355
 3370TIP3    H231526   0.515   1.051  14.228 -1.4319 -0.0382 -0.8055
 3371TIP3   OH231527   3.729   2.303  13.994  0.7305 -0.1999 -0.1533
 3371TIP3    H131528   3.803   2.245  14.009 -0.1970 -1.1921  0.6841
 3371TIP3    H231529   3.669   2.286  14.066 -0.6060  0.1184 -1.1462
 3372TIP3   OH231530   0.997   1.574  12.621  0.3556 -0.3292  0.3152
 3372TIP3    H131531   1.077   1.533  12.588  0.6416 -0.8595  1.6097
 3372TIP3    H231532   0.934   1.564  12.550  0.5756 -2.5720  0.3834
 3373TIP3   OH231533   6.367   6.476  14.745  0.5834  0.1761  0.5763
 3373TIP3    H131534   6.382   6.526  14.825  2.3870  1.1381 -0.2948
 3373TIP3    H231535   6.272   6.478  14.733  0.4895  2.4467  1.1931
 3374TIP3   OH231536   3.603   6.306   4.393  0.5267  0.0329  0.3023
 3374TIP3    H131537   3.511   6.322   4.416  0.7673  0.7613  0.7890
 3374TIP3    H231538   3.629   6.234   4.450 -0.1264 -1.1355 -0.8235
 3375TIP3   OH231539   0.414   5.888  10.983 -0.1068 -0.2846  0.5107
 3375TIP3    H131540   0.318   5.889  10.983 -0.1530  0.6779  2.1702
 3375TIP3    H231541   0.438   5.976  11.013  1.2696 -0.7762  0.9205
 3376TIP3   OH231542   0.583   4.445  12.512 -0.0774  0.6354 -0.8713
 3376TIP3    H131543   0.638   4.410  12.582 -1.5349  1.0092  0.5235
 3376TIP3    H231544   0.535   4.369  12.479 -1.4567  0.8642  0.5023
 3377TIP3   OH231545   4.049   0.011   0.334  0.5422  0.0001  0.0353
 3377TIP3    H131546   3.981  -0.015   0.396 -0.0402  0.0439 -0.5868
 3377TIP3    H231547   4.028  -0.036   0.253  1.1903  0.0955 -0.1990
 3378TIP3   OH231548   0.405   2.282   4.917 -0.0274 -0.2597  0.3211
 3378TIP3    H131549   0.466   2.267   4.989  1.3120 -0.3456 -0.7913
 3378TIP3    H231550   0.365   2.367   4.935  0.9386  0.1161  0.7023
 3379TIP3   OH231551   4.309   0.126  11.666  0.1401  0.2283  0.2020
 3379TIP3    H131552   4.362   0.101  11.741 -0.1772 -0.7850  0.1038
 3379TIP3    H231553   4.362   0.191  11.620 -0.4959  2.3950  2.3321
 3380TIP3   OH231554   2.773   6.229  17.126  0.1617  0.2201  0.4919
 3380TIP3    H131555   2.700   6.282  17.157 -0.4008 -0.0801 -0.2798
 3380TIP3    H231556   2.752   6.211  17.035  0.9666 -0.2739  0.3970
 3381TIP3   OH231557   3.497   3.201  13.653  0.0319 -0.4391 -0.0310
 3381TIP3    H131558   3.514   3.188  13.746  1.0708  0.1785 -0.1188
 3381TIP3    H231559   3.569   3.155  13.609  0.4352  0.5818 -0.4756
 3382TIP3   OH231560   3.304   1.130   3.166  0.6066  0.5822 -0.2762
 3382TIP3    H131561   3.223   1.139   3.116  0.1787  0.4542  0.3810
 3382TIP3    H231562   3.337   1.043   3.144  0.6063  0.6688 -0.6109
 3383TIP3   OH231563   0.599   1.286   4.515 -0.1431 -0.5361  0.4901
 3383TIP3    H131564   0.690   1.302   4.490 -0.4339 -0.6201 -0.6893
 3383TIP3    H231565   0.592   1.321   4.604  0.8246  0.2485  0.2738
 3384TIP3   OH231566   0.776   5.496   2.153  0.1088 -0.2237 -0.7389
 3384TIP3    H131567   0.820   5.480   2.070  0.0782 -0.4490 -0.7138
 3384TIP3    H231568   0.753   5.589   2.151 -2.1761 -0.7524 -2.0827
 3385TIP3   OH231569   3.646   1.533   6.781  0.2934 -0.1414 -0.6548
 3385TIP3    H131570   3.565   1.526   6.732  1.3254 -0.4364 -2.3994
 3385TIP3    H231571   3.705   1.584   6.725  1.4822 -0.3369  0.3471
 3386TIP3   OH231572   5.603   0.576   5.905 -0.0676  0.2454  0.1938
 3386TIP3    H131573   5.595   0.523   5.985  2.2510 -0.6863 -0.1079
 3386TIP3    H231574   5.513   0.588   5.875 -0.7936 -1.9604  1.2925
 3387TIP3   OH231575   0.474   0.043   0.530  0.2590  0.0961  0.1408
 3387TIP3    H131576   0.402   0.077   0.583 -0.6143 -0.0301 -0.9350
 3387TIP3    H231577   0.471   0.094   0.449  1.9393  0.6931  0.4150
 3388TIP3   OH231578   2.585   3.452   2.639 -0.0325 -0.3067  0.3673
 3388TIP3    H131579   2.600   3.544   2.614 -2.0947 -0.2618 -0.9843
 3388TIP3    H231580   2.573   3.455   2.734  0.2724  0.7730  0.3905
 3389TIP3   OH231581   3.478   2.127  15.403 -0.0715 -0.4109 -0.6435
 3389TIP3    H131582   3.505   2.091  15.488  0.2834  0.1954 -0.4887
 3389TIP3    H231583   3.384   2.114  15.400 -0.5908  2.0300  1.1010
 3390TIP3   OH231584   1.333   5.349   1.065 -0.1608 -0.1407 -0.0623
 3390TIP3    H131585   1.269   5.288   1.028  0.8104 -0.8599 -0.5872
 3390TIP3    H231586   1.340   5.419   1.000 -0.6895  0.1473  0.1793
 3391TIP3   OH231587   0.737   6.424  15.913 -0.0285 -0.3171 -0.2220
 3391TIP3    H131588   0.779   6.499  15.957  1.3639 -0.6064 -1.0109
 3391TIP3    H231589   0.752   6.350  15.972  0.8476 -0.4744 -0.6243
 3392TIP3   OH231590   0.515   0.826  14.860  0.2017  0.1514  0.5110
 3392TIP3    H131591   0.575   0.885  14.815  1.7651 -1.0892  0.9141
 3392TIP3    H231592   0.564   0.795  14.936 -1.3259 -0.1009  1.4430
 3393TIP3   OH231593   3.322   0.287  11.373  0.5545  0.0093  0.1461
 3393TIP3    H131594   3.271   0.235  11.435 -1.1815  1.1519 -0.2414
 3393TIP3    H231595   3.257   0.339  11.327  2.0626  1.1919 -0.7381
 3394TIP3   OH231596   5.962   2.758   4.300 -0.2889 -0.1838  0.2415
 3394TIP3    H131597   5.913   2.771   4.219  0.4849  0.0500 -0.1998
 3394TIP3    H231598   5.916   2.810   4.365 -1.3958 -1.0223  0.1479
 3395TIP3   OH231599   4.395   2.628   1.820 -0.1618  0.3764  0.0484
 3395TIP3    H131600   4.323   2.677   1.858  0.8879  0.0959  2.5711
 3395TIP3    H231601   4.473   2.680   1.840  0.5644 -0.3766 -0.7267
 3396TIP3   OH231602   5.562   1.755  13.548 -0.5960 -0.3884  0.4838
 3396TIP3    H131603   5.601   1.691  13.489  0.0471 -0.4578  0.9660
 3396TIP3    H231604   5.509   1.704  13.609 -0.3136 -0.4382  0.6906
 3397TIP3   OH231605   0.535   2.731   2.783 -0.3497  0.1473  0.0294
 3397TIP3    H131606   0.619   2.697   2.755 -1.0828 -1.2116 -0.6239
 3397TIP3    H231607   0.472   2.664   2.758 -1.4179  0.2021  2.2751
 3398TIP3   OH231608   2.664   1.370   0.565  0.2324 -0.2885 -0.2910
 3398TIP3    H131609   2.624   1.341   0.483 -0.6385 -1.7799  0.6274
 3398TIP3    H231610   2.591   1.384   0.625  0.9165 -0.7126  0.6826
 3399TIP3   OH231611   2.658   6.380   1.581 -0.0354 -0.5921  0.7913
 3399TIP3    H131612   2.748   6.347   1.590  0.2572  0.1984  0.9112
 3399TIP3    H231613   2.659   6.464   1.628 -0.8394 -0.5820  0.7970
 3400TIP3   OH231614   1.029   1.565  13.918 -0.0628 -0.2458  0.0508
 3400TIP3    H131615   1.020   1.602  13.830 -2.2800 -1.2632 -0.2274
 3400TIP3    H231616   1.070   1.479  13.904 -0.0361 -0.2328  0.0501
 3401TIP3   OH231617   0.928   6.427  12.376  0.2844 -0.1920  0.4106
 3401TIP3    H131618   0.964   6.362  12.435  0.0097  0.9970  1.9382
 3401TIP3    H231619   0.989   6.430  12.302 -0.1142 -2.7060 -0.1059
 3402TIP3   OH231620   0.239   2.704   5.689  0.4284 -0.0016  0.3482
 3402TIP3    H131621   0.296   2.775   5.718  0.7265  0.4053 -1.1563
 3402TIP3    H231622   0.295   2.649   5.635  0.0350 -1.0527  0.9664
 3403TIP3   OH231623   1.044   3.217  15.881 -0.1557  0.2761 -0.5647
 3403TIP3    H131624   1.111   3.158  15.917 -0.3270  0.8395  0.7208
 3403TIP3    H231625   0.997   3.163  15.816  0.2839 -0.7183 -0.0765
 3404TIP3   OH231626   1.916   3.974   2.706  0.5177 -0.1609  0.4004
 3404TIP3    H131627   1.885   4.009   2.789  0.3964 -0.2673  0.3989
 3404TIP3    H231628   1.838   3.942   2.662  0.5632  0.0197  0.1859
 3405TIP3   OH231629   3.240   5.956   4.344  0.0841  0.5537 -0.7767
 3405TIP3    H131630   3.170   6.002   4.297  0.1674  0.1483 -1.3086
 3405TIP3    H231631   3.271   5.891   4.282  0.2993  0.1042 -0.2016
 3406TIP3   OH231632   1.723   5.508   5.615  0.0860  0.4274 -0.0930
 3406TIP3    H131633   1.633   5.474   5.612 -0.0628  0.8582 -1.0800
 3406TIP3    H231634   1.777   5.435   5.583 -0.1420  0.7875 -1.3833
 3407TIP3   OH231635   0.644   3.475   4.304  0.2442 -0.4966 -0.3495
 3407TIP3    H131636   0.638   3.504   4.213  0.5472 -2.6884 -1.1065
 3407TIP3    H231637   0.738   3.481   4.325  0.1454  0.2283 -0.0841
 3408TIP3   OH231638   3.004   3.031   1.135 -0.2337  0.0180  0.5412
 3408TIP3    H131639   2.942   3.087   1.088 -0.2837 -1.0747 -0.7732
 3408TIP3    H231640   3.089   3.073   1.121 -0.2932 -0.1075 -0.2671
 3409TIP3   OH231641   4.195   0.324  11.949 -0.7415  0.2527 -0.1526
 3409TIP3    H131642   4.226   0.394  12.007 -1.9201  1.3686 -0.8052
 3409TIP3    H231643   4.254   0.329  11.873 -0.2660 -0.0738  0.1883
 3410TIP3   OH231644   2.911   1.481  14.847  0.1468  0.4917 -0.5800
 3410TIP3    H131645   2.893   1.566  14.807 -0.1446  0.5572 -0.3132
 3410TIP3    H231646   2.938   1.501  14.936 -3.0457  0.2052  0.6118
 3411TIP3   OH231647   4.689   6.756  11.481 -0.0899  0.5192  0.0058
 3411TIP3    H131648   4.690   6.837  11.430 -2.1107  0.0618 -0.8716
 3411TIP3    H231649   4.730   6.691  11.424 -2.0606  0.0819 -1.0250
 3412TIP3   OH231650   2.187   4.962  13.506 -0.5605 -0.0837 -0.2127
 3412TIP3    H131651   2.125   4.996  13.442 -0.1272  0.5148 -0.3258
 3412TIP3    H231652   2.261   4.932  13.454  0.6875  2.2612  0.0591
 3413TIP3   OH231653   0.059   6.416   0.985 -0.0301  0.3982 -0.0405
 3413TIP3    H131654   0.045   6.365   1.065 -1.0525 -0.4006 -0.7164
 3413TIP3    H231655   0.118   6.487   1.013  0.1311 -0.2163  1.2720
 3414TIP3   OH231656   6.018   6.007   0.169  0.8064 -0.1464 -0.1717
 3414TIP3    H131657   6.072   6.073   0.214 -0.1251  0.9611 -0.6113
 3414TIP3    H231658   6.065   5.925   0.180  1.8351  0.5386  0.7011
 3415TIP3   OH231659   1.252   2.295   2.871 -0.2453  0.7372  0.3941
 3415TIP3    H131660   1.277   2.305   2.779  0.5201  3.4422  0.8201
 3415TIP3    H231661   1.169   2.246   2.868 -0.1386  0.5746 -1.6868
 3416TIP3   OH231662   3.198   5.036  11.402  1.0363 -0.1429 -0.6607
 3416TIP3    H131663   3.130   5.077  11.454  1.3135 -2.4401  1.7009
 3416TIP3    H231664   3.275   5.091  11.415  0.5743  0.4258 -0.3209
 3417TIP3   OH231665   6.056   3.131   2.138 -0.4080  0.0781 -0.5610
 3417TIP3    H131666   6.043   3.039   2.163  0.2540  0.1556  0.0964
 3417TIP3    H231667   6.042   3.180   2.219 -0.7506  0.5660 -0.9087
 3418TIP3   OH231668   6.437   5.729   5.302  0.2350 -0.0329  0.1515
 3418TIP3    H131669   6.465   5.821   5.299 -1.1333  0.4307  0.5858
 3418TIP3    H231670   6.361   5.726   5.243  0.0941 -0.8253  0.3672
 3419TIP3   OH231671   5.666   1.501   5.331  0.0203  0.5733  0.1090
 3419TIP3    H131672   5.606   1.551   5.387  1.4365  1.9702  0.4728
 3419TIP3    H231673   5.750   1.504   5.378  0.3193 -1.7059 -0.1622
 3420TIP3   OH231674   4.950   4.742  14.385  0.6912  0.1254  0.3816
 3420TIP3    H131675   5.002   4.668  14.415  0.4665 -0.2609 -0.1892
 3420TIP3    H231676   4.913   4.715  14.301  0.3788  0.7722  0.2993
 3421TIP3   OH231677   3.629   3.924  13.417  0.2760 -0.0655  0.2801
 3421TIP3    H131678   3.549   3.967  13.385  0.0860 -0.3192  0.4068
 3421TIP3    H231679   3.607   3.898  13.506  0.7771  0.5774  0.5977
 3422TIP3   OH231680   0.458   0.977   3.037  0.5642 -0.3017  0.2921
 3422TIP3    H131681   0.379   1.020   3.069 -0.2541 -0.0461 -1.9077
 3422TIP3    H231682   0.439   0.883   3.047  0.7896 -0.2275  1.5380
 3423TIP3   OH231683   2.731   2.144   1.982 -0.1471 -0.0453  0.1457
 3423TIP3    H131684   2.779   2.224   1.960 -2.1493  1.4101  0.7448
 3423TIP3    H231685   2.748   2.085   1.909 -0.2345  1.6876 -1.3461
 3424TIP3   OH231686   6.482   1.209  16.444  0.5839  0.3141 -0.7449
 3424TIP3    H131687   6.571   1.231  16.470  0.8624 -0.7961 -0.7158
 3424TIP3    H231688   6.490   1.175  16.355  0.4879 -1.6114 -0.0617
 3425TIP3   OH231689   0.073   3.138  11.872  0.4035 -0.5520 -0.1735
 3425TIP3    H131690   0.037   3.054  11.901  0.3305 -1.2077 -2.0595
 3425TIP3    H231691   0.013   3.167  11.803  0.0590  1.3919  0.8611
 3426TIP3   OH231692   0.301   6.542   0.940 -0.4314  0.1896  0.2310
 3426TIP3    H131693   0.324   6.469   0.998  1.5452  0.9327  0.4578
 3426TIP3    H231694   0.345   6.522   0.857 -2.9779 -0.7076 -1.0129
 3427TIP3   OH231695   5.174   1.925  11.869  0.3880  0.2786 -0.0186
 3427TIP3    H131696   5.218   1.949  11.951 -0.3487  0.3825  0.3574
 3427TIP3    H231697   5.245   1.915  11.806  0.9836  0.0512  0.6686
 3428TIP3   OH231698   4.610   0.146  16.972 -0.1755  0.3034 -0.4331
 3428TIP3    H131699   4.519   0.174  16.965 -0.5410 -0.8081 -0.2061
 3428TIP3    H231700   4.655   0.192  16.900 -1.1010  0.1005 -1.1573
 3429TIP3   OH231701   1.238   2.309   0.310 -0.4221 -0.9861 -0.3614
 3429TIP3    H131702   1.172   2.320   0.378 -0.0868  0.7836 -0.2543
 3429TIP3    H231703   1.275   2.397   0.299  1.2707 -1.7398 -1.0602
 3430TIP3   OH231704   6.771   4.825   1.177  0.3204  0.1257  0.3115
 3430TIP3    H131705   6.838   4.771   1.135 -0.4960 -0.9617  0.3399
 3430TIP3    H231706   6.707   4.840   1.107  0.6842  1.3431  0.2230
 3431TIP3   OH231707   1.602   2.886   3.918 -0.4632 -0.2701 -0.0589
 3431TIP3    H131708   1.532   2.857   3.860 -0.5564 -1.6810  0.7057
 3431TIP3    H231709   1.611   2.979   3.901 -1.8928 -0.2497 -0.8302
 3432TIP3   OH231710   5.851   6.343  13.460  0.2199 -0.1671 -0.2417
 3432TIP3    H131711   5.915   6.327  13.391  0.0239 -0.7564 -0.2931
 3432TIP3    H231712   5.820   6.433  13.444 -0.9953 -0.8232 -1.8967
 3433TIP3   OH231713   6.344   6.308  11.448 -0.8836 -0.4767  0.1444
 3433TIP3    H131714   6.353   6.336  11.357  1.3074  1.9850  1.0180
 3433TIP3    H231715   6.433   6.286  11.476 -1.0296  1.4858  2.4357
 3434TIP3   OH231716   0.925   5.839   3.357 -0.6489  0.0719 -0.7977
 3434TIP3    H131717   0.892   5.877   3.439  0.8938 -2.0068  0.8933
 3434TIP3    H231718   0.984   5.906   3.322 -1.7764  1.2285 -0.5718
 3435TIP3   OH231719   5.006   1.909   1.699  0.5062 -0.0968 -0.3680
 3435TIP3    H131720   5.018   2.004   1.704 -0.0299 -0.0785  1.6295
 3435TIP3    H231721   4.912   1.897   1.713  0.6007 -0.9199 -0.4339
 3436TIP3   OH231722   1.780   3.596  13.162  0.2718  0.2211 -0.6537
 3436TIP3    H131723   1.766   3.689  13.179 -1.0354  0.3020 -1.9797
 3436TIP3    H231724   1.727   3.551  13.229  2.5703  0.3130  1.3879
 3437TIP3   OH231725   0.663   5.212  14.602 -0.1841 -0.2268 -0.4142
 3437TIP3    H131726   0.683   5.157  14.677 -0.9872 -0.5633 -0.4335
 3437TIP3    H231727   0.589   5.168  14.559  0.1034  0.0911 -1.2580
 3438TIP3   OH231728   4.670   3.484   2.836  0.2195 -0.1519 -0.6173
 3438TIP3    H131729   4.755   3.452   2.808  0.4832  1.1971 -1.4462
 3438TIP3    H231730   4.644   3.425   2.907  0.5243 -2.3230 -2.2435
 3439TIP3   OH231731   6.364   5.326  11.487  0.0029 -0.8892  0.0454
 3439TIP3    H131732   6.374   5.286  11.573 -2.6166 -1.6430  0.0824
 3439TIP3    H231733   6.349   5.253  11.428  0.4372 -0.2846 -0.8406
 3440TIP3   OH231734   5.392   2.372   5.283 -0.8977 -0.1962  0.1877
 3440TIP3    H131735   5.445   2.408   5.355 -1.5501 -0.7567  0.9684
 3440TIP3    H231736   5.302   2.381   5.314 -1.2200 -0.0030 -0.7786
 3441TIP3   OH231737   0.707   1.897   1.773 -0.1527  0.6543  0.0962
 3441TIP3    H131738   0.631   1.839   1.780 -0.5709  1.3004  1.0776
 3441TIP3    H231739   0.673   1.976   1.729  0.3063  0.3551 -0.8198
 3442TIP3   OH231740   0.286   6.628  14.891  0.3380 -0.2554  0.2179
 3442TIP3    H131741   0.378   6.602  14.888 -0.0748 -1.7064 -1.8141
 3442TIP3    H231742   0.257   6.626  14.800 -2.2420 -1.8032  0.9721
 3443TIP3   OH231743   3.805   1.091  15.878 -0.3203 -0.3133 -0.2404
 3443TIP3    H131744   3.816   1.001  15.908 -2.8159 -0.6552 -0.0704
 3443TIP3    H231745   3.718   1.091  15.837 -1.6770  2.6135  2.2875
 3444TIP3   OH231746   5.968   5.809   6.592  0.7067  0.0028 -0.2125
 3444TIP3    H131747   6.013   5.739   6.545 -1.2853  0.2478 -2.7290
 3444TIP3    H231748   6.034   5.878   6.601  2.2677 -1.5721  1.0029
 3445TIP3   OH231749   1.701   3.372  15.774 -0.0578 -0.0702 -0.1573
 3445TIP3    H131750   1.719   3.336  15.687  2.2559 -1.8102  0.9483
 3445TIP3    H231751   1.786   3.401  15.806 -0.9867  1.2105  1.2927
 3446TIP3   OH231752   6.481   4.755  14.128  0.6401  0.6457 -0.0785
 3446TIP3    H131753   6.398   4.730  14.167 -0.1140  1.3497 -1.1557
 3446TIP3    H231754   6.497   4.687  14.062  0.1202  1.3347 -0.9307
 3447TIP3   OH231755   2.194   1.172   3.188  0.8233  0.0920  0.0315
 3447TIP3    H131756   2.128   1.160   3.119  1.8869 -1.7462 -0.7488
 3447TIP3    H231757   2.176   1.259   3.224 -0.7903  0.4293 -1.4518
 3448TIP3   OH231758   0.609   4.839  13.100  0.1071 -0.4418  0.3260
 3448TIP3    H131759   0.638   4.801  13.183  1.2634 -0.2778  0.0286
 3448TIP3    H231760   0.659   4.791  13.034 -0.8636 -0.6269 -0.2850
 3449TIP3   OH231761   3.528   1.697  15.561 -0.0414 -1.0357  0.2355
 3449TIP3    H131762   3.483   1.619  15.594  1.1891 -1.0535  2.0144
 3449TIP3    H231763   3.621   1.681  15.580  0.3620  0.3424 -0.4754
 3450TIP3   OH231764   3.934   3.623   4.969  0.2461  0.4454 -0.6480
 3450TIP3    H131765   3.988   3.597   5.043  0.0088  1.1279 -0.2226
 3450TIP3    H231766   3.853   3.573   4.978  0.5676 -0.1340 -0.9510
 3451TIP3   OH231767   4.116   3.173   5.070  0.2784 -0.3134 -0.3188
 3451TIP3    H131768   4.025   3.189   5.044  0.0946  0.5600  0.7843
 3451TIP3    H231769   4.110   3.113   5.144  0.4009  1.4664  1.2289
 3452TIP3   OH231770   5.128   4.924  15.287 -0.6247  0.1564 -0.2867
 3452TIP3    H131771   5.052   4.897  15.236 -0.9905  1.3531 -0.3976
 3452TIP3    H231772   5.188   4.962  15.223 -1.2324  1.9926  0.1520
 3453TIP3   OH231773   1.577   5.839  13.373  0.0324 -0.2423  0.5933
 3453TIP3    H131774   1.545   5.830  13.283 -2.3573  0.2225  1.3068
 3453TIP3    H231775   1.647   5.905  13.368  1.2874 -1.6358 -1.1575
 3454TIP3   OH231776   0.884   4.554   5.606 -0.2132 -0.2771  0.4571
 3454TIP3    H131777   0.829   4.526   5.679  0.4704  0.0015  1.0905
 3454TIP3    H231778   0.891   4.649   5.616  0.6079 -0.3415  0.5426
 3455TIP3   OH231779   1.148   0.301   5.926 -0.0659 -0.4964  0.1188
 3455TIP3    H131780   1.100   0.318   6.008 -0.2411 -0.7350  0.0686
 3455TIP3    H231781   1.085   0.320   5.857  0.5272  1.1336 -0.0194
 3456TIP3   OH231782   2.892   3.863   1.640  0.1704  0.2012  0.6235
 3456TIP3    H131783   2.922   3.946   1.677  1.1536  1.6200 -2.9360
 3456TIP3    H231784   2.971   3.810   1.633  0.0848  0.1361  0.1390
 3457TIP3   OH231785   3.127   4.897  13.705  0.0098  0.1228  0.0536
 3457TIP3    H131786   3.159   4.895  13.795  1.4448  2.5953 -0.3026
 3457TIP3    H231787   3.206   4.906  13.652 -0.9489  4.1214 -1.0329
 3458TIP3   OH231788   5.718   0.732  12.825 -0.0006  0.2342 -0.5675
 3458TIP3    H131789   5.753   0.768  12.744  2.0341  0.1648  0.2230
 3458TIP3    H231790   5.778   0.764  12.893  0.3233 -2.4262  0.4965
 3459TIP3   OH231791   1.896   5.772  13.289  0.2912  0.2567  0.1703
 3459TIP3    H131792   1.884   5.863  13.317  0.2557  0.4147 -0.3388
 3459TIP3    H231793   1.991   5.763  13.279  0.3468  0.0273  0.8981
 3460TIP3   OH231794   2.822   5.540   0.929  0.4222  0.0501  0.1638
 3460TIP3    H131795   2.796   5.543   0.837 -0.0435 -1.7905  0.2006
 3460TIP3    H231796   2.830   5.632   0.954 -1.4364  0.6359 -1.1547
 3461TIP3   OH231797   0.999   5.389   4.351 -0.3717  0.1565 -0.0454
 3461TIP3    H131798   1.045   5.306   4.337  3.7577  2.0580  1.0168
 3461TIP3    H231799   0.983   5.422   4.263  0.2352 -0.5985 -0.4560
 3462TIP3   OH231800   0.751   1.288   4.043  0.4023  0.0633 -0.2730
 3462TIP3    H131801   0.844   1.288   4.067  0.5327 -0.3070 -0.7743
 3462TIP3    H231802   0.714   1.360   4.094  1.3379  1.5003 -1.5307
 3463TIP3   OH231803   2.119   0.858   2.460  0.0896 -0.0374  0.2494
 3463TIP3    H131804   2.025   0.879   2.462  0.0092 -0.4317  0.7998
 3463TIP3    H231805   2.142   0.844   2.552  0.0955 -2.4461 -0.0452
 3464TIP3   OH231806   1.579   1.010   2.495  0.1487  0.0003 -0.6472
 3464TIP3    H131807   1.650   1.073   2.503 -0.3199  0.5757 -0.9303
 3464TIP3    H231808   1.541   1.026   2.408 -0.4881 -0.1164 -0.4021
 3465TIP3   OH231809   6.498   5.353  11.162  0.1432  0.0462 -0.1030
 3465TIP3    H131810   6.433   5.362  11.093 -0.1107  0.7114  0.2189
 3465TIP3    H231811   6.537   5.440  11.171  1.6062 -0.4977 -0.7977
 3466TIP3   OH231812   0.742   6.342   4.876 -0.2548 -0.1891  0.9413
 3466TIP3    H131813   0.688   6.397   4.933 -0.9075  0.6696 -0.4513
 3466TIP3    H231814   0.822   6.393   4.862 -0.6890  0.2410 -0.0257
 3467TIP3   OH231815   0.854   1.023  12.061  0.2814 -0.6230 -0.0471
 3467TIP3    H131816   0.837   0.943  12.012  0.9570 -0.8040  0.0072
 3467TIP3    H231817   0.887   0.993  12.146  0.2810 -0.2910  0.0713
 3468TIP3   OH231818   2.122   2.928  13.495 -0.1275  0.0056 -0.1785
 3468TIP3    H131819   2.209   2.937  13.533  1.0004 -1.3738 -2.2854
 3468TIP3    H231820   2.070   2.996  13.538  2.0620  1.1010  0.8678
 3469TIP3   OH231821   5.677   0.856  11.440 -0.0897 -0.0359 -0.2251
 3469TIP3    H131822   5.738   0.889  11.374 -0.8570  1.6917 -0.1316
 3469TIP3    H231823   5.662   0.765  11.416 -0.7975  0.6936 -2.8151
 3470TIP3   OH231824   5.717   3.278  13.105  0.8814  0.3734  1.1245
 3470TIP3    H131825   5.809   3.259  13.085  0.7736 -0.1782  1.1431
 3470TIP3    H231826   5.676   3.192  13.113  0.1466  0.6125  0.1229
 3471TIP3   OH231827   3.258   0.308   4.129  0.2855  0.0393  0.3190
 3471TIP3    H131828   3.287   0.385   4.177  2.2096 -0.1047 -0.5278
 3471TIP3    H231829   3.322   0.297   4.059 -2.3921  0.2481 -2.3736
 3472TIP3   OH231830   5.250   0.520  15.633  0.1721 -0.0377  0.0697
 3472TIP3    H131831   5.274   0.448  15.575 -0.4212  0.0967 -0.3588
 3472TIP3    H231832   5.266   0.599  15.582  1.1279  0.1652  0.6513
 3473TIP3   OH231833   6.136   1.664  16.004  0.4816 -0.3724  0.2521
 3473TIP3    H131834   6.184   1.618  16.073  0.3574  0.3627  0.8456
 3473TIP3    H231835   6.199   1.727  15.969  0.6138 -0.8927 -0.4712
 3474TIP3   OH231836   4.940   6.483   2.791  0.1388 -0.0453 -0.2097
 3474TIP3    H131837   4.900   6.402   2.760 -0.1690  0.5356 -1.4047
 3474TIP3    H231838   5.034   6.464   2.793 -0.0012 -0.6752  0.2884
 3475TIP3   OH231839   1.333   1.109  12.282 -0.3196  0.5893 -0.4057
 3475TIP3    H131840   1.257   1.140  12.233 -0.1197  1.0292 -0.4448
 3475TIP3    H231841   1.325   1.014  12.282 -0.3691  0.5899 -1.2037
 3476TIP3   OH231842   5.116   3.403  13.576  0.2843  0.4399  0.0518
 3476TIP3    H131843   5.094   3.433  13.663 -2.4102 -0.0528 -0.3717
 3476TIP3    H231844   5.208   3.377  13.582  0.8030  2.4860  2.1087
 3477TIP3   OH231845   4.682   3.812   5.120  0.6300  0.3240 -0.2797
 3477TIP3    H131846   4.726   3.793   5.203  1.2765 -0.2819 -0.7500
 3477TIP3    H231847   4.744   3.867   5.071 -1.2574  4.0632  1.1193
 3478TIP3   OH231848   4.527   2.280   6.671  0.3351  0.2140  0.6546
 3478TIP3    H131849   4.617   2.310   6.657 -0.5492  2.2817 -1.2892
 3478TIP3    H231850   4.481   2.359   6.699 -1.2273 -0.3848 -0.1642
 3479TIP3   OH231851   5.473   6.062   2.601  0.4268 -0.3543  0.1890
 3479TIP3    H131852   5.467   6.138   2.659  0.0904  0.4479 -0.8648
 3479TIP3    H231853   5.383   6.047   2.572  0.4459 -1.3307  0.5808
 3480TIP3   OH231854   0.266   0.306  14.869  0.3866  0.1542 -0.9158
 3480TIP3    H131855   0.312   0.232  14.909 -1.9781  0.4005  2.7869
 3480TIP3    H231856   0.298   0.383  14.918 -0.1419  1.0245 -1.9000
 3481TIP3   OH231857   2.088   0.731  10.863 -0.1560  0.4596 -0.5646
 3481TIP3    H131858   2.148   0.691  10.800 -0.6800 -1.3823  0.0434
 3481TIP3    H231859   2.010   0.751  10.812  0.2844  1.1910 -0.9758
 3482TIP3   OH231860   4.684   5.210  11.250 -0.4816 -0.2837 -0.2466
 3482TIP3    H131861   4.691   5.231  11.157  2.7812 -2.0617 -0.5691
 3482TIP3    H231862   4.670   5.115  11.252 -3.2444  0.0305  1.1733
 3483TIP3   OH231863   5.937   3.406  15.440  0.1282 -0.1240 -0.6420
 3483TIP3    H131864   5.877   3.399  15.515  1.8221  3.0660  1.2147
 3483TIP3    H231865   5.999   3.335  15.453 -1.6492 -1.8634 -1.1509
 3484TIP3   OH231866   6.656   0.911  11.513 -0.2353 -0.3218  0.1275
 3484TIP3    H131867   6.692   0.882  11.429 -0.7462  2.5140 -1.1953
 3484TIP3    H231868   6.731   0.913  11.572  1.2033  2.1350 -1.6245
 3485TIP3   OH231869   6.029   2.371  17.132 -0.2137 -0.1772 -0.4448
 3485TIP3    H131870   6.062   2.281  17.131 -0.9064 -0.4340 -0.5809
 3485TIP3    H231871   6.082   2.415  17.199  0.5978 -0.5002 -0.8669
 3486TIP3   OH231872   5.494   6.002   0.006 -0.6391  0.4109 -0.0874
 3486TIP3    H131873   5.476   5.944  -0.067 -0.2449 -0.1906  0.2807
 3486TIP3    H231874   5.437   6.078  -0.008 -1.4301 -0.2211 -0.3872
 3487TIP3   OH231875   4.154   4.449  12.314 -0.1250 -0.0415 -1.0276
 3487TIP3    H131876   4.082   4.390  12.293 -0.6641  0.1024  0.3313
 3487TIP3    H231877   4.140   4.525  12.257 -0.6940 -0.2687 -1.2028
 3488TIP3   OH231878   1.726   0.108  14.059  0.5311 -0.8530 -0.0570
 3488TIP3    H131879   1.662   0.139  14.123  0.0756 -0.4819 -0.6810
 3488TIP3    H231880   1.673   0.061  13.993  0.7680  0.2735 -1.0818
 3489TIP3   OH231881   4.107   0.060  12.010  0.0896 -0.4124 -0.2111
 3489TIP3    H131882   4.155   0.141  11.994 -0.1361 -0.1276  0.5052
 3489TIP3    H231883   4.141  -0.002  11.946  1.8369 -0.4075  0.6426
 3490TIP3   OH231884   4.753   4.706   1.470  0.6426  0.2089 -0.8750
 3490TIP3    H131885   4.772   4.613   1.454  0.5261 -0.2129  1.2101
 3490TIP3    H231886   4.833   4.751   1.443  1.3392 -0.6678 -0.3400
 3491TIP3   OH231887   1.528   3.361  11.437 -0.1452  0.2783 -0.3058
 3491TIP3    H131888   1.596   3.370  11.503 -0.5924  0.6939  0.1073
 3491TIP3    H231889   1.523   3.447  11.395  1.2509 -0.3995 -2.0254
 3492TIP3   OH231890   3.323   2.348   1.077  0.0042  0.0154 -0.1199
 3492TIP3    H131891   3.274   2.393   1.146  0.3425 -0.5178  0.4760
 3492TIP3    H231892   3.356   2.418   1.021 -0.1274  0.4611  0.3564
 3493TIP3   OH231893   6.547   1.157   0.027 -0.1721  0.0826  0.2959
 3493TIP3    H131894   6.566   1.096  -0.044  0.0535 -0.4791  0.8329
 3493TIP3    H231895   6.475   1.116   0.075 -1.4362  1.2268 -0.5308
 3494TIP3   OH231896   5.071   6.135   0.419  0.1910 -0.3669 -0.4811
 3494TIP3    H131897   5.126   6.057   0.413  0.2611 -0.2111 -3.4948
 3494TIP3    H231898   4.982   6.102   0.416  0.2219 -0.3746 -1.9656
 3495TIP3   OH231899   4.370   1.222   3.524  0.1689 -0.2123 -0.0997
 3495TIP3    H131900   4.464   1.203   3.530  0.4046  0.5616 -1.1202
 3495TIP3    H231901   4.339   1.165   3.453 -0.5652 -1.9366  1.5214
 3496TIP3   OH231902   4.641   3.220   5.144  0.5594  0.4892  0.2258
 3496TIP3    H131903   4.610   3.168   5.070 -0.5553  0.4216  0.7272
 3496TIP3    H231904   4.569   3.218   5.207  1.2577  1.0446  1.0641
 3497TIP3   OH231905   3.045   1.133   3.042 -0.4159 -0.0666 -0.6224
 3497TIP3    H131906   3.011   1.077   2.973 -0.3443  0.2922 -0.9540
 3497TIP3    H231907   2.995   1.109   3.120 -0.0635 -0.9153 -0.6510
 3498TIP3   OH231908   2.992   4.537  13.135 -0.0615 -0.5928  0.1187
 3498TIP3    H131909   2.968   4.616  13.182 -1.6875 -2.3445  2.4622
 3498TIP3    H231910   3.077   4.511  13.172 -0.4906 -0.9990  0.8432
 3499TIP3   OH231911   2.892   3.769   5.062 -0.6059  0.1729 -0.2958
 3499TIP3    H131912   2.799   3.793   5.065 -1.1151 -1.2737 -2.2415
 3499TIP3    H231913   2.893   3.675   5.079  0.4909  0.1536 -0.3822
 3500TIP3   OH231914   0.084   4.122   5.025 -0.8937  0.0347 -0.1350
 3500TIP3    H131915  -0.006   4.092   5.016 -0.5346 -1.0411 -0.2378
 3500TIP3    H231916   0.082   4.214   4.998 -1.8262 -0.1828 -0.8241
 3501TIP3   OH231917   5.647   1.893  17.212  0.3397 -0.3886 -0.5782
 3501TIP3    H131918   5.665   1.908  17.305 -1.0112  1.1139 -0.5186
 3501TIP3    H231919   5.732   1.902  17.169  0.6681  0.9975  0.2882
 3502TIP3   OH231920   6.562   1.353   0.914 -0.6687  0.3326  0.7758
 3502TIP3    H131921   6.559   1.436   0.866  0.8240 -0.0381 -0.0060
 3502TIP3    H231922   6.538   1.287   0.849 -0.5787  0.0173  1.0614
 3503TIP3   OH231923   5.091   5.951  13.775 -0.5056 -0.2208  0.2433
 3503TIP3    H131924   5.085   5.888  13.847 -1.1738 -3.2385 -2.2805
 3503TIP3    H231925   5.007   5.997  13.777 -1.1703 -1.4152  0.4234
 3504TIP3   OH231926   1.694   0.470  15.766  0.0274 -0.0992  0.5669
 3504TIP3    H131927   1.719   0.461  15.674  2.2765 -1.4860  1.2097
 3504TIP3    H231928   1.671   0.381  15.793  0.0018  0.1786  1.4989
 3505TIP3   OH231929   3.675   5.258   2.923 -0.1838  0.4277 -0.4635
 3505TIP3    H131930   3.695   5.281   3.013  0.3682  0.7468 -0.6642
 3505TIP3    H231931   3.609   5.322   2.896  1.0799  1.5939 -0.9038
 3506TIP3   OH231932   3.378   2.824  13.715 -0.1593 -0.4193  0.2482
 3506TIP3    H131933   3.439   2.771  13.767 -0.3294  1.3163  2.3679
 3506TIP3    H231934   3.401   2.804  13.624  1.5990 -2.0156  0.9644
 3507TIP3   OH231935   3.082   2.769   2.143 -0.1867 -0.0255  0.2442
 3507TIP3    H131936   3.047   2.713   2.211  0.6662 -0.9898 -0.0919
 3507TIP3    H231937   3.116   2.709   2.077  3.2712  0.7678  1.1155
 3508TIP3   OH231938   5.678   3.531   6.287 -0.2986  0.2975  0.1035
 3508TIP3    H131939   5.674   3.511   6.380 -0.5611 -0.3076 -0.0333
 3508TIP3    H231940   5.586   3.533   6.259 -0.3420  2.4635  0.2650
 3509TIP3   OH231941   6.324   0.503   5.603  0.0858  0.0129 -0.2883
 3509TIP3    H131942   6.244   0.482   5.651 -1.5363  3.1103 -1.3391
 3509TIP3    H231943   6.313   0.594   5.577  3.4675  0.2109 -1.5601
 3510TIP3   OH231944   1.668   5.878   4.489 -0.0386 -0.2698 -0.0771
 3510TIP3    H131945   1.763   5.867   4.496 -0.0042 -1.0646 -1.5705
 3510TIP3    H231946   1.632   5.790   4.501 -0.6948  0.1779  1.5932
 3511TIP3   OH231947   2.979   3.586   4.748  0.1022 -0.0101  0.4777
 3511TIP3    H131948   3.005   3.514   4.690 -0.4750 -0.2817  0.5550
 3511TIP3    H231949   2.910   3.632   4.701  0.6833  0.6867  0.2943
 3512TIP3   OH231950   5.986   2.722  15.374 -0.3085 -0.2244 -0.0854
 3512TIP3    H131951   5.940   2.766  15.304 -0.2310 -0.6793 -0.4272
 3512TIP3    H231952   6.047   2.663  15.330  2.0190  1.7444  0.2982
 3513TIP3   OH231953   0.414   4.629   4.512  0.0704 -0.0907 -0.1156
 3513TIP3    H131954   0.499   4.619   4.468  0.2348 -3.2061  0.6934
 3513TIP3    H231955   0.430   4.693   4.581  1.7374 -0.5187 -0.0592
 3514TIP3   OH231956   2.967   2.305   0.783  0.1610 -0.3345  0.4488
 3514TIP3    H131957   3.050   2.336   0.745 -0.9596  0.4087 -1.5300
 3514TIP3    H231958   2.984   2.301   0.877  2.5855 -0.6524  0.0673
 3515TIP3   OH231959   1.945   2.247   3.844  0.5021  0.5086  0.1423
 3515TIP3    H131960   1.911   2.274   3.929  1.0134  0.4614  0.3641
 3515TIP3    H231961   2.014   2.310   3.824 -0.5588  1.3821 -0.9069
 3516TIP3   OH231962   2.387   5.215  13.453 -0.0942  0.2516 -0.1963
 3516TIP3    H131963   2.436   5.167  13.520  0.4671  0.2162 -0.6309
 3516TIP3    H231964   2.408   5.171  13.371 -2.0273 -0.7134 -0.2400
 3517TIP3   OH231965   2.294   6.189  15.198 -0.2805 -0.2215  0.0526
 3517TIP3    H131966   2.372   6.142  15.229 -0.7359  0.0946  1.7974
 3517TIP3    H231967   2.255   6.130  15.134 -1.4399 -2.8519  2.9284
 3518TIP3   OH231968   1.623   5.403  13.029  0.8560  0.5285 -0.3839
 3518TIP3    H131969   1.703   5.353  13.018  0.2490 -0.4837 -0.3041
 3518TIP3    H231970   1.635   5.449  13.112  1.3451  0.3899 -0.3738
 3519TIP3   OH231971   6.117   6.126   2.914 -0.5687  0.5275 -0.3330
 3519TIP3    H131972   6.209   6.110   2.934 -0.3369  0.2581 -1.5157
 3519TIP3    H231973   6.085   6.042   2.882 -1.3896  0.4689  0.6201
 3520TIP3   OH231974   1.188   3.429  15.038 -0.5299 -0.4508 -0.3637
 3520TIP3    H131975   1.227   3.494  14.979  0.0723  0.5953  1.0988
 3520TIP3    H231976   1.262   3.399  15.092 -1.4509  0.5717  1.5647
 3521TIP3   OH231977   4.453   3.690  15.333 -0.8093  0.2887 -0.2137
 3521TIP3    H131978   4.545   3.712  15.343 -0.7207  0.2885 -1.0099
 3521TIP3    H231979   4.439   3.617  15.394 -0.1362 -0.1377 -0.5605
 3522TIP3   OH231980   6.297   6.244  10.862 -0.1739 -0.5382 -0.0117
 3522TIP3    H131981   6.336   6.331  10.865  0.6666 -0.5508 -4.2916
 3522TIP3    H231982   6.372   6.185  10.847 -0.7861 -2.0156  2.2168
 3523TIP3   OH231983   1.292   2.220   5.575 -0.2426 -0.3380 -0.0367
 3523TIP3    H131984   1.306   2.153   5.508  0.5307 -0.0225 -0.1983
 3523TIP3    H231985   1.354   2.290   5.552 -2.2691  1.2649 -0.9704
 3524TIP3   OH231986   6.618   0.843  11.227  0.1668 -0.0624  0.3635
 3524TIP3    H131987   6.644   0.770  11.171  0.0546  0.2607 -0.1129
 3524TIP3    H231988   6.528   0.862  11.201  0.5924  1.0283 -0.3685
 3525TIP3   OH231989   1.313   2.467   1.608  0.0878  0.0846 -0.1608
 3525TIP3    H131990   1.235   2.521   1.597 -0.7194 -1.0481 -0.2166
 3525TIP3    H231991   1.284   2.395   1.663  1.3151  0.0603  0.4753
 3526TIP3   OH231992   2.933   6.113   5.918  1.0857  0.2117  0.0900
 3526TIP3    H131993   2.944   6.028   5.960  1.4839 -1.0446 -2.3510
 3526TIP3    H231994   3.021   6.149   5.910  1.0159  0.4295  0.2716
 3527TIP3   OH231995   1.784   6.046  13.293 -0.2974  0.4327 -0.1143
 3527TIP3    H131996   1.782   6.094  13.210 -1.7546 -1.8178 -1.4897
 3527TIP3    H231997   1.758   6.110  13.359 -3.0462  1.3929 -1.9716
 3528TIP3   OH231998   2.149   2.998  16.079 -0.3364 -0.1325 -0.2347
 3528TIP3    H131999   2.192   2.973  15.998  0.0201 -0.1938 -0.0300
 3528TIP3    H232000   2.091   2.924  16.099 -0.3462 -0.1634 -0.3798
 3529TIP3   OH232001   4.799   4.029  11.009 -0.4724  0.0804  0.0197
 3529TIP3    H132002   4.846   3.962  10.960 -0.7026  0.2075 -0.3819
 3529TIP3    H232003   4.767   4.089  10.942 -0.3988  0.5092  0.3644
 3530TIP3   OH232004   2.510   3.888   3.233  0.2559 -0.3116  0.8110
 3530TIP3    H132005   2.438   3.932   3.188 -1.0028 -1.6101  1.4586
 3530TIP3    H232006   2.574   3.957   3.250 -0.5908  0.7769 -0.2535
 3531TIP3   OH232007   3.177   0.443   4.806  0.1361 -0.3068  0.3937
 3531TIP3    H132008   3.083   0.433   4.793  0.1063  0.9926 -0.5138
 3531TIP3    H232009   3.216   0.397   4.732  0.1790  0.3070  0.0348
 3532TIP3   OH232010   1.554   3.239  15.479 -0.3431 -0.5325 -0.2713
 3532TIP3    H132011   1.479   3.182  15.498 -0.6120  0.2342  1.1198
 3532TIP3    H232012   1.629   3.188  15.508 -0.5512 -0.3715  0.6026
 3533TIP3   OH232013   0.820   4.820  13.850  0.9160 -0.0784 -0.0840
 3533TIP3    H132014   0.791   4.910  13.835  0.8998 -0.1970 -0.8126
 3533TIP3    H232015   0.915   4.823  13.840  1.0035  0.0052  0.7025
 3534TIP3   OH232016   5.029   5.618  14.230  0.1276  0.5525  0.1286
 3534TIP3    H132017   4.953   5.563  14.212 -0.0376  0.7869  0.1070
 3534TIP3    H232018   5.101   5.556  14.242  0.1467  0.3613 -0.8650
 3535TIP3   OH232019   6.276   5.791   1.603 -0.2521 -0.1306 -0.4309
 3535TIP3    H132020   6.243   5.782   1.514  0.9653 -0.6367 -0.8506
 3535TIP3    H232021   6.369   5.770   1.596  0.1517  1.1711  0.7201
 3536TIP3   OH232022   5.791   3.043   4.894  0.0477 -0.0082 -0.6217
 3536TIP3    H132023   5.806   3.068   4.985  0.7631  0.5720 -0.8899
 3536TIP3    H232024   5.748   2.958   4.900  1.0603 -0.4846  0.2372
 3537TIP3   OH232025   6.632   2.556  11.882  0.4650 -0.1040  0.0793
 3537TIP3    H132026   6.570   2.613  11.928  0.3513 -0.0114 -0.1896
 3537TIP3    H232027   6.663   2.609  11.808 -2.4662 -1.6149 -2.4622
 3538TIP3   OH232028   4.148   3.820  16.482 -0.3654 -0.3242 -0.2737
 3538TIP3    H132029   4.069   3.818  16.428 -0.4893  1.3065 -0.1872
 3538TIP3    H232030   4.124   3.873  16.558  0.4420 -0.8739  0.3827
 3539TIP3   OH232031   2.670   2.753  11.653  0.0650  0.2441 -0.1363
 3539TIP3    H132032   2.682   2.790  11.565 -1.5845  1.9450  0.2986
 3539TIP3    H232033   2.579   2.726  11.656  0.4869 -1.2122  0.5975
 3540TIP3   OH232034   6.201   4.076  12.000 -0.0688  0.4488  0.0381
 3540TIP3    H132035   6.141   4.137  11.956 -0.3508 -0.4282 -0.8201
 3540TIP3    H232036   6.149   4.037  12.070 -0.0453  0.7959  0.2515
 3541TIP3   OH232037   1.683   4.131   5.410 -0.3773  0.3130 -0.7556
 3541TIP3    H132038   1.728   4.208   5.444 -0.9404  1.2844 -2.1291
 3541TIP3    H232039   1.605   4.123   5.465 -0.3471  0.7580 -0.6442
 3542TIP3   OH232040   3.001   3.947   4.383  0.0747  0.6691  0.2817
 3542TIP3    H132041   2.914   3.977   4.359 -0.2099 -0.2158  0.1646
 3542TIP3    H232042   2.986   3.879   4.449  0.6549  0.4003  0.1516
 3543TIP3   OH232043   2.299   0.202   2.121 -0.4218 -0.3617  0.4020
 3543TIP3    H132044   2.240   0.135   2.156  0.0255 -0.7753  0.3677
 3543TIP3    H232045   2.386   0.173   2.145 -0.1370 -0.4225 -0.6685
 3544TIP3   OH232046   4.159   3.059  11.733  0.8239 -0.8395  0.2431
 3544TIP3    H132047   4.153   3.057  11.829 -1.4061  2.1317  0.3045
 3544TIP3    H232048   4.185   3.149  11.713  1.2870 -1.4249 -1.9713
 3545TIP3   OH232049   5.853   5.455  13.098 -0.1497 -0.2537  0.6517
 3545TIP3    H132050   5.762   5.428  13.102 -0.5973  0.6322 -1.7544
 3545TIP3    H232051   5.886   5.415  13.017  1.6784 -0.7259  1.5744
 3546TIP3   OH232052   5.829   2.268   3.530 -0.1580  0.0626  0.2159
 3546TIP3    H132053   5.820   2.192   3.473  0.8243 -0.1423  0.3222
 3546TIP3    H232054   5.920   2.266   3.559  0.1583  1.8156 -0.5367
 3547TIP3   OH232055   4.785   2.313  11.754 -0.2752 -0.8160 -0.4488
 3547TIP3    H132056   4.818   2.227  11.779  0.2972  0.1536  2.5742
 3547TIP3    H232057   4.863   2.361  11.725 -0.3904 -0.9721 -1.0115
 3548TIP3   OH232058   0.661   4.615   0.985  0.6396 -0.2509  0.1976
 3548TIP3    H132059   0.609   4.634   0.907 -0.7131 -0.4795  1.0118
 3548TIP3    H232060   0.653   4.521   0.997 -0.6542 -0.0116  1.5779
 3549TIP3   OH232061   5.519   6.526  13.256 -0.4082 -0.0502 -0.1986
 3549TIP3    H132062   5.461   6.594  13.222 -0.4137  0.1602  0.2283
 3549TIP3    H232063   5.484   6.504  13.342 -0.6774 -0.9270 -0.5256
 3550TIP3   OH232064   0.137   0.251   0.260  0.1098 -0.2551  0.1670
 3550TIP3    H132065   0.115   0.236   0.168 -0.6319 -0.1758  0.3254
 3550TIP3    H232066   0.158   0.164   0.295 -0.1469 -0.3586  0.0619
 3551TIP3   OH232067   4.816   4.795  13.581  0.1248 -0.3716 -0.0013
 3551TIP3    H132068   4.822   4.797  13.676  1.3161 -2.4075  0.0190
 3551TIP3    H232069   4.782   4.708  13.561 -1.7071  0.6007 -1.4221
 3552TIP3   OH232070   6.439   3.954  11.949  0.1855  0.1417 -0.0877
 3552TIP3    H132071   6.354   3.976  11.988  0.1063  0.3408 -0.3703
 3552TIP3    H232072   6.501   4.010  11.996 -0.0148  0.9886 -0.8071
 3553TIP3   OH232073   6.525   4.326  12.569 -0.2244  0.2686 -0.1947
 3553TIP3    H132074   6.453   4.276  12.608 -0.6162  0.5957 -0.4826
 3553TIP3    H232075   6.487   4.365  12.491  0.4967 -0.2123 -0.7983
 3554TIP3   OH232076   4.854   3.422   4.116 -0.5295  0.1327 -0.3130
 3554TIP3    H132077   4.779   3.401   4.060 -1.3726  1.2400  0.3522
 3554TIP3    H232078   4.903   3.340   4.121 -1.4886 -0.5172 -1.0800
 3555TIP3   OH232079   1.113   2.750  15.317  0.2908 -0.4696  0.3615
 3555TIP3    H132080   1.157   2.834  15.321  0.6148 -0.6776  1.3940
 3555TIP3    H232081   1.100   2.734  15.223 -1.3585  1.5337  0.1765
 3556TIP3   OH232082   3.180   3.060  14.679  0.0984 -0.0831  0.0282
 3556TIP3    H132083   3.180   2.995  14.749  0.7165  1.6523  1.7344
 3556TIP3    H232084   3.270   3.093  14.677  0.0583 -0.0040 -1.5196
 3557TIP3   OH232085   2.019   4.822  16.250 -0.7644  0.3904  0.1261
 3557TIP3    H132086   2.002   4.917  16.248  1.5155  0.8417 -0.8436
 3557TIP3    H232087   2.095   4.813  16.307 -0.4786 -0.7684 -0.4147
 3558TIP3   OH232088   1.622   5.783  11.240 -0.0378 -0.2891  0.0067
 3558TIP3    H132089   1.679   5.708  11.222  1.6167  1.0094 -0.4126
 3558TIP3    H232090   1.556   5.779  11.171  0.0730 -1.3262 -0.0527
 3559TIP3   OH232091   5.871   1.495  11.104 -0.0190  0.0066 -0.2756
 3559TIP3    H132092   5.866   1.422  11.042 -1.1884 -0.1777  0.0069
 3559TIP3    H232093   5.811   1.560  11.069  0.9075  0.7927 -0.4431
 3560TIP3   OH232094   2.681   1.077  14.519  0.4868 -0.1995  0.1612
 3560TIP3    H132095   2.752   1.091  14.583 -0.4386  0.7478  1.0150
 3560TIP3    H232096   2.638   1.162  14.512  1.5565  0.2078 -3.0301
 3561TIP3   OH232097   4.878   2.282   1.108  0.0459  0.2380 -0.2437
 3561TIP3    H132098   4.827   2.359   1.085 -0.8131 -0.0964  0.4922
 3561TIP3    H232099   4.845   2.256   1.194  0.0824 -1.1399 -0.6205
 3562TIP3   OH232100   3.149   0.697  16.778  0.1854  0.2511 -0.0821
 3562TIP3    H132101   3.098   0.632  16.827 -2.1695  0.5305 -1.9588
 3562TIP3    H232102   3.220   0.646  16.738 -0.0101 -0.6478  0.6743
 3563TIP3   OH232103   3.796   0.050  15.372 -0.0321  0.0888 -0.1018
 3563TIP3    H132104   3.713   0.096  15.382  0.8701  1.8108 -0.2430
 3563TIP3    H232105   3.796   0.018  15.282 -0.3332  0.4914 -0.2427
 3564TIP3   OH232106   0.689   2.174  12.274  0.1631  0.6008 -0.3103
 3564TIP3    H132107   0.610   2.223  12.251  0.5115  0.9737 -0.7426
 3564TIP3    H232108   0.667   2.083  12.254 -0.6186  0.5152  0.8537
 3565TIP3   OH232109   1.407   0.246  11.379 -0.0151 -0.2080 -0.6475
 3565TIP3    H132110   1.412   0.178  11.312  2.3348 -0.3110 -0.4381
 3565TIP3    H232111   1.458   0.319  11.342  1.7668 -0.4524  1.1758
 3566TIP3   OH232112   5.011   0.152  14.174  0.2878  0.2955  0.2306
 3566TIP3    H132113   4.926   0.112  14.196  0.7031 -0.1554  1.0666
 3566TIP3    H232114   5.048   0.094  14.108  1.7272 -1.8832  2.7816
 3567TIP3   OH232115   0.618   2.611  16.385  0.1904 -0.1872 -0.3418
 3567TIP3    H132116   0.606   2.676  16.454  1.2812 -0.1069 -0.2166
 3567TIP3    H232117   0.567   2.535  16.414 -0.5229  0.3464 -0.1551
 3568TIP3   OH232118   0.467   3.294  16.748 -0.1137  0.1558 -0.3074
 3568TIP3    H132119   0.517   3.329  16.674  1.1377 -0.7322  0.0776
 3568TIP3    H232120   0.426   3.370  16.787 -1.8716  0.5228 -2.6397
 3569TIP3   OH232121   0.544   0.985  13.278 -0.7495  0.6143  0.4586
 3569TIP3    H132122   0.529   1.047  13.349 -1.4862  0.9629  0.0156
 3569TIP3    H232123   0.591   1.034  13.212 -0.6204  0.4686  0.4409
 3570TIP3   OH232124   0.339   5.974  15.041  0.2777  0.1462  0.3542
 3570TIP3    H132125   0.371   5.885  15.060  2.0366  0.2921 -1.5628
 3570TIP3    H232126   0.396   6.031  15.093 -1.0614  0.1943  1.8387
 3571TIP3   OH232127   6.260   2.384  13.839 -0.0331  0.3176  0.5215
 3571TIP3    H132128   6.182   2.437  13.853  0.3108  0.9409  0.1317
 3571TIP3    H232129   6.332   2.447  13.835  0.3726 -0.1641 -0.0630
 3572TIP3   OH232130   4.893   1.726  16.112  0.5798  0.1647 -0.0500
 3572TIP3    H132131   4.837   1.766  16.178 -0.8845  0.2991 -1.3151
 3572TIP3    H232132   4.972   1.781  16.111 -0.2077  1.3434  0.1995
 3573TIP3   OH232133   6.347   4.782  12.918 -0.1733  0.1440  0.0444
 3573TIP3    H132134   6.282   4.846  12.947  0.3369  0.9324 -0.5130
 3573TIP3    H232135   6.428   4.832  12.911 -0.0491 -0.2240 -1.7401
 3574TIP3   OH232136   5.436   1.547   5.756  0.1725  0.0818  0.0852
 3574TIP3    H132137   5.351   1.569   5.718  0.2059  1.3722  0.6974
 3574TIP3    H232138   5.417   1.475   5.816 -0.8393  1.4526  1.5017
 3575TIP3   OH232139   2.595   6.446  11.747  0.1218  0.5575  0.5813
 3575TIP3    H132140   2.691   6.439  11.751  0.0563 -0.2455  0.9367
 3575TIP3    H232141   2.569   6.461  11.838 -0.0516  1.4714  0.3901
 3576TIP3   OH232142   1.800   2.696  12.372 -0.5631  0.9260 -0.3018
 3576TIP3    H132143   1.865   2.653  12.427  0.0108  1.0309 -0.8779
 3576TIP3    H232144   1.779   2.777  12.418 -0.7206  0.6164  0.1744
 3577TIP3   OH232145   3.630   3.793   3.443 -0.0591 -0.0550  0.1951
 3577TIP3    H132146   3.540   3.815   3.467  0.1016  0.4352  0.3413
 3577TIP3    H232147   3.644   3.707   3.483 -0.3663 -0.0097  0.4086
 3578TIP3   OH232148   4.769   5.172   3.289  0.3244 -0.1093 -0.3175
 3578TIP3    H132149   4.718   5.233   3.235  0.6438 -0.5022 -1.0847
 3578TIP3    H232150   4.702   5.121   3.335 -0.1029 -1.7979 -2.6194
 3579TIP3   OH232151   6.176   4.842  15.332  0.5975 -0.3699  0.0659
 3579TIP3    H132152   6.233   4.774  15.368  0.4302  0.9838  3.2082
 3579TIP3    H232153   6.087   4.809  15.347  0.5225 -0.4605 -0.5577
 3580TIP3   OH232154   6.636   3.306   4.499 -0.1448 -0.2611  0.4443
 3580TIP3    H132155   6.696   3.302   4.574 -0.2987 -2.1778  0.5340
 3580TIP3    H232156   6.687   3.273   4.425 -0.8628 -1.3372  0.3937
 3581TIP3   OH232157   0.637   5.497   2.930  0.6613  0.6194 -0.2633
 3581TIP3    H132158   0.558   5.456   2.965 -0.2317  3.1765  0.8839
 3581TIP3    H232159   0.695   5.507   3.005  2.1400 -1.1553 -1.0777
 3582TIP3   OH232160   4.166   3.816  14.207  0.3283  0.2450 -0.2923
 3582TIP3    H132161   4.147   3.820  14.113  3.4169 -1.5454 -1.1540
 3582TIP3    H232162   4.227   3.889  14.222 -0.1738  0.5418  0.3446
 3583TIP3   OH232163   2.078   1.536   1.302 -0.0756 -0.5360  0.0636
 3583TIP3    H132164   2.109   1.626   1.291  2.5358 -1.0106  2.4177
 3583TIP3    H232165   1.983   1.545   1.313  0.2696  2.1792  1.9248
 3584TIP3   OH232166   6.686   5.146  12.636  0.0724 -0.9106 -0.6645
 3584TIP3    H132167   6.709   5.216  12.697  0.3122 -0.2407 -1.5030
 3584TIP3    H232168   6.590   5.141  12.639 -0.0333  0.2980 -1.4973
 3585TIP3   OH232169   3.207   6.139   2.770  0.3952  0.5272 -0.3041
 3585TIP3    H132170   3.132   6.111   2.823  0.2158  1.1691 -0.2094
 3585TIP3    H232171   3.273   6.166   2.833  1.0812 -0.9310 -0.3626
 3586TIP3   OH232172   5.831   5.169  15.709  0.1825  0.0555  0.1978
 3586TIP3    H132173   5.863   5.121  15.785  2.5268 -0.8994 -1.2805
 3586TIP3    H232174   5.856   5.260  15.725  3.6697 -0.5856 -0.7339
 3587TIP3   OH232175   4.712   5.284   2.159 -0.6557  0.7098 -0.2310
 3587TIP3    H132176   4.693   5.196   2.194  1.0545  0.7748  0.9948
 3587TIP3    H232177   4.647   5.341   2.201  1.3887  0.8163  3.2171
 3588TIP3   OH232178   1.949   5.394   2.342  0.0875 -0.7237 -0.0738
 3588TIP3    H132179   1.985   5.356   2.422 -1.1932 -0.0953  0.8467
 3588TIP3    H232180   1.953   5.488   2.356  0.7057 -0.5783 -1.1616
 3589TIP3   OH232181   5.196   4.435   4.619 -0.1751 -0.4246 -0.3929
 3589TIP3    H132182   5.103   4.439   4.600 -0.2672 -1.3606 -0.2223
 3589TIP3    H232183   5.214   4.512   4.673 -0.9135 -0.4188 -0.1572
 3590TIP3   OH232184   2.741   4.168   3.722  0.5684 -0.2111 -0.0191
 3590TIP3    H132185   2.742   4.204   3.633 -0.9644  1.1306  0.4403
 3590TIP3    H232186   2.799   4.226   3.772 -1.9400  1.8891  0.7325
 3591TIP3   OH232187   6.556   1.519  12.044 -0.0108 -0.1517 -0.1170
 3591TIP3    H132188   6.643   1.496  12.074 -0.7693 -0.9076  1.6531
 3591TIP3    H232189   6.523   1.582  12.107  0.0862  1.9870 -2.0775
 3592TIP3   OH232190   4.263   2.264   1.135  0.1439  0.1045 -0.0015
 3592TIP3    H132191   4.214   2.332   1.181 -0.6117 -0.6252  0.2954
 3592TIP3    H232192   4.333   2.238   1.196  0.4366  0.6056 -0.1185
 3593TIP3   OH232193   2.090   0.927  16.270  0.2212 -0.5979  0.2645
 3593TIP3    H132194   2.181   0.903  16.251  0.8472  0.2926  1.9600
 3593TIP3    H232195   2.039   0.860  16.226  1.6558 -0.7446 -1.3099
 3594TIP3   OH232196   3.171   4.617  11.418 -0.1784  0.8548  0.4367
 3594TIP3    H132197   3.236   4.567  11.467  0.9970  2.7910  0.9435
 3594TIP3    H232198   3.170   4.703  11.460 -1.9290  1.3766 -0.5664
 3595TIP3   OH232199   2.756   6.281   2.701  0.5922  0.2429 -0.0860
 3595TIP3    H132200   2.811   6.297   2.777  0.6051 -1.5183  0.3285
 3595TIP3    H232201   2.666   6.285   2.734  0.2881  4.1572 -0.9636
 3596TIP3   OH232202   2.943   0.567   3.300  0.2603 -0.6097  1.1246
 3596TIP3    H132203   2.971   0.567   3.209 -1.0720  0.2297  0.6958
 3596TIP3    H232204   3.021   0.595   3.348  0.6670  0.0194  0.1357
 3597TIP3   OH232205   2.679   3.228   5.336 -0.2249  0.4733  0.6204
 3597TIP3    H132206   2.624   3.276   5.274  1.5199  2.1539  0.2944
 3597TIP3    H232207   2.730   3.296   5.381  1.5970 -0.9963  0.9013
 3598TIP3   OH232208   6.430   5.221  15.044  0.0887 -0.0349 -0.6064
 3598TIP3    H132209   6.407   5.245  14.954  0.5560 -0.3720 -0.8221
 3598TIP3    H232210   6.358   5.164  15.073 -0.2901  0.4440 -0.6037
 3599TIP3   OH232211   2.285   1.881  13.579 -0.1539  0.4470 -0.5196
 3599TIP3    H132212   2.348   1.953  13.573  0.0367  0.2801 -0.5789
 3599TIP3    H232213   2.203   1.918  13.546 -0.2197  0.8134  0.0408
 3600TIP3   OH232214   1.078   0.317   4.173 -0.0619 -0.0348 -0.4913
 3600TIP3    H132215   0.984   0.334   4.168 -0.4507 -1.5094  0.9782
 3600TIP3    H232216   1.088   0.228   4.139  1.2151  1.0452 -3.1961
 3601TIP3   OH232217   6.446   5.832  12.745  0.0313  0.0646  0.2900
 3601TIP3    H132218   6.377   5.871  12.692  0.0318  1.3469  1.1806
 3601TIP3    H232219   6.399   5.782  12.812  0.0035 -0.0835  0.1622
 3602TIP3   OH232220   4.665   0.227  14.141  0.4264 -0.5602 -0.4634
 3602TIP3    H132221   4.618   0.296  14.188  1.6728 -0.7878  1.2266
 3602TIP3    H232222   4.716   0.274  14.075 -1.2520 -0.2182 -1.5659
 3603TIP3   OH232223   3.192   4.823  13.967  0.1338 -0.6173 -0.0591
 3603TIP3    H132224   3.166   4.866  14.049 -2.4923 -0.7344 -0.7264
 3603TIP3    H232225   3.266   4.767  13.992 -0.5937 -0.6723  2.2568
 3604TIP3   OH232226   2.290   1.610  13.736 -0.5337 -0.2483  0.6265
 3604TIP3    H132227   2.216   1.554  13.759 -0.4323 -0.8749 -0.5474
 3604TIP3    H232228   2.251   1.696  13.722 -1.1627 -0.7163 -0.6358
 3605TIP3   OH232229   0.020   2.659   3.345 -0.1125 -0.6372 -0.0337
 3605TIP3    H132230   0.093   2.644   3.286  1.4132 -3.0360  2.2574
 3605TIP3    H232231  -0.049   2.600   3.313 -0.5768  0.5472 -1.3172
 3606TIP3   OH232232   6.013   4.927  11.728 -0.5231  0.0561 -0.0945
 3606TIP3    H132233   5.990   4.987  11.658 -2.4151 -0.1911  0.2564
 3606TIP3    H232234   6.048   4.983  11.797 -2.5025  0.8542  0.3344
 3607TIP3   OH232235   4.349   4.049   3.912 -0.7137 -0.2305 -0.1438
 3607TIP3    H132236   4.288   4.004   3.971 -0.4317  0.9701  1.1179
 3607TIP3    H232237   4.376   4.127   3.960  0.6279  0.0734 -1.3079
 3608TIP3   OH232238   4.398   3.400  10.846  0.4627 -0.6276 -0.1012
 3608TIP3    H132239   4.423   3.383  10.755 -0.4695 -0.6552 -0.3679
 3608TIP3    H232240   4.305   3.375  10.849  0.2647  0.1875  0.6453
 3609TIP3   OH232241   6.072   2.988  10.990  0.1788  0.0268 -0.0898
 3609TIP3    H132242   6.111   2.922  10.933  1.0842  0.4501  0.0328
 3609TIP3    H232243   6.146   3.031  11.032 -0.4684 -0.4793  1.6606
 3610TIP3   OH232244   6.077   4.422  15.623 -0.3789 -0.2730  0.0438
 3610TIP3    H132245   6.105   4.465  15.542 -0.4510 -0.5041 -0.1043
 3610TIP3    H232246   6.140   4.452  15.689 -0.3083 -0.0996 -0.1017
 3611TIP3   OH232247   5.739   5.489   0.736  0.2757 -0.1799  0.2344
 3611TIP3    H132248   5.674   5.558   0.730  0.4004 -0.0663  0.1766
 3611TIP3    H232249   5.803   5.510   0.668  0.0052 -0.6824 -0.1730
 3612TIP3   OH232250   0.793   6.397   6.485 -0.2751  0.5630 -0.0595
 3612TIP3    H132251   0.766   6.429   6.571  0.8587  0.5956  0.3019
 3612TIP3    H232252   0.850   6.466   6.451 -0.9723  0.6995 -0.9915
 3613TIP3   OH232253   6.761   6.354  12.370 -0.2002 -0.4619  0.4756
 3613TIP3    H132254   6.694   6.368  12.303 -0.2838  1.1072  0.8398
 3613TIP3    H232255   6.796   6.267  12.351  0.3085  0.2223 -2.0816
 3614TIP3   OH232256   6.723   4.228  14.309  0.4182  0.4185  0.1674
 3614TIP3    H132257   6.752   4.319  14.300  2.1223 -0.0900  0.2512
 3614TIP3    H232258   6.754   4.202  14.396 -0.4735 -0.1068  0.3343
 3615TIP3   OH232259   1.115   1.790  15.348  0.4360 -0.1323  0.1631
 3615TIP3    H132260   1.145   1.700  15.361  0.1810 -0.0852  1.1126
 3615TIP3    H232261   1.040   1.783  15.289  0.2013 -0.5664  0.5193
 3616TIP3   OH232262   2.155   5.353  13.060  0.1846  0.8507  0.5129
 3616TIP3    H132263   2.151   5.302  12.979 -1.2243  0.9796  0.4906
 3616TIP3    H232264   2.181   5.289  13.127  1.2361  0.7189 -0.0040
 3617TIP3   OH232265   4.840   2.051  13.317  0.1306 -0.8676  0.1653
 3617TIP3    H132266   4.914   2.112  13.324 -1.2104  0.6902  1.7087
 3617TIP3    H232267   4.881   1.965  13.311  2.0783  0.0772 -1.0132
 3618TIP3   OH232268   5.242   2.720   1.168 -0.2015  0.1037  0.2383
 3618TIP3    H132269   5.178   2.674   1.223 -0.6942 -2.0043 -1.9359
 3618TIP3    H232270   5.321   2.726   1.223 -0.3038 -2.9151  0.8850
 3619TIP3   OH232271   2.085   2.095  15.917  0.2190  0.0590 -0.0473
 3619TIP3    H132272   2.061   2.011  15.878  1.3087 -1.0885  1.6089
 3619TIP3    H232273   2.180   2.091  15.924  0.2338  1.2096  0.5481
 3620TIP3   OH232274   2.326   2.940   6.488  0.0905 -0.5662  0.2694
 3620TIP3    H132275   2.260   2.984   6.542 -0.5221  0.2247 -1.0412
 3620TIP3    H232276   2.313   2.847   6.504 -3.0281 -0.6189 -1.6633
 3621TIP3   OH232277   2.477   3.332   5.126 -0.2716 -0.2948 -0.2122
 3621TIP3    H132278   2.521   3.412   5.097  1.5664 -1.0731  0.2636
 3621TIP3    H232279   2.424   3.359   5.201  0.4448  0.4712  0.0381
 3622TIP3   OH232280   4.721   1.433   4.015  0.2502  0.2041  0.0221
 3622TIP3    H132281   4.813   1.414   4.033 -0.1110 -1.4828  0.2485
 3622TIP3    H232282   4.690   1.479   4.094  0.9874  1.2256 -0.2547
 3623TIP3   OH232283   3.570   4.387   2.670  0.1554  0.2225 -0.0177
 3623TIP3    H132284   3.493   4.417   2.719  0.9855  1.3987  0.6111
 3623TIP3    H232285   3.533   4.344   2.593 -1.1780  2.5322 -0.8039
 3624TIP3   OH232286   6.502   6.324  16.704 -0.3035  0.0949  0.7655
 3624TIP3    H132287   6.459   6.255  16.655  2.2916 -1.5130  0.5624
 3624TIP3    H232288   6.579   6.347  16.652 -0.6248  2.5876  1.2473
 3625TIP3   OH232289   0.904   5.873  11.886 -1.0627  0.0286 -0.3283
 3625TIP3    H132290   0.917   5.896  11.978 -1.3948 -0.0933 -0.2495
 3625TIP3    H232291   0.843   5.939  11.853 -0.6693  0.2814 -0.5531
 3626TIP3   OH232292   4.986   1.158  11.866 -0.0816  0.8137  0.4493
 3626TIP3    H132293   5.063   1.163  11.808 -1.0597 -0.6706 -1.1070
 3626TIP3    H232294   4.917   1.125  11.809 -0.6195 -2.8588  2.8810
 3627TIP3   OH232295   0.280   2.290  11.849 -0.2027  0.1280 -0.1222
 3627TIP3    H132296   0.368   2.285  11.887 -0.0196 -0.1300 -0.5783
 3627TIP3    H232297   0.221   2.276  11.924  0.1725 -3.2608 -0.3044
 3628TIP3   OH232298   2.348   0.556   1.207  0.8623 -0.1190 -0.3990
 3628TIP3    H132299   2.289   0.491   1.244 -0.3322  1.3353  0.3003
 3628TIP3    H232300   2.298   0.598   1.137 -0.2303  3.2797  2.1756
 3629TIP3   OH232301   2.274   0.845  14.554 -0.1693 -0.9729 -0.0496
 3629TIP3    H132302   2.199   0.791  14.579 -1.6498  1.6924  1.7176
 3629TIP3    H232303   2.299   0.811  14.468 -1.7706 -3.5785  0.3805
 3630TIP3   OH232304   5.138   0.192   3.596 -0.0825  0.3176  0.5896
 3630TIP3    H132305   5.071   0.133   3.561  0.1895 -0.3442  1.1525
 3630TIP3    H232306   5.088   0.257   3.646 -0.5006  1.5135 -1.3048
 3631TIP3   OH232307   2.435   2.661   1.769 -0.2672  0.5639  0.3787
 3631TIP3    H132308   2.492   2.615   1.830 -0.7454 -0.3079  0.1964
 3631TIP3    H232309   2.365   2.697   1.823  0.1811  1.2004  0.5398
 3632TIP3   OH232310   4.297   6.462  13.504 -0.3967  0.1836 -0.0906
 3632TIP3    H132311   4.383   6.421  13.504  0.0134  0.9930 -1.5729
 3632TIP3    H232312   4.313   6.555  13.520 -1.1133  0.1776  0.7956
 3633TIP3   OH232313   2.151   1.964   2.532  0.3571  0.3467 -0.6890
 3633TIP3    H132314   2.103   1.971   2.614 -0.1225 -0.4372 -0.8909
 3633TIP3    H232315   2.166   1.870   2.520  0.3770  0.4439 -1.5184
 3634TIP3   OH232316   4.289   0.382  11.011  0.2309 -0.0016  1.0341
 3634TIP3    H132317   4.213   0.326  10.993  0.9192 -0.6249 -0.0096
 3634TIP3    H232318   4.260   0.470  10.989 -0.3789 -0.1516  1.2239
 3635TIP3   OH232319   2.404   1.706   4.197 -0.2393 -0.0140 -0.2110
 3635TIP3    H132320   2.458   1.647   4.250 -0.8991 -0.7945 -0.3850
 3635TIP3    H232321   2.457   1.722   4.119  0.3004  0.3089  0.2119
 3636TIP3   OH232322   5.251   4.122   0.445  0.0791  0.9006  0.2424
 3636TIP3    H132323   5.264   4.102   0.352  0.3957  0.9612  0.2724
 3636TIP3    H232324   5.221   4.212   0.446 -2.0327  0.2370  0.0592
 3637TIP3   OH232325   6.355   4.778   2.494 -0.2031 -0.3381 -0.1761
 3637TIP3    H132326   6.395   4.854   2.451 -1.4064  0.8477  0.7111
 3637TIP3    H232327   6.312   4.814   2.571 -0.6744 -1.9656  0.3655
 3638TIP3   OH232328   4.575   5.206  13.340  0.1007  0.1069  0.6158
 3638TIP3    H132329   4.562   5.206  13.245 -1.6069  0.0884  0.8235
 3638TIP3    H232330   4.622   5.125  13.357 -2.4959 -1.6338  0.0918
 3639TIP3   OH232331   4.046   1.557  16.421  0.1482  0.2530 -0.1087
 3639TIP3    H132332   3.950   1.563  16.414  0.2260 -0.6805 -2.9837
 3639TIP3    H232333   4.062   1.467  16.447  0.2713  0.4144  0.3871
 3640TIP3   OH232334   6.592   4.812  14.694 -0.0316  0.3265 -0.0514
 3640TIP3    H132335   6.590   4.759  14.614  3.0988  0.6025 -0.4554
 3640TIP3    H232336   6.607   4.749  14.764  1.4292  0.4139 -0.2544
 3641TIP3   OH232337   0.317   0.428  16.449 -0.2417 -0.1480 -0.4583
 3641TIP3    H132338   0.399   0.381  16.435 -1.2300 -2.0420 -0.3390
 3641TIP3    H232339   0.313   0.492  16.378  0.7375 -0.9324 -1.2577
 3642TIP3   OH232340   4.227   0.135   4.701  0.2723  0.1429  0.3261
 3642TIP3    H132341   4.294   0.170   4.641 -0.3999 -0.9596 -1.1445
 3642TIP3    H232342   4.277   0.104   4.776  1.1959  1.2300  0.2043
 3643TIP3   OH232343   3.739   1.837  11.146  0.1980 -0.1727 -0.3935
 3643TIP3    H132344   3.690   1.917  11.124  1.0720  0.8712  1.2025
 3643TIP3    H232345   3.826   1.869  11.172  0.1915 -1.4976  1.4904
 3644TIP3   OH232346   1.572   3.347   4.045  0.1449 -0.1737  0.3121
 3644TIP3    H132347   1.605   3.436   4.037  1.5528 -0.8331 -2.4025
 3644TIP3    H232348   1.477   3.356   4.047  0.1017  1.3530 -2.7738
 3645TIP3   OH232349   6.119   1.888   1.148  0.0230 -0.2170 -0.3631
 3645TIP3    H132350   6.198   1.879   1.095  0.2288 -1.7010  0.1297
 3645TIP3    H232351   6.080   1.800   1.147 -1.0457  0.2274  0.2891
 3646TIP3   OH232352   4.559   3.430   1.378  0.6200 -0.1261  0.0488
 3646TIP3    H132353   4.524   3.389   1.457 -0.0151 -0.8608 -0.5951
 3646TIP3    H232354   4.579   3.357   1.320  1.6854  0.3720 -0.2384
 3647TIP3   OH232355   6.607   6.575   3.221 -0.3078  0.1014  0.1125
 3647TIP3    H132356   6.568   6.601   3.138 -0.5693 -0.7068 -0.0312
 3647TIP3    H232357   6.655   6.652   3.251 -2.2216  1.2285  0.4306
 3648TIP3   OH232358   1.066   1.333   3.369  0.5817 -0.5171  0.3351
 3648TIP3    H132359   1.134   1.362   3.431  0.0981  0.1746  0.5608
 3648TIP3    H232360   0.993   1.392   3.386  1.2360  1.2801 -2.5194
 3649TIP3   OH232361   4.072   3.109   1.618  0.0890 -0.4100  0.0107
 3649TIP3    H132362   4.075   3.102   1.713  0.7094  1.2881  0.1535
 3649TIP3    H232363   4.155   3.152   1.595 -0.2929 -0.3030 -1.2349
 3650TIP3   OH232364   0.741   3.349   2.122  0.4327 -0.0040 -0.2697
 3650TIP3    H132365   0.686   3.426   2.134  0.8186  0.3928 -1.0001
 3650TIP3    H232366   0.686   3.275   2.149  0.9317  0.6855  3.1421
 3651TIP3   OH232367   2.007   1.504  14.733  0.3840  0.0725  0.3873
 3651TIP3    H132368   1.924   1.464  14.710 -0.5031  1.1457  1.5353
 3651TIP3    H232369   2.003   1.514  14.829  1.4417  0.9293  0.3674
 3652TIP3   OH232370   5.303   3.493   3.598 -0.3333 -0.1325 -0.3389
 3652TIP3    H132371   5.289   3.540   3.516 -2.4124 -1.2146 -0.6669
 3652TIP3    H232372   5.382   3.533   3.635  1.5065 -0.5225 -3.4807
 3653TIP3   OH232373   6.559   4.782   3.112  0.1175  0.4736  0.5331
 3653TIP3    H132374   6.550   4.726   3.034 -0.5594  0.8076  0.3667
 3653TIP3    H232375   6.608   4.858   3.080  2.4711 -0.6962  1.1153
 3654TIP3   OH232376   3.115   2.007   0.678 -0.1025  0.0043  0.0962
 3654TIP3    H132377   3.170   1.963   0.744  1.6065 -1.1635 -1.9641
 3654TIP3    H232378   3.062   1.936   0.641 -2.0087  0.8748  1.0415
 3655TIP3   OH232379   4.318   2.345   3.703 -0.3766  0.2180  0.0300
 3655TIP3    H132380   4.367   2.412   3.655  0.8182  0.4358  1.4820
 3655TIP3    H232381   4.383   2.304   3.760 -1.3772 -1.2703  0.1601
 3656TIP3   OH232382   6.640   2.061  12.331  0.0222  0.0142  0.1601
 3656TIP3    H132383   6.611   2.149  12.354  0.4423  0.0222  0.6835
 3656TIP3    H232384   6.561   2.016  12.303 -0.4231  0.1878  1.0853
 3657TIP3   OH232385   1.387   4.349   4.383  0.5496  0.2653  0.0378
 3657TIP3    H132386   1.327   4.422   4.367 -0.5934 -0.9313 -1.5202
 3657TIP3    H232387   1.454   4.384   4.441  0.6963  2.8959 -1.5784
 3658TIP3   OH232388   4.689   2.555   3.732 -0.2957  0.4414  0.0067
 3658TIP3    H132389   4.631   2.525   3.661 -0.3450 -0.5933  0.4785
 3658TIP3    H232390   4.629   2.596   3.795 -0.4524 -0.1208  0.2272
 3659TIP3   OH232391   6.309   6.058   1.767 -0.2546  0.0256  0.0039
 3659TIP3    H132392   6.246   6.127   1.789 -0.4804 -0.6559  1.6483
 3659TIP3    H232393   6.254   5.983   1.741 -0.0053  0.7223 -2.9403
 3660TIP3   OH232394   6.395   1.428   2.677 -0.6202 -0.0366 -0.6815
 3660TIP3    H132395   6.394   1.477   2.760  2.2644  2.7876 -2.1121
 3660TIP3    H232396   6.468   1.368   2.687  0.3023  0.9305 -1.4311
 3661TIP3   OH232397   4.550   2.400   3.072 -0.0379  0.0600 -0.2154
 3661TIP3    H132398   4.514   2.353   2.996 -1.1853 -1.1786  1.0150
 3661TIP3    H232399   4.482   2.464   3.094  0.9899  1.5083 -1.1498
 3662TIP3   OH232400   3.546   0.756   4.174 -0.0786  0.6322 -0.7665
 3662TIP3    H132401   3.586   0.766   4.260  0.2670  1.0636 -0.9739
 3662TIP3    H232402   3.603   0.695   4.127 -0.6761 -0.2008 -0.4447
 3663TIP3   OH232403   5.973   1.267  12.716 -0.0599  0.0963  0.2024
 3663TIP3    H132404   5.964   1.232  12.628  0.7118 -1.1189  0.5952
 3663TIP3    H232405   6.026   1.346  12.705  0.1678 -0.1342 -0.3946
 3664TIP3   OH232406   5.238   3.481   0.996  0.3064  0.0457 -0.1213
 3664TIP3    H132407   5.262   3.572   0.983  0.7006  0.1392  1.1257
 3664TIP3    H232408   5.244   3.467   1.091 -2.9509 -0.3780  0.1439
 3665TIP3   OH232409   4.653   1.076   0.648 -0.3190  0.5020 -0.3107
 3665TIP3    H132410   4.746   1.064   0.629 -0.2080  1.7177 -0.6388
 3665TIP3    H232411   4.616   0.988   0.647  1.0609 -0.1247  1.1181
 3666TIP3   OH232412   6.181   2.369  14.648 -0.2910  0.4513 -0.0840
 3666TIP3    H132413   6.270   2.401  14.634  0.4235 -0.9603  0.9510
 3666TIP3    H232414   6.150   2.417  14.725  0.2520 -0.2677  0.6069
 3667TIP3   OH232415   1.643   3.241   2.062  0.2818 -0.1648  1.3433
 3667TIP3    H132416   1.631   3.222   1.968 -0.6392  0.0197  1.4160
 3667TIP3    H232417   1.690   3.165   2.095  0.5108 -0.2906  0.7565
 3668TIP3   OH232418   2.560   5.216   4.815  0.2006 -0.8693  0.6916
 3668TIP3    H132419   2.480   5.270   4.817  2.1765  2.2834  1.1681
 3668TIP3    H232420   2.612   5.249   4.889  2.4464 -1.9814 -0.3216
 3669TIP3   OH232421   1.811   3.988   0.458  0.3626 -0.4342 -0.5309
 3669TIP3    H132422   1.755   4.065   0.467 -0.2890 -0.7895 -1.4195
 3669TIP3    H232423   1.783   3.947   0.376 -1.0558 -3.0525  1.1238
 3670TIP3   OH232424   2.972   3.082  16.068  0.2510 -0.1642  0.6394
 3670TIP3    H132425   2.902   3.041  16.118 -2.0839  1.6338 -0.9164
 3670TIP3    H232426   2.960   3.176  16.082 -0.0576  0.3915 -2.4963
 3671TIP3   OH232427   6.572   4.424   3.443 -0.8737  0.2810 -0.0175
 3671TIP3    H132428   6.650   4.435   3.389 -1.0122  0.9731 -0.0832
 3671TIP3    H232429   6.604   4.433   3.533 -0.5648 -1.3167  0.0682
 3672TIP3   OH232430   5.210   5.158   1.888  0.7361  0.2959 -0.0982
 3672TIP3    H132431   5.140   5.202   1.937  1.9296  1.2299  0.8301
 3672TIP3    H232432   5.210   5.200   1.803 -3.5005 -3.4425 -2.3992
 3673TIP3   OH232433   2.393   5.506  15.581  0.0602 -0.2481  0.2586
 3673TIP3    H132434   2.446   5.431  15.610 -1.8453 -1.3034  1.1758
 3673TIP3    H232435   2.393   5.565  15.657 -2.5420 -1.6902  1.5144
 3674TIP3   OH232436   4.996   4.619  14.800 -0.5610  0.2932  0.7225
 3674TIP3    H132437   4.928   4.677  14.763  0.4160  2.4847  2.1513
 3674TIP3    H232438   4.947   4.548  14.841 -1.9307  1.0916  0.5437
 3675TIP3   OH232439   6.007   3.024  15.692  0.5245  0.5732  0.1842
 3675TIP3    H132440   6.082   3.081  15.707  0.4335  0.6724  0.2649
 3675TIP3    H232441   6.015   2.955  15.758  1.7295 -0.6359 -1.1460
 3676TIP3   OH232442   0.831   4.625  15.436  0.2012  0.2325 -0.2547
 3676TIP3    H132443   0.922   4.653  15.448  0.2236 -0.5339  1.7213
 3676TIP3    H232444   0.785   4.706  15.413  0.8342  1.3328  1.9923
 3677TIP3   OH232445   5.896   3.334   1.580 -0.3036  0.0964 -0.2980
 3677TIP3    H132446   5.962   3.398   1.553 -0.7419  0.5065 -0.4074
 3677TIP3    H232447   5.884   3.278   1.503 -0.6806  0.5294 -0.5580
 3678TIP3   OH232448   3.684   4.644  15.779  0.1903  0.2409 -0.3260
 3678TIP3    H132449   3.764   4.624  15.828  0.4943  0.6129 -0.6674
 3678TIP3    H232450   3.614   4.610  15.834  0.5614  0.1938  0.1271
 3679TIP3   OH232451   5.094   4.016  15.512 -0.0141 -0.5430 -0.2145
 3679TIP3    H132452   5.020   4.071  15.539  1.1690  1.2171 -0.3817
 3679TIP3    H232453   5.069   3.984  15.425 -1.6092 -2.0254  0.7278
 3680TIP3   OH232454   3.346   4.923  13.568  0.3409  0.0425  0.4796
 3680TIP3    H132455   3.368   5.013  13.593 -0.8769  0.5738 -0.2931
 3680TIP3    H232456   3.383   4.913  13.480 -3.4545  1.4663 -1.5216
 3681TIP3   OH232457   2.323   2.670   6.529 -0.4402 -0.0331 -0.5547
 3681TIP3    H132458   2.407   2.699   6.494 -0.9974  0.4300 -1.5696
 3681TIP3    H232459   2.345   2.603   6.594  0.7954  1.2877  0.4543
 3682TIP3   OH232460   5.800   5.589   4.262  0.5888 -0.2848 -0.2631
 3682TIP3    H132461   5.868   5.556   4.320 -0.0934 -2.5109 -0.6502
 3682TIP3    H232462   5.757   5.511   4.228 -2.2976  1.0302  0.1020
 3683TIP3   OH232463   3.608   5.776   5.499 -0.4044 -0.1681 -0.1616
 3683TIP3    H132464   3.591   5.852   5.555 -0.1846  0.1096 -0.4658
 3683TIP3    H232465   3.534   5.773   5.439 -0.4575 -0.2458 -0.0920
 3684TIP3   OH232466   3.292   5.977  14.092 -0.1740  0.0378 -0.3230
 3684TIP3    H132467   3.344   6.020  14.160  0.1691  1.0704 -1.2131
 3684TIP3    H232468   3.215   5.945  14.138  0.9611 -1.0392  0.9184
 3685TIP3   OH232469   3.526   4.989  14.611 -0.2095 -0.4226  0.3983
 3685TIP3    H132470   3.576   5.036  14.677  1.3337 -0.8046 -0.4505
 3685TIP3    H232471   3.480   5.058  14.563  0.2545  0.0283  0.5935
 3686TIP3   OH232472   2.840   3.848  13.844  0.3060  0.8250  0.9491
 3686TIP3    H132473   2.843   3.823  13.937  2.6663  1.7784  1.2087
 3686TIP3    H232474   2.918   3.807  13.806 -1.5568 -1.0784 -1.1267
 3687TIP3   OH232475   2.812   2.982  11.523  0.0187 -0.1248  0.1516
 3687TIP3    H132476   2.851   3.030  11.450 -0.4950  0.8762  0.5240
 3687TIP3    H232477   2.799   3.048  11.591 -0.2863 -0.8837  0.8439
 3688TIP3   OH232478   1.554   6.661   3.739 -0.1963  0.2540  0.5336
 3688TIP3    H132479   1.595   6.719   3.804  0.6167  0.7873 -0.4212
 3688TIP3    H232480   1.526   6.719   3.669 -0.6162 -0.3692  0.1727
 3689TIP3   OH232481   3.456   4.532  13.383 -0.2087 -0.0543  0.4879
 3689TIP3    H132482   3.472   4.606  13.442 -0.1047  1.4399 -1.2991
 3689TIP3    H232483   3.382   4.560  13.330 -0.2063 -1.2782 -0.1900
 3690TIP3   OH232484   0.853   0.135   3.731  0.0404  0.4149 -0.5260
 3690TIP3    H132485   0.787   0.069   3.754  0.1736  0.8828  1.3164
 3690TIP3    H232486   0.921   0.086   3.686  0.3369 -0.8207  1.1796
 3691TIP3   OH232487   6.338   0.313  13.933 -0.2077 -0.6196 -0.3491
 3691TIP3    H132488   6.253   0.306  13.889 -0.9057  0.9124  0.6987
 3691TIP3    H232489   6.330   0.256  14.009 -0.4876 -0.0983  0.0177
 3692TIP3   OH232490   1.340   2.797  16.567  0.1859 -0.3205  0.2573
 3692TIP3    H132491   1.276   2.734  16.599 -2.8506  2.2039 -0.2947
 3692TIP3    H232492   1.401   2.810  16.640 -1.5701 -0.8382  1.8833
 3693TIP3   OH232493   6.568   4.897  13.858  0.1291 -0.4050 -0.1872
 3693TIP3    H132494   6.508   4.960  13.898  0.1420 -0.8241  0.5109
 3693TIP3    H232495   6.591   4.838  13.930  1.7819  0.0474 -0.3189
 3694TIP3   OH232496   0.761   5.537  15.305  0.6169 -0.1865 -0.7439
 3694TIP3    H132497   0.853   5.541  15.332  0.1325  1.4415  0.9214
 3694TIP3    H232498   0.740   5.443  15.303  1.8788 -0.5246  0.5182
 3695TIP3   OH232499   0.649   5.149   5.741  0.4886 -0.7893  0.4645
 3695TIP3    H132500   0.714   5.164   5.673  0.3933  0.0099  0.5455
 3695TIP3    H232501   0.565   5.169   5.699  0.5629  1.5950  1.3223
 3696TIP3   OH232502   6.300   0.529   4.205 -0.4506  0.6448  0.1424
 3696TIP3    H132503   6.281   0.442   4.241  0.8406 -0.1721 -1.0432
 3696TIP3    H232504   6.302   0.587   4.281 -0.3890 -0.5362  1.0732
 3697TIP3   OH232505   2.065   4.761   2.241 -0.1877 -0.0917 -0.3135
 3697TIP3    H132506   2.111   4.845   2.250 -0.1786 -0.0639 -0.5939
 3697TIP3    H232507   2.100   4.723   2.160 -0.7707  0.0074 -0.6205
 3698TIP3   OH232508   0.913   0.137  13.466  0.0515  0.8091  0.1011
 3698TIP3    H132509   0.837   0.108  13.416 -0.4209  1.2288  0.5597
 3698TIP3    H232510   0.965   0.188  13.404 -0.3370  1.0079 -0.0609
 3699TIP3   OH232511   2.447   6.703   2.232 -0.5245  0.4425 -0.1811
 3699TIP3    H132512   2.435   6.611   2.258 -0.3045  0.4202 -0.1493
 3699TIP3    H232513   2.380   6.751   2.279  1.1296  0.6968  2.0923
 3700TIP3   OH232514   1.641   4.583  16.438  0.4854  0.0968 -0.0247
 3700TIP3    H132515   1.622   4.509  16.380 -1.0722 -0.0509  0.6507
 3700TIP3    H232516   1.634   4.547  16.526  0.4987  0.8735  0.2992
 3701TIP3   OH232517   2.974   6.723  12.745  0.7103  0.5449  0.0106
 3701TIP3    H132518   2.983   6.818  12.744  0.3881  0.5784 -0.8347
 3701TIP3    H232519   2.964   6.701  12.838  0.8731  1.3234  0.2233
 3702TIP3   OH232520   6.711   2.887   5.414 -0.0156  0.2089  0.0167
 3702TIP3    H132521   6.640   2.828   5.387 -1.1601  1.6549 -0.2757
 3702TIP3    H232522   6.684   2.973   5.382  2.1656  0.7323 -0.5916
 3703TIP3   OH232523   0.224   1.621   4.350 -0.3867  0.0664 -0.2009
 3703TIP3    H132524   0.292   1.622   4.284 -0.9366  0.4203 -0.7759
 3703TIP3    H232525   0.266   1.658   4.428  0.7550 -1.9428  0.1821
 3704TIP3   OH232526   3.703   6.318   2.656 -0.0009 -0.2210 -0.2491
 3704TIP3    H132527   3.764   6.326   2.584 -1.2568 -0.7956 -1.4199
 3704TIP3    H232528   3.634   6.382   2.638 -1.2306 -1.5687 -0.5354
 3705TIP3   OH232529   3.737   2.604  14.118 -0.0767  0.4720 -0.2878
 3705TIP3    H132530   3.657   2.600  14.170 -0.1377 -0.4245 -0.4362
 3705TIP3    H232531   3.806   2.623  14.182 -0.2111 -0.1940  0.0644
 3706TIP3   OH232532   5.391   0.591   3.744  0.6508 -0.3296 -0.1581
 3706TIP3    H132533   5.310   0.602   3.794  0.3400 -1.1456 -0.4506
 3706TIP3    H232534   5.408   0.677   3.705 -0.7611 -0.4390 -1.0983
 3707TIP3   OH232535   6.363   6.527   2.544  0.0966  0.6339  0.5459
 3707TIP3    H132536   6.301   6.475   2.595  1.5216  0.1788  1.8924
 3707TIP3    H232537   6.321   6.613   2.536 -1.6402 -0.2504 -0.4529
 3708TIP3   OH232538   5.486   0.341   0.016  0.0219 -0.2818  0.2681
 3708TIP3    H132539   5.393   0.357   0.035  0.3705  1.1225  0.9155
 3708TIP3    H232540   5.528   0.426   0.031  1.5782 -1.1626  1.0182
 3709TIP3   OH232541   5.944   0.602  11.123 -0.0564  0.2325 -0.4646
 3709TIP3    H132542   5.987   0.578  11.041  1.4726  1.3708 -0.0593
 3709TIP3    H232543   5.996   0.676  11.155  0.8553 -1.5736  2.6660
 3710TIP3   OH232544   0.273   2.439  13.636  0.2281 -0.3152  0.1227
 3710TIP3    H132545   0.281   2.492  13.557  0.5650 -0.9494 -0.2747
 3710TIP3    H232546   0.202   2.377  13.617 -1.5032  1.1827  1.2871
 3711TIP3   OH232547   6.340   1.327  15.509  0.2424 -0.0891  0.1372
 3711TIP3    H132548   6.249   1.325  15.541 -0.9715  1.1795 -2.8662
 3711TIP3    H232549   6.367   1.235  15.509 -0.8414 -0.4497  1.5338
 3712TIP3   OH232550   1.666   6.337   5.737 -0.5415 -0.0650  0.2850
 3712TIP3    H132551   1.658   6.369   5.827 -1.2501 -0.2575  0.2949
 3712TIP3    H232552   1.732   6.394   5.697  0.2875 -0.4071  1.1173
 3713TIP3   OH232553   4.087   4.656   2.985 -0.6188  0.2161  0.6946
 3713TIP3    H132554   3.996   4.683   2.994 -0.4919  1.2522 -0.7772
 3713TIP3    H232555   4.120   4.707   2.911  0.8395 -0.9951  0.4680
 3714TIP3   OH232556   5.581   5.250  17.018 -0.1815 -0.0055  0.1286
 3714TIP3    H132557   5.591   5.333  17.065  2.8382  0.5524 -1.2517
 3714TIP3    H232558   5.511   5.266  16.955  0.4630  1.5710 -0.2173
 3715TIP3   OH232559   0.621   5.845  14.902 -0.1805 -0.3014 -0.6550
 3715TIP3    H132560   0.555   5.914  14.899  0.3578  0.2833  0.6859
 3715TIP3    H232561   0.603   5.798  14.983  2.0840  0.9433  0.6500
 3716TIP3   OH232562   5.468   3.158   0.868 -0.5372 -1.2365 -0.0423
 3716TIP3    H132563   5.441   3.066   0.876 -0.0992 -1.3325  0.4487
 3716TIP3    H232564   5.564   3.155   0.873 -0.4522 -0.8587 -1.2405
 3717TIP3   OH232565   5.903   6.474   5.826 -0.2253 -0.1663  0.1406
 3717TIP3    H132566   5.974   6.476   5.890 -0.5692  0.0101  0.5200
 3717TIP3    H232567   5.924   6.400   5.769  0.1030 -0.3002  0.4353
 3718TIP3   OH232568   0.662   3.314  16.154 -0.4655 -0.5069 -0.7474
 3718TIP3    H132569   0.697   3.227  16.176  0.0354 -0.0791  0.2118
 3718TIP3    H232570   0.738   3.372  16.158 -1.0796  0.2676  0.3824
 3719TIP3   OH232571   4.471   5.401   3.621  0.2703  0.4280 -0.3542
 3719TIP3    H132572   4.558   5.373   3.650 -0.6191 -1.7174  0.4339
 3719TIP3    H232573   4.440   5.328   3.566 -1.2876  0.8565 -0.0803
 3720TIP3   OH232574   6.215   2.162  12.079 -0.3446 -0.1038 -0.5186
 3720TIP3    H132575   6.149   2.213  12.125 -1.0968 -0.1326 -1.5264
 3720TIP3    H232576   6.169   2.126  12.004  1.0645  0.8168 -1.8960
 3721TIP3   OH232577   5.502   3.159   4.430 -0.1875 -0.1259  0.0596
 3721TIP3    H132578   5.452   3.151   4.349 -2.8609 -0.8299  1.6605
 3721TIP3    H232579   5.514   3.254   4.441 -1.0443  0.0570 -0.4543
 3722TIP3   OH232580   1.557   2.181   5.424 -0.2151 -0.0455 -0.1422
 3722TIP3    H132581   1.526   2.219   5.342 -0.2653 -0.6628 -0.4125
 3722TIP3    H232582   1.543   2.087   5.414 -0.3169 -0.1163  0.6176
 3723TIP3   OH232583   4.944   3.042  14.147 -0.2772  0.1435 -0.2463
 3723TIP3    H132584   4.929   3.111  14.211 -0.2898 -0.0833 -0.0053
 3723TIP3    H232585   5.037   3.049  14.126 -0.3402  0.4166 -0.4339
 3724TIP3   OH232586   0.948   3.075   0.095 -0.3466  0.0876  0.1620
 3724TIP3    H132587   1.011   3.129   0.144 -0.1697 -1.0251  1.1957
 3724TIP3    H232588   0.870   3.130   0.088 -1.0483 -0.3195  3.3155
 3725TIP3   OH232589   3.741   2.591   4.804 -0.1956  0.4993  0.0036
 3725TIP3    H132590   3.649   2.620   4.806 -0.0099  1.1361 -0.6003
 3725TIP3    H232591   3.776   2.628   4.724 -0.0052 -1.6276 -0.9452
 3726TIP3   OH232592   3.986   2.654   3.827 -0.0912  0.0059  0.1660
 3726TIP3    H132593   4.038   2.576   3.844  1.3904  1.0372  0.6492
 3726TIP3    H232594   4.007   2.679   3.737 -0.8116 -0.3324 -0.0972
 3727TIP3   OH232595   4.349   4.606  13.182 -0.0419  0.0534 -0.7980
 3727TIP3    H132596   4.343   4.513  13.157 -1.1012 -0.3089  0.6524
 3727TIP3    H232597   4.401   4.606  13.262 -0.0643  0.7116 -0.7809
 3728TIP3   OH232598   5.079   5.435  15.240 -0.7196 -0.0193 -0.1906
 3728TIP3    H132599   5.140   5.439  15.313 -2.3853  3.0123  1.1839
 3728TIP3    H232600   5.026   5.357  15.258  1.0688 -1.3161 -0.1580
 3729TIP3   OH232601   3.249   3.355  13.099  0.0395 -0.4042  0.0986
 3729TIP3    H132602   3.266   3.413  13.025 -0.3408  0.0782  0.3801
 3729TIP3    H232603   3.242   3.267  13.060  1.1199 -0.3381 -0.2604
 3730TIP3   OH232604   3.299   4.801  16.087 -0.1843  0.5107  0.5629
 3730TIP3    H132605   3.251   4.719  16.096  0.5304 -0.1121 -0.9732
 3730TIP3    H232606   3.391   4.776  16.097  0.0182  1.1716  0.3879
 3731TIP3   OH232607   0.283   1.660  14.749  0.8172  0.1099  0.0475
 3731TIP3    H132608   0.212   1.711  14.711  2.1322  1.2532 -1.0062
 3731TIP3    H232609   0.273   1.670  14.844  0.3401  1.3495 -0.1188
 3732TIP3   OH232610   1.649   3.318   0.279  0.0509  0.2122 -0.3180
 3732TIP3    H132611   1.575   3.356   0.326 -0.2752 -2.0517  1.1269
 3732TIP3    H232612   1.726   3.364   0.313 -0.2627 -0.7851  1.8653
 3733TIP3   OH232613   4.123   5.915  13.450 -0.5205  0.4334  0.2414
 3733TIP3    H132614   4.161   5.979  13.390  0.9184 -0.3743  0.2414
 3733TIP3    H232615   4.160   5.937  13.535  1.1371 -1.1774  0.0189
 3734TIP3   OH232616   2.208   6.256   5.298  0.0323 -0.0046 -0.2480
 3734TIP3    H132617   2.115   6.259   5.323  0.4261  0.2239  1.2977
 3734TIP3    H232618   2.215   6.315   5.223 -0.7304  1.5992  0.8708
 3735TIP3   OH232619   3.925   0.951  14.172  0.0130 -0.1412 -0.2955
 3735TIP3    H132620   3.986   0.944  14.245 -1.1070  0.8029  0.7840
 3735TIP3    H232621   3.968   0.906  14.099  0.3107 -2.9521  1.4873
 3736TIP3   OH232622   6.481   1.834   2.664 -0.3937  0.5585  0.2257
 3736TIP3    H132623   6.418   1.779   2.617 -1.4002  2.1360 -0.3422
 3736TIP3    H232624   6.530   1.879   2.595  0.0704  0.7697  0.6832
 3737TIP3   OH232625   6.692   4.908   1.431  0.5024 -0.1953  0.4259
 3737TIP3    H132626   6.617   4.850   1.445  0.3460 -0.4093 -1.1141
 3737TIP3    H232627   6.734   4.874   1.352  2.0591  0.1122  1.0804
 3738TIP3   OH232628   6.176   6.235  16.813 -0.0428 -0.3437  0.5143
 3738TIP3    H132629   6.105   6.209  16.755  0.6778  0.1898 -0.6471
 3738TIP3    H232630   6.239   6.163  16.807  0.9239  0.5579 -0.9458
 3739TIP3   OH232631   4.746   5.698  11.619 -0.1200 -0.0737 -0.2330
 3739TIP3    H132632   4.801   5.620  11.613 -0.9148 -0.7461  0.8083
 3739TIP3    H232633   4.781   5.758  11.553  1.1523 -0.9078 -0.3377
 3740TIP3   OH232634   5.649   5.754  15.656 -0.2257  0.0509  0.2566
 3740TIP3    H132635   5.652   5.846  15.682  2.1614 -0.7736  3.6277
 3740TIP3    H232636   5.567   5.721  15.692 -2.3465  1.1658 -3.0460
 3741TIP3   OH232637   5.034   3.120   2.296 -0.4855  0.1956 -0.5296
 3741TIP3    H132638   4.972   3.051   2.322  0.2132 -0.4474 -0.5493
 3741TIP3    H232639   5.054   3.166   2.378 -1.1198  0.5275 -0.5515
 3742TIP3   OH232640   1.638   1.315   1.458  0.4468  0.5235  0.4738
 3742TIP3    H132641   1.544   1.312   1.475  0.6778 -1.1868  1.6963
 3742TIP3    H232642   1.651   1.260   1.382  0.4388  1.0491  0.0843
 3743TIP3   OH232643   6.627   0.125   0.138 -0.5771 -0.1361  0.0769
 3743TIP3    H132644   6.634   0.220   0.135 -3.9511  0.2288 -1.7381
 3743TIP3    H232645   6.649   0.102   0.228  1.3552  2.1759  0.2948
 3744TIP3   OH232646   5.616   1.886   6.491 -0.0845 -0.0002  0.1474
 3744TIP3    H132647   5.686   1.927   6.441 -1.4003  1.0368 -0.8943
 3744TIP3    H232648   5.559   1.958   6.517 -0.6245 -0.7869  1.2544
 3745TIP3   OH232649   0.110   6.507  14.334 -0.2146 -0.0480 -1.0691
 3745TIP3    H132650   0.133   6.476  14.246  0.1011 -0.2177 -0.9229
 3745TIP3    H232651   0.056   6.585  14.317 -3.8272 -2.4078 -1.5522
 3746TIP3   OH232652   2.192   3.594   2.420  0.1570  0.4452 -0.5555
 3746TIP3    H132653   2.100   3.580   2.444  0.2412  1.9605  0.8135
 3746TIP3    H232654   2.196   3.687   2.398  1.7672  0.9251  1.5040
 3747TIP3   OH232655   4.317   4.645   5.012 -0.7678  0.1662  0.3156
 3747TIP3    H132656   4.309   4.741   5.014 -0.0270  0.2658 -0.7604
 3747TIP3    H232657   4.228   4.614   5.029 -1.3206  1.0748 -0.7636
 3748TIP3   OH232658   1.357   4.717  15.454  0.7205 -0.6906 -0.0462
 3748TIP3    H132659   1.432   4.674  15.411  1.5794 -1.2120  1.8486
 3748TIP3    H232660   1.386   4.729  15.544 -1.0537  0.2369  0.4338
 3749TIP3   OH232661   0.693   4.309  15.609  0.0600 -0.4549  0.4930
 3749TIP3    H132662   0.655   4.394  15.588  0.2531 -0.1650  1.2844
 3749TIP3    H232663   0.696   4.307  15.705  0.7161 -1.0544  0.4681
 3750TIP3   OH232664   3.052   6.065   4.183  0.3473  0.4433  0.2299
 3750TIP3    H132665   2.972   6.026   4.148  0.3280  0.0654  0.6798
 3750TIP3    H232666   3.037   6.159   4.182  0.5483  0.4824 -1.2669
 3751TIP3   OH232667   3.237   4.086   1.600 -0.7010 -0.0185  0.1174
 3751TIP3    H132668   3.163   4.051   1.550  0.2772 -1.2522 -0.4923
 3751TIP3    H232669   3.206   4.086   1.690 -2.2727  1.6658 -0.3426
 3752TIP3   OH232670   2.619   6.211  16.126  0.7932  0.1004 -0.2112
 3752TIP3    H132671   2.679   6.141  16.150  1.6931  0.8964 -0.0919
 3752TIP3    H232672   2.657   6.248  16.046 -0.1595 -0.1217 -0.7826
 3753TIP3   OH232673   5.474   4.365   1.364  0.6497  0.2776 -0.3324
 3753TIP3    H132674   5.409   4.404   1.306 -1.7429 -0.7904  1.4375
 3753TIP3    H232675   5.500   4.284   1.320 -2.5463 -1.4983  0.7053
 3754TIP3   OH232676   3.908   1.834   3.906  0.9730 -0.3704  0.1805
 3754TIP3    H132677   3.837   1.881   3.950  1.0429  0.2936 -0.4015
 3754TIP3    H232678   3.894   1.851   3.813  1.1041 -1.3642 -0.0338
 3755TIP3   OH232679   3.367   2.838   0.978  0.0991  0.0515 -0.3400
 3755TIP3    H132680   3.351   2.823   0.884  1.1876  2.5320 -1.0191
 3755TIP3    H232681   3.280   2.853   1.015 -0.3131 -0.5374 -1.0366
 3756TIP3   OH232682   1.461   5.443  14.479  0.2140 -0.2048  0.4222
 3756TIP3    H132683   1.434   5.361  14.437  1.2119  0.1802 -1.0247
 3756TIP3    H232684   1.419   5.440  14.566 -0.7604 -1.6672 -0.0604
 3757TIP3   OH232685   3.657   3.530   4.179 -0.1806 -0.3939  0.3788
 3757TIP3    H132686   3.723   3.503   4.243 -0.6848 -0.7150  0.7695
 3757TIP3    H232687   3.665   3.625   4.176  2.0462 -0.5710 -1.4827
 3758TIP3   OH232688   6.348   3.488   3.082 -0.1272 -0.0920  0.1179
 3758TIP3    H132689   6.277   3.438   3.123 -0.9791  1.1635  0.2168
 3758TIP3    H232690   6.418   3.423   3.070 -1.4191 -1.4640 -0.3739
 3759TIP3   OH232691   5.644   5.580   3.926  0.6896 -0.9044 -0.2611
 3759TIP3    H132692   5.627   5.501   3.875  0.6155 -1.0419 -0.0220
 3759TIP3    H232693   5.599   5.566   4.009  1.6753 -1.1296  0.2476
 3760TIP3   OH232694   3.406   3.528   0.415  0.4409  0.0480  0.4555
 3760TIP3    H132695   3.432   3.463   0.349  1.0093  2.6429 -2.0976
 3760TIP3    H232696   3.482   3.535   0.472  0.6186 -1.0480  0.3769
 3761TIP3   OH232697   3.864   6.688   2.244  0.3816  0.5824 -0.2920
 3761TIP3    H132698   3.878   6.765   2.189 -3.3487 -0.5401 -3.2161
 3761TIP3    H232699   3.909   6.617   2.198 -1.4713 -0.0795 -1.1537
 3762TIP3   OH232700   2.178   3.471  14.417 -0.0541 -0.5878 -0.0144
 3762TIP3    H132701   2.152   3.428  14.499  1.8189  0.3983  1.1883
 3762TIP3    H232702   2.260   3.428  14.393 -0.2944 -0.4728 -1.0899
 3763TIP3   OH232703   6.086   5.943   6.324 -0.3194  0.4181 -0.0604
 3763TIP3    H132704   6.140   5.873   6.287 -0.2267  0.3511  0.1973
 3763TIP3    H232705   6.149   6.002   6.366 -0.4761  0.1154  0.6145
 3764TIP3   OH232706   4.344   4.070  17.095 -0.2537 -0.1687 -0.3867
 3764TIP3    H132707   4.299   4.133  17.152 -0.2803 -1.0281  0.5645
 3764TIP3    H232708   4.355   3.992  17.149  2.1200 -0.1079 -0.6780
 3765TIP3   OH232709   5.773   3.952  13.806  0.1940  0.2617  0.6312
 3765TIP3    H132710   5.738   3.937  13.893  0.7045  1.2273  1.0174
 3765TIP3    H232711   5.780   4.048  13.798 -1.3064  0.2888 -1.0531
 3766TIP3   OH232712   0.140   0.226  16.501  0.1035 -0.2511  0.6191
 3766TIP3    H132713   0.199   0.155  16.475  0.3101  0.2890 -0.4893
 3766TIP3    H232714   0.192   0.305  16.490 -1.0489  0.3184 -1.2522
 3767TIP3   OH232715   3.726   3.725  11.445  0.1018  0.7186  0.1083
 3767TIP3    H132716   3.639   3.764  11.451 -0.8317 -0.5858 -3.0451
 3767TIP3    H232717   3.770   3.776  11.376  0.8097 -0.3844 -0.2712
 3768TIP3   OH232718   2.062   0.791   3.682 -0.2391 -0.1511 -0.0851
 3768TIP3    H132719   2.053   0.764   3.591  1.2922 -0.8699 -0.0601
 3768TIP3    H232720   2.033   0.882   3.683 -1.2492 -0.4421 -1.0696
 3769TIP3   OH232721   0.789   0.011  12.716 -0.1037  0.3430  0.2774
 3769TIP3    H132722   0.703   0.016  12.758 -0.0931 -0.5657  0.4131
 3769TIP3    H232723   0.814  -0.081  12.723  1.1558  0.7076  0.7818
 3770TIP3   OH232724   1.900   6.189   3.765  0.0836 -0.6751 -0.1843
 3770TIP3    H132725   1.881   6.099   3.739  1.7558 -1.1925  0.2574
 3770TIP3    H232726   1.860   6.198   3.852 -1.8908 -0.2757 -1.0724
 3771TIP3   OH232727   6.507   3.770   4.537  0.3164  0.1418 -0.1656
 3771TIP3    H132728   6.555   3.708   4.592 -0.2203  0.8024  1.0919
 3771TIP3    H232729   6.546   3.856   4.558  0.2238  0.3837 -0.9596
 3772TIP3   OH232730   3.579   5.044   1.613 -0.0407 -0.3077  0.5359
 3772TIP3    H132731   3.626   5.013   1.691  2.1804  0.0270 -0.5813
 3772TIP3    H232732   3.633   5.115   1.579 -1.0760 -0.2831 -1.1886
 3773TIP3   OH232733   1.522   2.253  14.031  0.3170  0.7621 -0.7713
 3773TIP3    H132734   1.444   2.227  13.982 -0.2779  1.2165 -0.0988
 3773TIP3    H232735   1.505   2.344  14.057  0.6739  0.5811  0.1383
 3774TIP3   OH232736   5.952   5.067   2.103 -0.0504 -0.1737  0.3056
 3774TIP3    H132737   5.981   5.054   2.194  0.0753 -2.8554 -0.0418
 3774TIP3    H232738   6.034   5.075   2.054  0.0223 -1.8334  0.0874
 3775TIP3   OH232739   4.076   4.110  13.276  0.0375 -0.5128 -0.2887
 3775TIP3    H132740   3.984   4.095  13.300 -0.6946  1.0038 -1.8927
 3775TIP3    H232741   4.114   4.022  13.270 -1.7704 -1.2731 -1.2616
 3776TIP3   OH232742   0.140   3.457  12.895 -1.0159 -0.2389  0.3092
 3776TIP3    H132743   0.151   3.363  12.905 -0.9416 -0.3246 -0.5080
 3776TIP3    H232744   0.126   3.470  12.801  1.9319  0.8685 -0.0771
 3777TIP3   OH232745   0.706   2.585  16.712  0.3553 -0.5080 -0.7718
 3777TIP3    H132746   0.752   2.581  16.796  2.0559  3.4133 -1.3273
 3777TIP3    H232747   0.613   2.576  16.736  0.7661  0.6328  1.6166
 3778TIP3   OH232748   3.962   5.793   0.579 -0.0687  0.4955  0.2380
 3778TIP3    H132749   4.034   5.851   0.604 -1.5803  1.7237  1.9187
 3778TIP3    H232750   3.968   5.720   0.640  0.5847 -0.1408 -0.5583
 3779TIP3   OH232751   0.785   3.584   3.576  0.4027  0.1636 -0.2808
 3779TIP3    H132752   0.806   3.675   3.596  1.0312  0.0254 -0.2728
 3779TIP3    H232753   0.764   3.545   3.660  0.7620  0.1465 -0.1976
 3780TIP3   OH232754   6.150   6.610   1.618  0.6161  0.0116 -0.0057
 3780TIP3    H132755   6.165   6.623   1.712 -0.0938  1.9333 -0.1235
 3780TIP3    H232756   6.217   6.663   1.576 -0.7614  1.3806 -0.5459
 3781TIP3   OH232757   4.252   1.178  13.998 -0.3126 -0.2674  0.2064
 3781TIP3    H132758   4.238   1.206  14.088  0.7145  1.2664 -0.0765
 3781TIP3    H232759   4.277   1.257  13.951 -0.0985 -1.1632 -1.2739
 3782TIP3   OH232760   0.181   5.434   3.159  0.5635 -0.2490 -0.2806
 3782TIP3    H132761   0.189   5.445   3.064 -1.0950 -0.1275 -0.4334
 3782TIP3    H232762   0.122   5.504   3.186 -0.0878 -1.1198  0.6273
 3783TIP3   OH232763   4.261   3.132   3.416  0.1063 -0.6031  0.2071
 3783TIP3    H132764   4.351   3.101   3.427  0.3616 -0.5393 -1.3829
 3783TIP3    H232765   4.230   3.147   3.505  1.1269 -2.1272  0.8723
 3784TIP3   OH232766   6.160   0.357  13.123 -0.0613  0.3560 -0.1378
 3784TIP3    H132767   6.101   0.329  13.054 -0.2975 -0.4807  0.3769
 3784TIP3    H232768   6.186   0.445  13.099  2.3791 -0.9705 -3.0011
 3785TIP3   OH232769   4.750   4.532   3.407 -0.3997 -0.1940 -0.0819
 3785TIP3    H132770   4.812   4.510   3.476 -0.0915 -0.0243 -0.3000
 3785TIP3    H232771   4.687   4.592   3.447  0.2528  0.5536 -0.1625
 3786TIP3   OH232772   5.686   4.489  11.617  0.4100 -0.5098 -0.4288
 3786TIP3    H132773   5.753   4.421  11.618 -0.3027 -1.2979 -2.0111
 3786TIP3    H232774   5.731   4.568  11.646  1.1044 -1.7500  2.1022
 3787TIP3   OH232775   6.360   2.827  10.772 -0.3448 -0.1641  0.2124
 3787TIP3    H132776   6.338   2.919  10.784  0.5338  0.0260  0.4986
 3787TIP3    H232777   6.439   2.828  10.717  0.0761 -0.7034  0.7886
 3788TIP3   OH232778   2.169   6.286   4.497 -0.0382  0.0220  0.3621
 3788TIP3    H132779   2.228   6.322   4.431 -0.3027 -1.7310 -0.8930
 3788TIP3    H232780   2.222   6.224   4.546 -0.7341 -1.4830 -0.7003
 3789TIP3   OH232781   2.247   4.936   2.648  0.6547  0.1261  0.5717
 3789TIP3    H132782   2.156   4.929   2.678  0.1673  0.5293 -0.7662
 3789TIP3    H232783   2.259   5.028   2.627  1.5912  0.2002  1.3302
 3790TIP3   OH232784   3.660   3.786  15.694  0.3991  0.1624  0.3733
 3790TIP3    H132785   3.720   3.822  15.760 -0.3568  0.0508  1.1516
 3790TIP3    H232786   3.681   3.833  15.614  1.0160  0.6600  0.8144
 3791TIP3   OH232787   1.670   1.371  11.995  0.2749  0.1253 -0.2777
 3791TIP3    H132788   1.601   1.436  11.984 -0.2090 -0.4470 -0.6857
 3791TIP3    H232789   1.645   1.323  12.074  1.1835  1.0900  0.6319
 3792TIP3   OH232790   4.582   5.574  14.286 -0.3815  0.1276  0.8812
 3792TIP3    H132791   4.675   5.554  14.273 -0.7968 -1.8564  0.7322
 3792TIP3    H232792   4.546   5.578  14.197 -0.7057 -0.5066  0.9803
 3793TIP3   OH232793   6.111   1.815   2.590 -0.3539 -0.3163 -1.1083
 3793TIP3    H132794   6.114   1.769   2.674  1.9937 -0.0612 -0.9816
 3793TIP3    H232795   6.177   1.770   2.536  0.5208  1.5657 -1.6715
 3794TIP3   OH232796   5.762   1.848  11.758  0.2781 -0.0290 -0.3395
 3794TIP3    H132797   5.829   1.885  11.700  0.1620  0.8262  0.0592
 3794TIP3    H232798   5.772   1.897  11.840 -2.6956  2.1846 -1.1385
 3795TIP3   OH232799   1.805   3.387  10.943 -0.0703  0.3282  0.1422
 3795TIP3    H132800   1.845   3.444  10.877 -2.1120  0.7744 -0.7752
 3795TIP3    H232801   1.878   3.362  11.000  1.1357  2.8369 -0.1535
 3796TIP3   OH232802   1.459   1.189  12.874  0.0138  0.1251  0.3508
 3796TIP3    H132803   1.425   1.118  12.929  1.7952 -1.0777 -0.0127
 3796TIP3    H232804   1.501   1.145  12.801 -0.0031  1.6330 -0.6196
 3797TIP3   OH232805   5.602   4.878  12.855  0.6818 -0.3496  0.0963
 3797TIP3    H132806   5.672   4.940  12.879 -0.6837  0.8628  1.1479
 3797TIP3    H232807   5.602   4.879  12.759  1.4891  0.3528  0.0850
 3798TIP3   OH232808   2.707   3.803   0.147  0.1674 -0.1500 -0.4134
 3798TIP3    H132809   2.782   3.747   0.126 -0.3840 -1.9427  1.9794
 3798TIP3    H232810   2.725   3.834   0.236  0.0484  2.9558 -1.3455
 3799TIP3   OH232811   3.784   5.400  11.554 -0.1276 -0.3286 -0.1722
 3799TIP3    H132812   3.736   5.460  11.497 -1.1187  0.1348  1.1041
 3799TIP3    H232813   3.875   5.430  11.551  0.0692 -0.9827 -2.3250
 3800TIP3   OH232814   5.576   6.306  13.474  0.3462 -0.6102  0.6189
 3800TIP3    H132815   5.598   6.299  13.567  0.6798 -0.2271  0.5729
 3800TIP3    H232816   5.661   6.302  13.429  0.3254  0.6688  0.4256
 3801TIP3   OH232817   6.649   1.849   4.616 -0.0476 -0.3545  0.1050
 3801TIP3    H132818   6.588   1.784   4.652 -1.9448 -0.5891 -3.1465
 3801TIP3    H232819   6.598   1.930   4.612 -0.3236 -0.5750 -2.7493
 3802TIP3   OH232820   3.708   1.157   2.993  0.0728  0.4104 -0.1440
 3802TIP3    H132821   3.745   1.083   2.946 -0.2019  0.8393 -1.0552
 3802TIP3    H232822   3.663   1.209   2.926 -2.3713 -0.1819  0.9023
 3803TIP3   OH232823   1.207   3.597   3.549 -0.1829 -0.5224  0.6461
 3803TIP3    H132824   1.206   3.504   3.527  3.9075 -0.7458  0.7647
 3803TIP3    H232825   1.197   3.642   3.466 -0.3973 -1.0969  0.3573
 3804TIP3   OH232826   1.214   5.599   4.823  0.4286 -0.2444  0.0930
 3804TIP3    H132827   1.231   5.591   4.917 -0.6677  0.6436  0.3858
 3804TIP3    H232828   1.218   5.693   4.805 -0.8380 -0.2716 -0.4454
 3805TIP3   OH232829   3.794   2.119  15.722  0.5037 -0.2386 -0.3140
 3805TIP3    H132830   3.797   2.147  15.814  1.6171  0.5121 -0.5572
 3805TIP3    H232831   3.753   2.193  15.676  1.1374 -0.0498 -0.5929
 3806TIP3   OH232832   1.407   4.926   0.476  0.0594  0.4387  0.6682
 3806TIP3    H132833   1.468   4.852   0.469  0.7557  0.9950  0.7924
 3806TIP3    H232834   1.393   4.935   0.571 -0.4088  0.1687  0.6310
 3807TIP3   OH232835   6.756   3.433  16.582 -0.2071  0.6404  0.1012
 3807TIP3    H132836   6.767   3.528  16.587  0.5620  0.6626 -1.3239
 3807TIP3    H232837   6.839   3.401  16.545  0.2868 -0.8205  2.2883
 3808TIP3   OH232838   3.393   1.380  14.400  0.3191 -0.3730  0.1015
 3808TIP3    H132839   3.326   1.351  14.461  1.0601 -0.9205  0.6785
 3808TIP3    H232840   3.421   1.465  14.433  1.5046 -1.1539  1.2194
 3809TIP3   OH232841   6.375   0.498  12.940  0.2221 -0.3253  0.4803
 3809TIP3    H132842   6.431   0.575  12.948 -0.6025  0.1791  1.5814
 3809TIP3    H232843   6.430   0.425  12.968  1.1329 -0.2164 -0.9481
 3810TIP3   OH232844   0.173   2.913   4.383 -0.3865  0.3385 -0.4925
 3810TIP3    H132845   0.209   2.946   4.301 -2.6919  0.0264 -1.6834
 3810TIP3    H232846   0.244   2.927   4.447  0.6812  2.5545 -2.0401
 3811TIP3   OH232847   1.427   3.780   4.018  0.4108  0.3752 -0.2436
 3811TIP3    H132848   1.466   3.851   3.967  0.9073 -0.7069 -1.4372
 3811TIP3    H232849   1.491   3.709   4.013 -0.4969 -0.4975  0.1011
 3812TIP3   OH232850   5.736   3.565   1.373 -0.4084 -0.3156  0.4505
 3812TIP3    H132851   5.809   3.588   1.430  0.5930 -1.8798 -0.1363
 3812TIP3    H232852   5.675   3.639   1.380  1.9284  1.7901 -0.2659
 3813TIP3   OH232853   1.969   2.283  16.772  0.3269  0.4950 -0.0514
 3813TIP3    H132854   1.913   2.246  16.703 -0.8043  0.7262  0.7154
 3813TIP3    H232855   2.057   2.278  16.736 -0.0027 -1.1627 -0.7551
 3814TIP3   OH232856   0.703   2.292  11.730  0.3728 -0.0675 -0.0361
 3814TIP3    H132857   0.794   2.262  11.725  0.0515 -1.0774 -0.0577
 3814TIP3    H232858   0.678   2.304  11.638  0.0197 -1.3088 -0.1290
 3815TIP3   OH232859   3.153   4.627   2.314 -0.2720  0.3718  0.0793
 3815TIP3    H132860   3.134   4.590   2.228 -0.4380  0.0889  0.2348
 3815TIP3    H232861   3.227   4.576   2.347 -2.3442 -1.9058  1.5598
 3816TIP3   OH232862   0.677   2.851   0.759  0.2780 -0.4109 -0.6666
 3816TIP3    H132863   0.731   2.929   0.771  0.3092 -0.5825  0.4277
 3816TIP3    H232864   0.624   2.846   0.839 -0.0190 -1.2807 -0.9065
 3817TIP3   OH232865   1.035   0.386   0.586 -0.3495  0.1415  0.1334
 3817TIP3    H132866   1.054   0.295   0.564  0.9951  0.7724 -1.5843
 3817TIP3    H232867   0.963   0.410   0.528  0.7904  0.7766 -1.0711
 3818TIP3   OH232868   1.981   4.026  14.380  0.1544  0.7064  0.0760
 3818TIP3    H132869   1.954   4.000  14.468  1.9348 -1.1047  0.1443
 3818TIP3    H232870   2.064   3.982  14.366 -0.4365  0.3080 -2.8100
 3819TIP3   OH232871   1.407   6.765   6.608 -0.5665 -0.5684 -0.2744
 3819TIP3    H132872   1.491   6.733   6.577 -1.8447 -2.5743 -1.9269
 3819TIP3    H232873   1.412   6.860   6.595  1.0789 -0.7452 -1.2759
 3820TIP3   OH232874   3.842   4.656   4.850 -0.2865  0.0396  0.2898
 3820TIP3    H132875   3.862   4.569   4.815  0.4952  1.1653 -2.2744
 3820TIP3    H232876   3.917   4.678   4.904  1.2076  0.4600 -1.8484
 3821TIP3   OH232877   0.788   3.230   4.866  0.1044  0.5012 -0.4077
 3821TIP3    H132878   0.779   3.137   4.884  0.9440  0.3023 -0.9723
 3821TIP3    H232879   0.787   3.236   4.770  2.2627  0.8054 -0.4655
 3822TIP3   OH232880   4.042   5.938   6.178 -0.4553 -0.3371  0.2294
 3822TIP3    H132881   4.104   6.009   6.162 -1.0775  0.1743 -0.0008
 3822TIP3    H232882   3.959   5.971   6.141 -0.1599 -2.3156 -2.5061
 3823TIP3   OH232883   2.613   4.588   2.513 -0.1531 -0.0999 -0.6133
 3823TIP3    H132884   2.524   4.613   2.536  0.5776  1.4793  0.7275
 3823TIP3    H232885   2.620   4.608   2.420 -0.7202  1.3791 -0.3682
 3824TIP3   OH232886   6.065   4.709  12.178 -0.4536  0.0643  0.1886
 3824TIP3    H132887   6.023   4.790  12.207 -1.0657 -0.0314 -0.4079
 3824TIP3    H232888   6.029   4.693  12.091 -0.7108 -1.1147  0.4956
 3825TIP3   OH232889   4.868   3.359  17.031 -0.3868 -0.2680 -0.2700
 3825TIP3    H132890   4.870   3.453  17.045  1.0043 -0.2760 -0.3489
 3825TIP3    H232891   4.912   3.346  16.947 -0.1625 -1.0231 -0.0482
 3826TIP3   OH232892   2.807   2.476   1.538  0.0354 -0.0170  0.4328
 3826TIP3    H132893   2.772   2.559   1.507 -0.4490 -0.5630 -0.5417
 3826TIP3    H232894   2.877   2.454   1.477  1.0560  0.2978  1.4555
 3827TIP3   OH232895   1.295   0.938   4.005  0.1000  0.3140  0.0716
 3827TIP3    H132896   1.291   0.944   3.909  2.5203  1.4875 -0.0280
 3827TIP3    H232897   1.350   0.861   4.022  0.3484  0.5757  0.4812
 3828TIP3   OH232898   4.999   1.054  15.177 -0.6093 -0.4389  0.2238
 3828TIP3    H132899   4.969   1.137  15.214  2.3229  0.6847  0.3287
 3828TIP3    H232900   4.976   1.059  15.084 -1.9345 -0.2694  0.5490
 3829TIP3   OH232901   6.521   0.536   5.297 -0.7787 -0.1337  0.6822
 3829TIP3    H132902   6.510   0.614   5.350 -0.2073 -0.6201  1.5356
 3829TIP3    H232903   6.440   0.530   5.246 -0.9604  0.8271  0.8391
 3830TIP3   OH232904   2.165   3.490  16.292  0.1547  0.4237 -0.5424
 3830TIP3    H132905   2.229   3.522  16.355 -0.6220  1.2187 -0.1408
 3830TIP3    H232906   2.092   3.458  16.346  0.1609 -0.4019 -0.9936
 3831TIP3   OH232907   5.347   5.473   0.394 -0.1486  0.1893  0.2388
 3831TIP3    H132908   5.402   5.538   0.350 -0.4729 -0.3083 -0.9367
 3831TIP3    H232909   5.269   5.467   0.340 -0.4967 -0.5702  0.8054
 3832TIP3   OH232910   5.962   0.168   3.994 -0.4013  0.1560 -0.0054
 3832TIP3    H132911   6.036   0.219   4.027 -0.4900  0.0039  0.4443
 3832TIP3    H232912   5.991   0.134   3.909  0.5703 -1.0284  0.7552
 3833TIP3   OH232913   5.007   1.318   4.825  0.7069  0.3218  0.5075
 3833TIP3    H132914   5.007   1.364   4.910 -0.0529 -1.8399  1.7473
 3833TIP3    H232915   4.963   1.235   4.843 -1.8894  0.8120 -2.5911
 3834TIP3   OH232916   0.645   4.840   4.629  1.1020  0.0451 -0.2079
 3834TIP3    H132917   0.680   4.883   4.707  1.8410 -0.1515 -0.4204
 3834TIP3    H232918   0.550   4.851   4.635  1.2200  0.8777  0.2195
 3835TIP3   OH232919   2.470   3.581  14.507  0.4872 -0.0522 -0.5702
 3835TIP3    H132920   2.490   3.494  14.472  3.0200  0.4767 -0.5760
 3835TIP3    H232921   2.464   3.567  14.601 -1.3320 -0.5691 -0.7149
 3836TIP3   OH232922   1.136   0.108   2.020 -0.2706 -0.2212  0.5448
 3836TIP3    H132923   1.168   0.132   1.933  0.2163 -1.4677  0.3701
 3836TIP3    H232924   1.056   0.160   2.031 -1.7708 -1.8738 -1.7087
 3837TIP3   OH232925   5.463   6.681   1.882  0.5264 -0.1948 -0.4472
 3837TIP3    H132926   5.375   6.663   1.849  0.6711  0.7178 -1.4110
 3837TIP3    H232927   5.489   6.601   1.927 -0.2792 -0.9690 -1.3039
 3838TIP3   OH232928   2.978   5.853   3.747 -0.2504  0.3348 -0.5807
 3838TIP3    H132929   2.998   5.807   3.829 -2.7280  0.3302  0.1084
 3838TIP3    H232930   3.038   5.927   3.746  1.5722 -1.0433 -0.0677
 3839TIP3   OH232931   4.619   2.353   2.540  0.5932  0.1602 -0.3021
 3839TIP3    H132932   4.637   2.368   2.633  0.7275  2.3625 -0.6377
 3839TIP3    H232933   4.705   2.347   2.499  0.5507 -1.6747 -0.2198
 3840TIP3   OH232934   6.012   2.434  16.843  0.1900  0.2041  0.0979
 3840TIP3    H132935   5.920   2.460  16.848 -0.8279 -2.8617 -0.6893
 3840TIP3    H232936   6.037   2.416  16.934 -1.0942 -2.1445  0.0562
 3841TIP3   OH232937   0.005   6.075   4.301 -0.1086  0.4790  0.0194
 3841TIP3    H132938  -0.070   6.110   4.349  0.4529  0.8158  0.6779
 3841TIP3    H232939   0.038   6.004   4.356 -0.3950 -0.1593 -0.6326
 3842TIP3   OH232940   5.027   3.824   2.235  0.3131 -0.0314  0.3494
 3842TIP3    H132941   5.103   3.825   2.293 -0.5243  2.1681  1.5204
 3842TIP3    H232942   5.005   3.731   2.225  4.1092 -0.9200 -1.4750
 3843TIP3   OH232943   1.672   0.893   1.664  0.2077  0.0539 -0.3527
 3843TIP3    H132944   1.592   0.895   1.612  0.4563  0.5544 -0.7184
 3843TIP3    H232945   1.645   0.857   1.748 -0.4973  0.6850 -0.3022
 3844TIP3   OH232946   3.057   0.641  12.351 -0.0314 -0.1644  0.2578
 3844TIP3    H132947   3.072   0.607  12.263 -1.7899  1.9083 -0.9254
 3844TIP3    H232948   2.995   0.579  12.389  0.4238 -0.8476 -0.0766
 3845TIP3   OH232949   0.443   6.786   1.239  0.1312 -0.5683 -0.4866
 3845TIP3    H132950   0.352   6.773   1.211 -0.1643  0.3415  0.0207
 3845TIP3    H232951   0.484   6.832   1.166  0.9402 -3.2709 -1.8937
 3846TIP3   OH232952   5.524   5.877   5.619 -0.3101 -0.2201 -0.0498
 3846TIP3    H132953   5.477   5.851   5.699  1.1130 -3.4646 -0.0793
 3846TIP3    H232954   5.503   5.808   5.556  1.3379  0.3730 -1.3118
 3847TIP3   OH232955   4.506   6.496   3.399 -0.5214  0.3286 -1.0345
 3847TIP3    H132956   4.538   6.522   3.313 -0.3054  0.8552 -0.7998
 3847TIP3    H232957   4.520   6.401   3.402 -1.6021  0.1239 -2.0201
 3848TIP3   OH232958   4.674   4.571   4.004 -0.4131 -0.1583 -0.0337
 3848TIP3    H132959   4.600   4.630   3.994 -1.0989 -1.0032 -0.1047
 3848TIP3    H232960   4.692   4.539   3.915 -0.8402 -0.9718  0.1577
 3849TIP3   OH232961   1.812   2.105  11.509 -0.6099  0.0901 -0.4338
 3849TIP3    H132962   1.765   2.153  11.578  2.3631 -0.5133  2.2593
 3849TIP3    H232963   1.817   2.167  11.436 -2.7770  1.2461  0.3132
 3850TIP3   OH232964   6.184   1.892   4.403  0.2272  0.1861 -0.4822
 3850TIP3    H132965   6.224   1.956   4.462  0.9309 -0.7829  0.1273
 3850TIP3    H232966   6.258   1.853   4.357  0.0344 -1.5773  0.5901
 3851TIP3   OH232967   3.915   1.781  15.258  0.1981  0.1387  0.2283
 3851TIP3    H132968   3.916   1.827  15.342  1.3688  1.6536 -0.5778
 3851TIP3    H232969   3.873   1.697  15.278  0.5225  0.4177  2.3283
 3852TIP3   OH232970   6.537   6.130  10.756 -0.5505 -0.0657 -0.2177
 3852TIP3    H132971   6.625   6.105  10.727 -1.1417 -1.1745 -1.1185
 3852TIP3    H232972   6.550   6.214  10.800  1.3775 -1.4031  2.0125
 3853TIP3   OH232973   6.663   5.567  14.518  0.2578  0.6774  0.4033
 3853TIP3    H132974   6.631   5.651  14.484  0.5239  0.7804  0.4094
 3853TIP3    H232975   6.693   5.587  14.607  2.8568  1.1672 -0.5087
 3854TIP3   OH232976   1.293   5.960   0.915 -0.5863  0.2933  0.2380
 3854TIP3    H132977   1.324   5.884   0.866 -0.9419  0.0228  0.4224
 3854TIP3    H232978   1.350   5.965   0.991 -0.8046 -0.0276  0.4264
 3855TIP3   OH232979   2.569   3.011  10.801  0.3464  0.0449 -0.6660
 3855TIP3    H132980   2.619   3.086  10.834  0.7463 -0.7884  0.7380
 3855TIP3    H232981   2.636   2.947  10.775  0.0542 -0.6392  0.1789
 3856TIP3   OH232982   6.277   5.186   3.599  0.1641 -0.1141 -0.0467
 3856TIP3    H132983   6.320   5.206   3.681  0.9908 -0.6963 -0.3205
 3856TIP3    H232984   6.198   5.138   3.624  0.3034 -0.1055  0.4128
 3857TIP3   OH232985   0.115   1.868   4.714 -0.1293 -0.4065 -0.0557
 3857TIP3    H132986   0.127   1.960   4.692  0.7366 -1.0871 -2.7409
 3857TIP3    H232987   0.022   1.852   4.700 -0.1302 -0.1344 -0.3621
 3858TIP3   OH232988   0.291   4.986  15.464 -0.2245  0.1597 -0.1213
 3858TIP3    H132989   0.277   4.938  15.546 -1.1029 -0.8292 -0.8158
 3858TIP3    H232990   0.320   5.073  15.492 -2.2804  0.4743  1.3036
 3859TIP3   OH232991   2.652   1.565   4.323 -0.0473  0.1472  0.5778
 3859TIP3    H132992   2.720   1.581   4.258 -0.5209 -0.9722 -0.2219
 3859TIP3    H232993   2.689   1.499   4.381 -1.2329 -2.2496 -1.2279
 3860TIP3   OH232994   0.058   0.152  12.825  0.0065  0.0162  0.3598
 3860TIP3    H132995   0.083   0.098  12.900  0.5191 -0.0915  0.1217
 3860TIP3    H232996   0.075   0.096  12.749 -3.7115 -1.1794  0.2346
 3861TIP3   OH232997   3.014   0.874  13.578 -0.2926 -0.0113  0.5801
 3861TIP3    H132998   2.964   0.873  13.496  2.2046  0.0553 -1.0598
 3861TIP3    H232999   2.989   0.955  13.621 -0.1695  0.9868 -1.1462
 3862TIP3   OH233000   5.479   0.684   2.284  0.0611  0.0031  0.2649
 3862TIP3    H133001   5.530   0.765   2.289  1.4671 -0.9442  2.7710
 3862TIP3    H233002   5.513   0.640   2.206  1.8916  0.2232  0.8794
 3863TIP3   OH233003   5.537   3.643  16.223  0.1052 -0.3069  0.0970
 3863TIP3    H133004   5.443   3.649  16.236  0.2994  1.5539  1.0050
 3863TIP3    H233005   5.566   3.734  16.213  1.6942 -0.8992 -1.0517
 3864TIP3   OH233006   0.363   5.392  13.902 -0.0464  0.2805  0.1960
 3864TIP3    H133007   0.339   5.328  13.969  1.4129 -1.0343 -0.4865
 3864TIP3    H233008   0.441   5.435  13.937  0.1871  0.2290 -0.2584
 3865TIP3   OH233009   4.294   5.321  16.055  0.5017 -0.2930 -0.0143
 3865TIP3    H133010   4.280   5.226  16.061  0.9760 -0.3299  0.7626
 3865TIP3    H233011   4.359   5.339  16.123 -0.7740  0.8320  0.9677
 3866TIP3   OH233012   2.121   5.022  15.660  0.0124  0.1451  0.1847
 3866TIP3    H133013   2.122   4.981  15.746  2.2186  0.0683  0.1681
 3866TIP3    H233014   2.110   5.116  15.678 -1.9199 -0.0748  0.3750
 3867TIP3   OH233015   2.895   0.715  17.014 -0.0501 -0.3861  0.1385
 3867TIP3    H133016   2.899   0.647  16.946 -0.5443 -1.2016  0.9131
 3867TIP3    H233017   2.987   0.741  17.026 -0.0405  0.4565 -1.5079
 3868TIP3   OH233018   0.712   2.821  13.871  0.4203 -0.2088  0.2412
 3868TIP3    H133019   0.649   2.892  13.887  0.0349 -0.7719  1.3779
 3868TIP3    H233020   0.775   2.858  13.810 -0.2747  0.8160  0.1145
 3869TIP3   OH233021   1.477   2.024   3.233 -0.0661  0.4460  0.2465
 3869TIP3    H133022   1.430   2.005   3.151  0.3040  0.1217  0.1070
 3869TIP3    H233023   1.411   2.012   3.301 -0.6906  1.8543 -0.0694
 3870TIP3   OH233024   3.187   3.913  12.610 -0.4437 -0.3809  0.0432
 3870TIP3    H133025   3.189   3.932  12.704 -2.4196 -0.1349  0.0812
 3870TIP3    H233026   3.140   3.830  12.603  0.8769 -1.0943 -0.6675
 3871TIP3   OH233027   0.810   3.531   6.574  0.3103 -0.0726  0.3333
 3871TIP3    H133028   0.844   3.480   6.500  1.0107  0.3408  0.3537
 3871TIP3    H233029   0.889   3.568   6.615 -0.0710 -0.3248  1.3043
 3872TIP3   OH233030   5.164   1.715   1.589 -0.3632  0.1850  0.3046
 3872TIP3    H133031   5.133   1.800   1.621 -2.2200 -0.5633  0.5803
 3872TIP3    H233032   5.112   1.651   1.636 -1.1494 -1.0450 -2.0666
 3873TIP3   OH233033   5.370   3.650   0.243 -0.2149  0.6112 -0.0089
 3873TIP3    H133034   5.457   3.652   0.282 -1.1240  0.3169  2.1896
 3873TIP3    H233035   5.313   3.689   0.309 -1.9064 -0.0905 -0.9867
 3874TIP3   OH233036   4.703   6.118  12.938  0.1093  0.0689  0.4064
 3874TIP3    H133037   4.719   6.042  12.883  0.8479 -0.8595  1.8556
 3874TIP3    H233038   4.626   6.159  12.899  0.9539 -0.1855 -1.6623
 3875TIP3   OH233039   5.769   2.880   5.646 -0.3590 -0.1016  0.0914
 3875TIP3    H133040   5.851   2.884   5.598 -0.3271  0.6387  0.1952
 3875TIP3    H233041   5.701   2.883   5.579 -0.3375 -2.2802 -0.1188
 3876TIP3   OH233042   0.643   5.525  11.536 -0.3166 -0.1241  0.5109
 3876TIP3    H133043   0.733   5.551  11.556 -0.4928 -0.0137  1.1919
 3876TIP3    H233044   0.650   5.472  11.457  0.5310 -1.3744  1.3931
 3877TIP3   OH233045   0.219   1.923   0.270 -0.1512 -0.3175  0.2255
 3877TIP3    H133046   0.228   1.833   0.302 -0.9862 -0.2416  0.7197
 3877TIP3    H233047   0.233   1.978   0.347  0.1839 -0.0348 -0.0371
 3878TIP3   OH233048   2.255   4.357  12.579 -0.0886 -0.2004 -0.2836
 3878TIP3    H133049   2.210   4.309  12.510  0.6035 -0.6370 -0.4378
 3878TIP3    H233050   2.339   4.381  12.542  0.1846 -0.2012  0.3187
 3879TIP3   OH233051   1.358   4.833   5.632 -0.6986 -0.1554  0.7566
 3879TIP3    H133052   1.418   4.843   5.707 -1.0172  1.5193  0.8448
 3879TIP3    H233053   1.277   4.799   5.671 -0.2728 -1.0703  0.8630
 3880TIP3   OH233054   3.006   3.074  12.914 -0.0937 -0.0767 -0.1175
 3880TIP3    H133055   3.090   3.102  12.950 -0.2549 -0.2753  0.4320
 3880TIP3    H233056   2.997   2.983  12.942 -0.1704 -0.2710 -0.7733
 3881TIP3   OH233057   3.384   5.633  12.611  0.1705 -0.0022 -0.1079
 3881TIP3    H133058   3.453   5.697  12.594 -0.7755  1.1158  0.1219
 3881TIP3    H233059   3.430   5.550  12.622  1.4844  0.7430  0.1971
 3882TIP3   OH233060   6.555   1.701   4.929 -0.3547 -0.0448  0.2872
 3882TIP3    H133061   6.507   1.779   4.904  0.2867  0.8174  1.6643
 3882TIP3    H233062   6.491   1.646   4.974 -0.9770 -0.6647 -1.2537
 3883TIP3   OH233063   0.040   4.664  17.018  0.2106 -0.5492 -0.3673
 3883TIP3    H133064   0.069   4.611  17.092 -1.6468 -1.7486 -0.4335
 3883TIP3    H233065   0.048   4.755  17.048  1.0646 -0.9464  0.6610
 3884TIP3   OH233066   5.848   4.657   5.281 -0.3966 -0.1846 -0.3796
 3884TIP3    H133067   5.834   4.600   5.356  0.5325 -1.6884 -1.2882
 3884TIP3    H233068   5.859   4.745   5.318 -1.9541 -0.5587  1.0473
 3885TIP3   OH233069   6.406   5.633  11.365  0.5000 -0.0316  0.1818
 3885TIP3    H133070   6.438   5.647  11.276  0.4463 -3.2775 -0.4863
 3885TIP3    H233071   6.317   5.668  11.365  0.0935 -0.9717 -1.4252
 3886TIP3   OH233072   6.726   5.819  15.433 -0.5594  1.3136  0.0743
 3886TIP3    H133073   6.759   5.889  15.490  0.8139  0.6009  0.1940
 3886TIP3    H233074   6.804   5.786  15.388 -1.4632  1.1692 -1.4705
 3887TIP3   OH233075   4.589   0.201  12.199 -0.5644 -0.3682 -0.3038
 3887TIP3    H133076   4.674   0.165  12.174  0.3186  2.2482 -1.3948
 3887TIP3    H233077   4.595   0.212  12.294  0.2856 -0.3270 -0.3497
 3888TIP3   OH233078   4.017   2.733   2.171 -0.3989 -0.2673  0.3895
 3888TIP3    H133079   4.021   2.774   2.258 -0.5555 -0.4578  0.4867
 3888TIP3    H233080   3.964   2.793   2.119  0.2554  0.1954  0.2322
 3889TIP3   OH233081   2.721   5.167  11.715  0.0246 -0.3939 -0.8692
 3889TIP3    H133082   2.648   5.177  11.653 -0.7773  0.8663  0.2289
 3889TIP3    H233083   2.684   5.117  11.787  0.1808  0.3986 -0.2271
 3890TIP3   OH233084   5.593   6.298  13.755  0.3010  0.2556  0.0821
 3890TIP3    H133085   5.563   6.350  13.830  1.1954  0.0528  0.5946
 3890TIP3    H233086   5.551   6.213  13.766 -1.6637  1.0033 -1.0910
 3891TIP3   OH233087   1.574   6.140  13.472  0.1609  0.1318  0.2902
 3891TIP3    H133088   1.654   6.186  13.498  0.2685 -0.1805  0.5194
 3891TIP3    H233089   1.544   6.187  13.395  0.5198  0.3066  0.2518
 3892TIP3   OH233090   0.528   0.125   4.879 -0.3567 -0.0554  0.2937
 3892TIP3    H133091   0.545   0.123   4.785  0.1865 -0.6012  0.3965
 3892TIP3    H233092   0.443   0.169   4.887 -0.0482  0.6903 -0.3913
 3893TIP3   OH233093   0.750   0.572  11.878 -0.6409 -0.0235 -0.1419
 3893TIP3    H133094   0.747   0.569  11.782 -0.9403  1.4065 -0.2040
 3893TIP3    H233095   0.818   0.636  11.898 -1.6792  0.8994  0.5569
 3894TIP3   OH233096   4.451   0.586   4.780 -0.4051  0.1829 -0.3851
 3894TIP3    H133097   4.424   0.627   4.862 -0.7080  1.3831 -1.0649
 3894TIP3    H233098   4.468   0.495   4.804 -0.3291  0.5413  1.0355
 3895TIP3   OH233099   1.785   1.957  15.331  0.1698  1.1788 -0.3093
 3895TIP3    H133100   1.784   1.885  15.268  1.7621  1.1671 -0.3570
 3895TIP3    H233101   1.863   1.941  15.385 -0.1693  2.1656  0.5154
 3896TIP3   OH233102   1.678   6.597   1.560 -0.4680 -0.0000  0.2788
 3896TIP3    H133103   1.750   6.600   1.622  0.4792 -0.7608 -0.7284
 3896TIP3    H233104   1.619   6.529   1.595  0.2557 -0.7067  0.1636
 3897TIP3   OH233105   1.557   4.411   5.494 -0.7414  0.1773 -0.3312
 3897TIP3    H133106   1.556   4.396   5.399 -0.5158 -3.6304  0.0977
 3897TIP3    H233107   1.633   4.466   5.508  0.2186 -0.5329 -2.2594
 3898TIP3   OH233108   3.063   5.325   0.778  0.4383 -0.2563  0.6582
 3898TIP3    H133109   3.002   5.312   0.850 -1.5606 -0.9999 -1.0475
 3898TIP3    H233110   3.040   5.410   0.742  0.7897 -0.2987  0.3233
 3899TIP3   OH233111   1.151   4.691  14.332 -0.3221  0.3991  0.0377
 3899TIP3    H133112   1.233   4.740  14.321  1.3708 -2.2019  0.3665
 3899TIP3    H233113   1.152   4.663  14.424 -2.6598  2.0198  0.6471
 3900TIP3   OH233114   3.805   0.674   2.536 -0.6467  0.4321  1.1054
 3900TIP3    H133115   3.850   0.616   2.597 -0.2698 -0.4022  0.0870
 3900TIP3    H233116   3.872   0.737   2.508 -0.1641 -0.5543 -0.0938
 3901TIP3   OH233117   1.120   0.852  16.097 -0.5587  0.0287 -0.0056
 3901TIP3    H133118   1.151   0.937  16.067 -1.2209  0.1870 -0.2542
 3901TIP3    H233119   1.094   0.867  16.188  1.3564 -0.4287  0.6675
 3902TIP3   OH233120   1.619   1.686   4.005  0.4878  0.2216  0.0264
 3902TIP3    H133121   1.562   1.691   4.081 -1.1900 -0.2723 -1.1436
 3902TIP3    H233122   1.627   1.777   3.975 -1.1525  0.1309 -0.7955
 3903TIP3   OH233123   3.791   3.280  11.033  0.4180 -0.1414 -0.8254
 3903TIP3    H133124   3.737   3.305  10.959  0.1220 -1.4942 -1.0775
 3903TIP3    H233125   3.734   3.291  11.110  0.6239  0.9382 -0.8042
 3904TIP3   OH233126   6.664   3.128   5.750  0.9235 -0.7602 -0.1753
 3904TIP3    H133127   6.703   3.043   5.768 -2.1100 -2.2373  0.0892
 3904TIP3    H233128   6.612   3.114   5.670  1.2417  1.1855 -0.7773
 3905TIP3   OH233129   2.196   0.810   4.773 -0.5519  0.4723  0.3401
 3905TIP3    H133130   2.184   0.857   4.856  0.3501  1.4505 -0.0637
 3905TIP3    H233131   2.291   0.804   4.762 -0.5925  2.2378 -1.6355
 3906TIP3   OH233132   0.602   3.459   3.312 -0.4834 -0.2677 -0.0931
 3906TIP3    H133133   0.554   3.532   3.273 -1.4196  0.0258  1.5344
 3906TIP3    H233134   0.655   3.498   3.381 -0.2042 -0.9963  0.1170
 3907TIP3   OH233135   4.416   5.427  15.516 -0.0365  0.1041  0.1220
 3907TIP3    H133136   4.440   5.498  15.456  0.6831  0.3997  0.7461
 3907TIP3    H233137   4.332   5.453  15.552  0.7787  1.2890  1.2883
 3908TIP3   OH233138   5.441   0.835  12.184  0.6673  0.4851 -0.2388
 3908TIP3    H133139   5.401   0.749  12.174  1.4843  0.1811 -0.9558
 3908TIP3    H233140   5.409   0.885  12.108  0.5833  0.6647 -0.0867
 3909TIP3   OH233141   3.129   5.809   3.156 -0.8515 -0.6560 -0.0440
 3909TIP3    H133142   3.218   5.836   3.178 -1.0076  0.2322 -0.4611
 3909TIP3    H233143   3.093   5.773   3.237  0.7676 -3.5920 -0.4890
 3910TIP3   OH233144   2.631   1.445  11.584  0.0526  0.4207  0.0989
 3910TIP3    H133145   2.670   1.447  11.497  0.8359 -1.7737  0.3174
 3910TIP3    H233146   2.539   1.464  11.570  0.4269  1.5079 -1.0018
 3911TIP3   OH233147   4.641   6.219   1.272 -0.6110  0.3397 -0.1129
 3911TIP3    H133148   4.709   6.235   1.338 -0.3100  0.5763 -0.4739
 3911TIP3    H233149   4.573   6.283   1.291 -0.8148 -0.0093  0.3548
 3912TIP3   OH233150   5.488   2.604   4.721 -0.0241  0.1026 -0.0120
 3912TIP3    H133151   5.533   2.520   4.732  0.6308  0.5699  1.1161
 3912TIP3    H233152   5.505   2.628   4.630  2.5732  0.5213  0.5056
 3913TIP3   OH233153   2.496   2.555   5.002 -0.0887  0.4417 -0.5080
 3913TIP3    H133154   2.449   2.604   5.070 -0.6652 -1.1653  0.3071
 3913TIP3    H233155   2.531   2.479   5.048  1.4300  0.4590 -1.5762
 3914TIP3   OH233156   3.596   0.873   2.578 -0.2224 -0.7892  0.9588
 3914TIP3    H133157   3.633   0.960   2.592 -0.7271 -0.3254 -0.4434
 3914TIP3    H233158   3.669   0.813   2.592 -0.3424 -0.3540  4.0732
 3915TIP3   OH233159   2.972   4.230   4.464  0.4814 -0.0643 -0.7172
 3915TIP3    H133160   2.993   4.249   4.555  0.8600 -0.0256 -0.8067
 3915TIP3    H233161   3.024   4.152   4.443  1.9467  1.0577 -1.4542
 3916TIP3   OH233162   1.078   3.212  16.405 -0.1820  0.4096  0.2330
 3916TIP3    H133163   1.096   3.118  16.406 -1.7906  0.0524  2.0559
 3916TIP3    H233164   1.073   3.234  16.312  0.4168 -1.2573 -0.2329
 3917TIP3   OH233165   1.994   0.705   2.985 -0.3110 -0.2208 -0.0836
 3917TIP3    H133166   2.081   0.742   2.965  0.1594 -1.1709  0.1555
 3917TIP3    H233167   1.940   0.781   3.003 -0.4706  0.6817 -3.6915
 3918TIP3   OH233168   6.235   4.214  15.842  0.0079  0.2080 -0.0012
 3918TIP3    H133169   6.180   4.224  15.920 -0.8269  2.5059 -0.7960
 3918TIP3    H233170   6.289   4.137  15.861 -0.5420  0.3493  2.5925
 3919TIP3   OH233171   0.450   0.691   5.699  0.1376 -0.4995 -0.3416
 3919TIP3    H133172   0.469   0.676   5.606  1.8754 -1.2271  0.0962
 3919TIP3    H233173   0.536   0.710   5.738 -0.5267 -0.4901  1.1694
 3920TIP3   OH233174   1.015   0.858   3.854  0.2332  0.5158  0.5137
 3920TIP3    H133175   1.005   0.863   3.949  0.5539  1.9953  0.4834
 3920TIP3    H233176   1.088   0.798   3.841  0.2105  0.3326  1.1935
 3921TIP3   OH233177   5.614   4.626  12.988 -0.5705 -0.3338  0.5790
 3921TIP3    H133178   5.616   4.710  12.941  1.1726 -1.6502 -1.9542
 3921TIP3    H233179   5.534   4.584  12.958 -0.6721 -0.2095  0.6723
 3922TIP3   OH233180   1.776   4.309   0.114 -0.0770 -0.6101 -0.0775
 3922TIP3    H133181   1.681   4.313   0.117 -0.0849 -1.0310  0.3076
 3922TIP3    H233182   1.806   4.392   0.150 -0.2949 -0.6427  0.1761
 3923TIP3   OH233183   2.975   3.971  16.808  0.0283  0.4772  0.3489
 3923TIP3    H133184   2.941   3.916  16.738 -1.2992 -1.2677  2.2509
 3923TIP3    H233185   3.069   3.981  16.788  0.0244 -1.3556 -0.7711
 3924TIP3   OH233186   6.047   3.492   5.051 -0.4277  0.0116 -0.4383
 3924TIP3    H133187   6.056   3.436   4.974 -0.7456  0.1100 -0.5479
 3924TIP3    H233188   6.137   3.509   5.079 -0.2652  0.7611 -1.3607
 3925TIP3   OH233189   5.567   3.020  15.588 -0.1292 -0.4996  0.1910
 3925TIP3    H133190   5.515   3.028  15.508  1.3415  0.7926 -0.6959
 3925TIP3    H233191   5.530   2.944  15.634 -3.3126  0.8578  0.0533
 3926TIP3   OH233192   3.958   6.629   0.796 -0.2379  0.1204  0.1204
 3926TIP3    H133193   3.931   6.720   0.812  0.5850  0.2114  1.0977
 3926TIP3    H233194   4.040   6.620   0.844 -0.3125 -1.1514  0.0262
 3927TIP3   OH233195   4.036   4.631   4.151 -0.0945 -1.0889  0.2733
 3927TIP3    H133196   4.061   4.723   4.168 -1.2297 -0.8270  0.5755
 3927TIP3    H233197   3.970   4.612   4.217 -0.8869 -1.6888 -0.6731
 3928TIP3   OH233198   4.795   2.190   3.773  0.3236  0.2773  0.5238
 3928TIP3    H133199   4.846   2.260   3.733 -1.3267  1.8830  1.1127
 3928TIP3    H233200   4.861   2.129   3.807  1.8990  2.4800  1.6809
 3929TIP3   OH233201   2.939   4.002   2.950  0.3584 -0.2228  0.0171
 3929TIP3    H133202   2.910   3.958   2.870  2.3456 -1.9943  0.1581
 3929TIP3    H233203   3.020   4.046   2.925  1.1430 -1.0143  1.0575
 3930TIP3   OH233204   0.335   2.320   1.556 -0.2604  0.6221 -0.4487
 3930TIP3    H133205   0.340   2.290   1.466 -0.3957 -1.2254  0.1225
 3930TIP3    H233206   0.249   2.291   1.586 -0.7035  2.2457 -0.0486
 3931TIP3   OH233207   4.365   0.366   0.635 -0.7215  0.2692 -0.4836
 3931TIP3    H133208   4.286   0.325   0.599 -0.5777 -0.2139 -0.2602
 3931TIP3    H233209   4.428   0.294   0.644 -0.7902  0.3439  0.8421
 3932TIP3   OH233210   2.012   5.422  17.140  0.5384  0.1745 -0.4461
 3932TIP3    H133211   1.950   5.492  17.120 -0.7601  0.8219  4.4829
 3932TIP3    H233212   1.985   5.350  17.083 -3.3508  1.1951 -0.1913
 3933TIP3   OH233213   3.437   1.914  14.024 -0.0719 -0.2824 -0.1372
 3933TIP3    H133214   3.494   1.892  14.098 -0.1810 -0.9392 -0.2372
 3933TIP3    H233215   3.442   2.009  14.017  3.7290 -0.4385 -2.2584
 3934TIP3   OH233216   1.780   4.432   4.841  0.2818  0.1802 -0.1182
 3934TIP3    H133217   1.874   4.420   4.853  0.5006  0.7326 -1.1626
 3934TIP3    H233218   1.748   4.457   4.928  0.9793 -0.6622  0.4049
 3935TIP3   OH233219   1.642   6.717  11.462  0.8376  0.2160 -0.0681
 3935TIP3    H133220   1.718   6.681  11.418 -0.2114 -1.4408 -0.5805
 3935TIP3    H233221   1.570   6.709  11.399 -0.2017 -0.1248  1.1081
 3936TIP3   OH233222   5.405   5.981   1.236 -0.0692 -0.1738 -0.4107
 3936TIP3    H133223   5.403   5.902   1.183  0.5879 -0.3937 -0.1169
 3936TIP3    H233224   5.490   6.020   1.218 -0.4662  0.5752 -0.7054
 3937TIP3   OH233225   3.883   2.798  13.927 -0.0281 -0.1202  0.2636
 3937TIP3    H133226   3.919   2.838  14.005 -1.6839  0.2790  0.8538
 3937TIP3    H233227   3.795   2.771  13.952 -1.3690  1.8001 -1.9842
 3938TIP3   OH233228   2.795   3.682   1.041 -0.1435 -0.3734  0.0886
 3938TIP3    H133229   2.871   3.722   0.997 -1.2659  0.6161 -1.0365
 3938TIP3    H233230   2.766   3.613   0.981 -1.0850  0.3280 -0.2970
 3939TIP3   OH233231   6.471   3.829   1.452 -0.4651  0.1089  0.0197
 3939TIP3    H133232   6.523   3.909   1.465  1.2398 -0.8165 -0.7382
 3939TIP3    H233233   6.466   3.790   1.540  1.2978 -0.4193 -0.0612
 3940TIP3   OH233234   2.558   3.601   5.061  0.5175  0.6423 -0.2600
 3940TIP3    H133235   2.572   3.686   5.102 -0.1497  0.6169  0.0371
 3940TIP3    H233236   2.645   3.573   5.033  0.4599  2.6674 -2.8414
 3941TIP3   OH233237   0.694   5.668  16.218  0.4887 -0.2850  0.0615
 3941TIP3    H133238   0.658   5.739  16.164  0.3264 -1.2944 -1.1942
 3941TIP3    H233239   0.695   5.592  16.160  2.8082 -0.7784  0.6589
 3942TIP3   OH233240   3.050   4.201  16.093  0.3430 -0.2681 -0.3476
 3942TIP3    H133241   2.999   4.229  16.169 -0.3559  1.3138 -1.3285
 3942TIP3    H233242   2.985   4.190  16.024  1.1225 -0.0970 -1.1266
 3943TIP3   OH233243   4.631   4.480   1.106  0.4509  0.0712 -0.5887
 3943TIP3    H133244   4.637   4.406   1.166  1.2207  1.1370  0.7026
 3943TIP3    H233245   4.571   4.541   1.149  1.5043  1.1289 -0.5710
 3944TIP3   OH233246   1.863   6.188   2.124  0.2852 -0.6975  0.7538
 3944TIP3    H133247   1.807   6.226   2.192 -0.2881 -0.0714 -0.0660
 3944TIP3    H233248   1.902   6.263   2.080 -1.0780 -1.0033 -1.0629
 3945TIP3   OH233249   1.025   4.435   3.827  0.1738 -0.6834  0.7945
 3945TIP3    H133250   1.079   4.371   3.873 -0.1767 -0.3627  1.6607
 3945TIP3    H233251   0.968   4.382   3.771  1.7299 -1.0060 -0.5449
 3946TIP3   OH233252   4.493   0.640   5.723  0.0866 -0.4302 -0.1262
 3946TIP3    H133253   4.537   0.723   5.703 -1.1196  0.6848  1.5107
 3946TIP3    H233254   4.428   0.664   5.790  1.0168 -3.0494  1.8536
 3947TIP3   OH233255   5.687   1.685  10.990  0.2688  0.3434  0.2154
 3947TIP3    H133256   5.607   1.667  10.941  1.4934  0.6108 -1.9718
 3947TIP3    H233257   5.706   1.777  10.973  1.3530  0.1358  0.2280
 3948TIP3   OH233258   3.876   0.834  15.971  0.6941 -0.3919  0.2421
 3948TIP3    H133259   3.815   0.786  16.027  0.3990 -0.2015  0.0862
 3948TIP3    H233260   3.906   0.770  15.908 -2.1706  0.2972 -2.0508
 3949TIP3   OH233261   1.198   5.838  13.767  0.2455  0.1941  0.3509
 3949TIP3    H133262   1.195   5.788  13.686  0.3284  1.3514 -0.3930
 3949TIP3    H233263   1.288   5.828  13.798  0.5143  0.6121 -0.2744
 3950TIP3   OH233264   1.755   1.122   5.569  0.5514  0.4833  0.6897
 3950TIP3    H133265   1.718   1.164   5.492  0.5436  1.1800  1.0645
 3950TIP3    H233266   1.777   1.194   5.628 -1.8192 -0.0760  2.4375
 3951TIP3   OH233267   0.963   3.790   6.660 -0.6333  0.3262 -0.4195
 3951TIP3    H133268   0.999   3.856   6.720  0.1338 -0.5414  0.1092
 3951TIP3    H233269   0.870   3.812   6.653 -0.1114  2.4122 -1.5292
 3952TIP3   OH233270   2.298   3.537  12.202  0.2435 -0.1089  0.2775
 3952TIP3    H133271   2.286   3.498  12.289  3.9575  0.0234  1.0037
 3952TIP3    H233272   2.214   3.578  12.182 -2.1314 -3.6635  1.8964
 3953TIP3   OH233273   6.526   5.711  16.245 -0.4050  0.6299 -0.3343
 3953TIP3    H133274   6.537   5.622  16.280 -1.6859  0.5122 -0.1610
 3953TIP3    H233275   6.612   5.735  16.213  0.4923  0.1501  1.5432
 3954TIP3   OH233276   5.110   4.504   6.099 -0.0166 -0.0176  0.3633
 3954TIP3    H133277   5.146   4.587   6.069 -2.0522  1.1031  0.8096
 3954TIP3    H233278   5.186   4.449   6.116  1.4422  2.0678  0.9641
 3955TIP3   OH233279   6.472   2.928  11.523 -0.1179  0.1247  0.3513
 3955TIP3    H133280   6.420   2.858  11.484 -3.1038  1.9410  0.7525
 3955TIP3    H233281   6.435   2.940  11.610 -0.0517  2.4409  0.1268
 3956TIP3   OH233282   2.743   6.521   3.919 -0.3481 -0.2156  0.2947
 3956TIP3    H133283   2.664   6.552   3.963  0.2314 -0.7404  1.7541
 3956TIP3    H233284   2.764   6.590   3.857 -2.2903 -0.3367 -0.5841
 3957TIP3   OH233285   3.698   5.205   5.701  0.0175 -0.8808 -0.1023
 3957TIP3    H133286   3.708   5.263   5.777  1.2086 -1.2445  0.0322
 3957TIP3    H233287   3.677   5.120   5.739 -0.9386 -0.7252 -0.2648
 3958TIP3   OH233288   5.361   0.085   3.488 -0.1252  0.7253 -0.5383
 3958TIP3    H133289   5.334  -0.002   3.519 -1.1799  0.9926 -0.6757
 3958TIP3    H233290   5.290   0.143   3.515  0.4828  1.5200 -0.6124
 3959TIP3   OH233291   2.444   0.460  14.206 -0.0892  0.0397  0.0669
 3959TIP3    H133292   2.389   0.441  14.282  0.9065 -1.3204  0.4812
 3959TIP3    H233293   2.517   0.512  14.241 -0.8393  1.4527 -0.4004
 3960TIP3   OH233294   5.510   1.470   1.241 -0.1281 -0.0068 -0.1701
 3960TIP3    H133295   5.586   1.411   1.235  0.7106  1.0182  0.1418
 3960TIP3    H233296   5.441   1.416   1.279  1.2891 -0.1928  2.3296
 3961TIP3   OH233297   1.074   6.521  15.797  0.5244  0.7021 -0.0144
 3961TIP3    H133298   1.053   6.438  15.755 -0.0727  0.0692  1.4719
 3961TIP3    H233299   1.164   6.540  15.770  0.1298  0.3667 -1.6042
 3962TIP3   OH233300   3.183   5.049   4.923 -0.4082 -0.0208 -0.5385
 3962TIP3    H133301   3.128   4.990   4.974 -0.8745  0.1599 -0.8301
 3962TIP3    H233302   3.271   5.038   4.961 -0.3983 -1.2225 -0.8624
 3963TIP3   OH233303   1.856   6.487   1.101 -0.2760  0.2409  0.1562
 3963TIP3    H133304   1.841   6.424   1.172 -0.1273 -0.3661 -0.3376
 3963TIP3    H233305   1.915   6.442   1.041 -0.5333  0.6800 -0.4371
 3964TIP3   OH233306   5.656   3.839   0.199 -0.1546 -0.5797  0.0441
 3964TIP3    H133307   5.711   3.873   0.270  2.6586 -1.7621 -1.3681
 3964TIP3    H233308   5.612   3.916   0.164  0.6294  0.4715  1.2581
 3965TIP3   OH233309   3.510   1.665   1.170  0.1562 -0.7447 -0.6007
 3965TIP3    H133310   3.477   1.580   1.140 -2.1358 -0.2826  0.4372
 3965TIP3    H233311   3.497   1.724   1.096  0.3024 -0.9378 -0.7826
 3966TIP3   OH233312   1.677   4.465  13.171 -0.4907  0.6479  0.0968
 3966TIP3    H133313   1.598   4.422  13.138  0.6283  1.2216 -3.8907
 3966TIP3    H233314   1.661   4.559  13.160  0.1010  0.8775  1.0098
 3967TIP3   OH233315   0.569   4.002  14.131  0.2115 -0.1677  0.0079
 3967TIP3    H133316   0.532   4.016  14.219  0.4523 -0.1525  0.1090
 3967TIP3    H233317   0.506   3.946  14.087  0.1072 -0.2089  0.2069
 3968TIP3   OH233318   1.888   1.560  13.553 -0.1439  0.1808  0.2160
 3968TIP3    H133319   1.928   1.587  13.470  0.7815  0.8502  0.8513
 3968TIP3    H233320   1.944   1.489  13.585 -0.5744 -0.1662  0.2104
 3969TIP3   OH233321   3.682   3.159  15.192 -0.1827  0.4227 -0.4565
 3969TIP3    H133322   3.759   3.137  15.138 -0.5389  0.5427 -1.0233
 3969TIP3    H233323   3.708   3.236  15.241 -0.2257  0.9874 -1.2925
 3970TIP3   OH233324   3.916   0.514  15.385 -0.3278  0.1388 -0.4784
 3970TIP3    H133325   3.900   0.446  15.451  1.6113 -0.2809 -0.4052
 3970TIP3    H233326   3.864   0.486  15.310  0.8540 -1.7576 -0.6531
 3971TIP3   OH233327   6.293   1.973   1.965 -0.0636  0.4481  0.4779
 3971TIP3    H133328   6.266   1.881   1.964  0.0985  0.3895  1.1276
 3971TIP3    H233329   6.218   2.020   1.929  0.8531 -0.1683 -2.4293
 3972TIP3   OH233330   5.324   5.483  16.490  0.3919  0.1851 -0.0812
 3972TIP3    H133331   5.304   5.446  16.404 -1.6961 -0.2129  0.5421
 3972TIP3    H233332   5.404   5.534  16.475  0.2562 -0.1238 -2.1854
 3973TIP3   OH233333   2.743   1.848  13.851  0.0053 -0.5959 -0.2196
 3973TIP3    H133334   2.683   1.776  13.829  0.9614 -1.6302  0.4289
 3973TIP3    H233335   2.741   1.852  13.946  0.3495 -0.1049 -0.2325
 3974TIP3   OH233336   0.733   2.415  11.021  1.0330  0.5829 -0.1619
 3974TIP3    H133337   0.780   2.494  10.996 -1.7186  1.9804 -1.3896
 3974TIP3    H233338   0.734   2.360  10.942  0.6277  0.6306 -0.2030
 3975TIP3   OH233339   1.997   4.258  16.599 -0.0768 -0.3588 -0.2528
 3975TIP3    H133340   1.945   4.205  16.660  0.6490  0.6799  1.3495
 3975TIP3    H233341   2.082   4.267  16.643 -0.5980  3.2643  0.2743
 3976TIP3   OH233342   1.161   0.933  17.084 -0.3508  0.9375  0.0869
 3976TIP3    H133343   1.226   0.921  17.015  1.8907 -0.1172  2.2252
 3976TIP3    H233344   1.182   1.018  17.123  1.4852 -0.4253  2.3400
 3977TIP3   OH233345   5.159   3.209   6.452  0.0597  0.6908  0.6415
 3977TIP3    H133346   5.221   3.281   6.466  1.0308 -0.1051  0.6056
 3977TIP3    H233347   5.202   3.154   6.385 -0.0153 -0.6202  1.6336
 3978TIP3   OH233348   0.231   2.176  14.833 -0.4830  0.4895  0.5513
 3978TIP3    H133349   0.181   2.214  14.761 -0.7436  2.4963  1.7046
 3978TIP3    H233350   0.276   2.251  14.873  0.0594 -0.6380  2.1495
 3979TIP3   OH233351   1.644   6.760  12.981 -0.4234 -0.2960 -0.6606
 3979TIP3    H133352   1.699   6.682  12.972  0.7179  0.5690 -1.6338
 3979TIP3    H233353   1.646   6.800  12.894 -0.3542  1.2070  0.0100
 3980TIP3   OH233354   2.163   5.153   6.310  0.5302  0.2534  0.7006
 3980TIP3    H133355   2.103   5.148   6.384  0.8301 -0.2734  0.9058
 3980TIP3    H233356   2.106   5.159   6.234  0.1928  2.2892  1.0397
 3981TIP3   OH233357   4.106   0.937  16.067 -0.0119  0.2522  0.4974
 3981TIP3    H133358   4.056   0.869  16.021 -1.1528  1.2932  0.1505
 3981TIP3    H233359   4.082   1.018  16.023  3.0944  0.6922 -0.6654
 3982TIP3   OH233360   4.758   4.352  15.297  0.0834  0.6666  0.5181
 3982TIP3    H133361   4.747   4.308  15.382  1.2945 -0.2935  0.2092
 3982TIP3    H233362   4.827   4.417  15.312  0.7735  0.0389  0.1224
 3983TIP3   OH233363   3.766   3.857   3.198 -0.2244  0.6079  0.0589
 3983TIP3    H133364   3.728   3.937   3.162  0.1387  0.5412 -0.4869
 3983TIP3    H233365   3.711   3.836   3.274  0.2449  1.9014  0.7891
 3984TIP3   OH233366   4.991   0.643   4.439 -0.0260 -0.2912 -0.4475
 3984TIP3    H133367   5.031   0.622   4.355  1.0598  1.1677 -0.3173
 3984TIP3    H233368   4.995   0.738   4.445 -1.9016 -0.2179  0.3913
 3985TIP3   OH233369   5.649   6.762   3.135  0.0490 -0.7420 -0.0407
 3985TIP3    H133370   5.595   6.799   3.204 -0.8888 -0.6805 -0.7761
 3985TIP3    H233371   5.739   6.777   3.163 -0.3106 -0.8097  1.2032
 3986TIP3   OH233372   3.402   4.620   2.035  0.1577  0.3062  0.2265
 3986TIP3    H133373   3.416   4.613   1.941  1.7174 -0.2250  0.4803
 3986TIP3    H233374   3.339   4.551   2.056  1.5263 -1.0888 -0.1020
 3987TIP3   OH233375   4.394   0.065  15.492 -0.0950 -0.3826  0.2736
 3987TIP3    H133376   4.441  -0.008  15.534  0.7251  0.1615  0.3271
 3987TIP3    H233377   4.404   0.137  15.553 -1.8942 -0.5123  0.7679
 3988TIP3   OH233378   1.671   6.221  14.796 -0.3696 -0.0591 -0.0107
 3988TIP3    H133379   1.682   6.247  14.704  2.0837 -0.3797  0.1235
 3988TIP3    H233380   1.740   6.157  14.810 -1.5043 -0.9582  1.7545
 3989TIP3   OH233381   5.306   3.287  16.855 -0.3556  0.1376  0.2618
 3989TIP3    H133382   5.287   3.322  16.942  0.8594 -0.0553  0.6202
 3989TIP3    H233383   5.400   3.296  16.845 -0.6012  1.3292 -1.5563
 3990TIP3   OH233384   2.396   1.499   0.969  0.2224  0.1479 -0.1558
 3990TIP3    H133385   2.486   1.482   0.995  0.6548  3.5023  0.9173
 3990TIP3    H233386   2.344   1.477   1.046  0.1928 -0.7826 -0.4249
 3991TIP3   OH233387   0.054   5.017  14.088 -0.3941 -0.0372  0.0777
 3991TIP3    H133388   0.066   5.079  14.016  0.7458 -0.3723 -0.0424
 3991TIP3    H233389   0.094   4.936  14.056 -2.7025 -1.1707 -0.1591
 3992TIP3   OH233390   3.606   5.289   5.079 -0.0009  0.1049 -0.3584
 3992TIP3    H133391   3.634   5.334   5.159 -0.7051 -1.7486  1.0082
 3992TIP3    H233392   3.687   5.277   5.030  0.8285 -0.6394  1.1189
 3993TIP3   OH233393   4.185   0.279  13.613  0.2786  0.3866  0.2487
 3993TIP3    H133394   4.270   0.290  13.656  0.8115  3.1617 -1.2849
 3993TIP3    H233395   4.195   0.199  13.561  1.4400 -0.1193  1.1989
 3994TIP3   OH233396   1.777   6.563  16.520 -0.2283 -0.1664 -0.6962
 3994TIP3    H133397   1.872   6.567  16.533 -0.4899 -0.2206  1.8898
 3994TIP3    H233398   1.765   6.512  16.440  1.8948 -2.1162  0.1335
 3995TIP3   OH233399   4.448   6.721  13.418  0.3141 -0.0687  0.3292
 3995TIP3    H133400   4.493   6.721  13.502  0.4101  0.5547  0.2872
 3995TIP3    H233401   4.510   6.765  13.359 -0.6104  1.4482  0.4272
 3996TIP3   OH233402   3.261   3.788  15.177 -0.6731  0.2080  0.1532
 3996TIP3    H133403   3.321   3.783  15.102  1.5547 -2.5525  1.8878
 3996TIP3    H233404   3.249   3.697  15.204 -2.7919  0.9674  2.1464
 3997TIP3   OH233405   0.381   6.364   1.685  0.0904 -0.5751 -0.3278
 3997TIP3    H133406   0.475   6.343   1.682  0.1949 -0.8859  2.4075
 3997TIP3    H233407   0.373   6.444   1.632  1.3962 -1.8923 -2.6996
 3998TIP3   OH233408   2.371   3.269  15.837  0.0969 -0.0145 -0.9249
 3998TIP3    H133409   2.349   3.280  15.929  1.2627  0.0446 -0.6441
 3998TIP3    H233410   2.286   3.269  15.792 -0.4766 -0.0034  0.1344
 3999TIP3   OH233411   4.738   6.504  16.925  0.3955 -0.0587 -0.6110
 3999TIP3    H133412   4.765   6.571  16.988  0.5089 -1.2424  0.6458
 3999TIP3    H233413   4.797   6.516  16.850  0.0856  1.5363 -0.6309
 4000TIP3   OH233414   5.323   6.617   3.551  0.4183  0.1698  0.1596
 4000TIP3    H133415   5.336   6.580   3.638 -1.8964 -0.0984  0.4687
 4000TIP3    H233416   5.312   6.540   3.494 -1.8051  0.2533  0.3565
 4001TIP3   OH233417   2.159   5.336  15.757  0.3430 -0.3568 -0.4177
 4001TIP3    H133418   2.140   5.271  15.825 -0.7104  0.2429 -0.1195
 4001TIP3    H233419   2.134   5.420  15.796  0.2118  0.0577 -1.3566
 4002TIP3   OH233420   2.138   2.211  13.558 -0.1419  0.2573 -0.2972
 4002TIP3    H133421   2.130   2.142  13.492 -2.6256  0.3751 -0.2117
 4002TIP3    H233422   2.124   2.165  13.641 -1.6787  0.7750 -0.2334
 4003TIP3   OH233423   3.044   6.783   0.566 -0.0922  0.1125 -0.4023
 4003TIP3    H133424   3.057   6.878   0.556 -1.1019  0.6598  2.5998
 4003TIP3    H233425   2.954   6.775   0.598  0.1813 -1.8315 -0.0488
 4004TIP3   OH233426   1.202   6.007   3.278  0.0423 -0.8534  0.0584
 4004TIP3    H133427   1.192   6.038   3.188  0.9027 -0.4231  0.0964
 4004TIP3    H233428   1.295   5.988   3.286  0.4192  1.2613  1.5143
 4005TIP3   OH233429   5.186   4.644   3.523 -0.3385  0.0285  0.3400
 4005TIP3    H133430   5.229   4.626   3.606  0.8654 -0.6744 -0.3953
 4005TIP3    H233431   5.198   4.738   3.509  0.7551 -0.1107  0.2828
 4006TIP3   OH233432   1.384   0.326   5.050 -0.2379 -0.2644 -0.2406
 4006TIP3    H133433   1.341   0.240   5.045  3.5739 -2.4187 -0.5309
 4006TIP3    H233434   1.369   0.356   5.139 -2.2944 -0.8059 -0.3613
 4007TIP3   OH233435   4.777   3.093   5.899  0.4857 -0.8554 -0.9837
 4007TIP3    H133436   4.833   3.135   5.834 -1.0443  1.4935 -0.8743
 4007TIP3    H233437   4.822   3.106   5.982  0.0219  0.6207 -0.9512
 4008TIP3   OH233438   5.525   1.163   0.344  0.0211 -0.3314  0.0890
 4008TIP3    H133439   5.468   1.211   0.283 -0.7854 -1.2356  0.1104
 4008TIP3    H233440   5.599   1.136   0.290 -2.0360 -3.6935 -1.3789
 4009TIP3   OH233441   2.323   2.716  15.042 -0.8802 -0.1114  0.2565
 4009TIP3    H133442   2.329   2.653  14.970 -1.4284 -0.2512  0.3294
 4009TIP3    H233443   2.305   2.662  15.120 -1.2225  0.1232  0.3399
 4010TIP3   OH233444   4.410   2.428  12.757 -0.1882 -0.3904 -0.4271
 4010TIP3    H133445   4.426   2.417  12.664  2.7613 -0.8476  0.0213
 4010TIP3    H233446   4.494   2.457  12.792 -1.0339 -0.8150  2.1694
 4011TIP3   OH233447   6.127   0.612   3.968  0.3645  0.8062 -0.2767
 4011TIP3    H133448   6.045   0.653   3.995 -0.5391  0.1101 -1.8458
 4011TIP3    H233449   6.166   0.580   4.049 -2.6877 -2.0824  0.2495
 4012TIP3   OH233450   2.281   0.003   3.595  0.3732  0.3327  0.1091
 4012TIP3    H133451   2.253  -0.023   3.683  0.1795 -3.0332 -0.8389
 4012TIP3    H233452   2.200   0.006   3.544  0.6824  0.5116 -0.3802
 4013TIP3   OH233453   5.044   5.589  11.784  0.0318 -0.6968 -0.0504
 4013TIP3    H133454   5.032   5.679  11.755 -0.5476 -0.9344 -0.5823
 4013TIP3    H233455   4.988   5.538  11.725  0.5136 -1.4234  0.1126
 4014TIP3   OH233456   3.008   0.217   0.285 -0.2400  0.0368  0.0589
 4014TIP3    H133457   3.057   0.256   0.357 -0.6987  0.8801 -0.0723
 4014TIP3    H233458   3.025   0.274   0.210 -1.2092  0.1935 -0.0524
 4015TIP3   OH233459   6.721   6.723   4.763 -0.3125  0.0766  0.6318
 4015TIP3    H133460   6.752   6.677   4.685 -0.8416 -0.1690  0.5632
 4015TIP3    H233461   6.801   6.757   4.804 -0.1816  2.9066 -1.6334
 4016TIP3   OH233462   2.802   3.899  10.844 -0.1428 -0.7223 -0.6159
 4016TIP3    H133463   2.798   3.916  10.938  0.6829  1.2789 -0.8818
 4016TIP3    H233464   2.767   3.979  10.804  1.2531 -0.7684 -2.0177
 4017TIP3   OH233465   5.210   4.254  15.852  0.2310 -0.3897  0.2058
 4017TIP3    H133466   5.284   4.206  15.815 -0.7490 -0.1706 -2.1792
 4017TIP3    H233467   5.248   4.337  15.881  1.1554 -0.8350  0.3069
 4018TIP3   OH233468   3.471   4.798  12.736  0.3967 -0.4699 -0.2935
 4018TIP3    H133469   3.504   4.880  12.774 -1.3310  0.0074  0.3017
 4018TIP3    H233470   3.451   4.820  12.645 -0.9789  0.1079  0.1090
 4019TIP3   OH233471   4.436   1.055  14.406 -0.7291 -0.2201  0.2681
 4019TIP3    H133472   4.445   1.150  14.408  0.1803 -0.2450 -0.9704
 4019TIP3    H233473   4.469   1.025  14.491 -1.5381  0.5911  0.8797
 4020TIP3   OH233474   1.130   0.466   1.808 -0.1536 -0.1498  0.8341
 4020TIP3    H133475   1.145   0.511   1.891  1.8673  1.9737 -0.5609
 4020TIP3    H233476   1.204   0.406   1.800  2.9385  3.5395 -1.7237
 4021TIP3   OH233477   1.575   6.727  15.497 -0.2108 -0.5873 -0.1092
 4021TIP3    H133478   1.539   6.741  15.409 -1.2023 -0.4349  0.3019
 4021TIP3    H233479   1.589   6.815  15.531  2.5539 -0.5875 -0.9988
 4022TIP3   OH233480   1.533   3.940  12.716 -0.3291 -0.2372  0.1842
 4022TIP3    H133481   1.447   3.897  12.723 -0.1600 -0.4971  0.7735
 4022TIP3    H233482   1.549   3.974  12.804 -0.1666  0.4707 -0.1198
 4023TIP3   OH233483   3.310   1.415   2.830 -0.2648  0.6056  0.0488
 4023TIP3    H133484   3.309   1.323   2.801  0.8746 -0.7806  3.7929
 4023TIP3    H233485   3.385   1.421   2.889 -0.8814  3.6950  0.6859
 4024TIP3   OH233486   3.245   2.111   0.178  0.5926  0.0969 -0.3693
 4024TIP3    H133487   3.299   2.173   0.227 -0.3121 -0.0405  0.8569
 4024TIP3    H233488   3.168   2.098   0.233 -0.3088 -0.3349 -1.7002
 4025TIP3   OH233489   5.257   4.912   0.087 -0.0236 -0.2111 -0.7479
 4025TIP3    H133490   5.191   4.981   0.091 -0.3725 -0.5612 -0.3579
 4025TIP3    H233491   5.307   4.931   0.008 -0.1047  0.4948 -0.6307
 4026TIP3   OH233492   0.938   0.889   3.294 -0.1151 -0.3784 -0.0713
 4026TIP3    H133493   0.992   0.937   3.231 -1.4375  0.7686 -0.3849
 4026TIP3    H233494   0.992   0.884   3.373  1.4764 -1.6056 -1.1559
 4027TIP3   OH233495   4.670   3.170  11.601 -0.5114  0.2511  0.3433
 4027TIP3    H133496   4.748   3.214  11.568 -1.9929  2.0596 -0.9527
 4027TIP3    H233497   4.687   3.077  11.587  1.4698  0.5820  0.3087
 4028TIP3   OH233498   0.815   0.698   5.985 -0.3573  0.2217  0.4048
 4028TIP3    H133499   0.773   0.717   6.069 -0.2680  0.6900  0.3445
 4028TIP3    H233500   0.870   0.774   5.967  0.4456 -0.3320  0.4280
 4029TIP3   OH233501   0.999   5.835  10.681 -0.1207 -0.4483  0.6845
 4029TIP3    H133502   0.909   5.805  10.671  0.0268 -0.7478  0.1982
 4029TIP3    H233503   1.051   5.755  10.680  0.1996 -0.2396  0.3281
 4030TIP3   OH233504   3.423   3.090   5.182 -0.0857 -0.5101  0.1682
 4030TIP3    H133505   3.370   3.067   5.258 -1.1111  0.4737 -0.2162
 4030TIP3    H233506   3.366   3.075   5.106  0.9808 -1.6543 -0.4483
 4031TIP3   OH233507   6.317   0.221   1.654 -0.2689 -0.7096 -0.3864
 4031TIP3    H133508   6.375   0.272   1.710 -0.3420 -1.2402  0.1745
 4031TIP3    H233509   6.248   0.189   1.712  0.2302 -2.1443 -0.5440
 4032TIP3   OH233510   2.142   0.033  16.781 -0.3967 -0.2239  0.3189
 4032TIP3    H133511   2.194   0.022  16.860  0.7787 -1.7660 -0.6187
 4032TIP3    H233512   2.069  -0.029  16.791 -0.5928  0.0301  0.4663
 4033TIP3   OH233513   0.825   0.914  11.739  0.2370  0.1471 -0.2672
 4033TIP3    H133514   0.911   0.954  11.739  0.1531  0.5566  2.7660
 4033TIP3    H233515   0.764   0.988  11.742  0.0245 -0.0227  3.1669
 4034TIP3   OH233516   3.355   1.598   5.522  0.0565 -0.6231  0.6538
 4034TIP3    H133517   3.273   1.574   5.478 -0.0681  0.1392  0.4528
 4034TIP3    H233518   3.372   1.688   5.493  1.2163 -0.9320  0.3194
 4035TIP3   OH233519   1.998   5.511   4.128 -0.2565 -0.0418 -0.2212
 4035TIP3    H133520   2.088   5.489   4.149 -0.1813  0.7650  0.3271
 4035TIP3    H233521   1.988   5.603   4.153 -1.6338 -0.5077  1.1511
 4036TIP3   OH233522   1.331   5.635   2.456 -0.2232 -0.0586  0.3212
 4036TIP3    H133523   1.293   5.596   2.535  1.9219 -0.8935  1.0296
 4036TIP3    H233524   1.289   5.721   2.449 -0.7121 -0.0959  2.2013
 4037TIP3   OH233525   5.997   1.546  14.802 -0.0977 -0.2646 -0.3987
 4037TIP3    H133526   6.019   1.453  14.806  1.9767 -0.1388 -4.0252
 4037TIP3    H233527   6.071   1.590  14.844 -0.1234 -0.2249 -0.3950
 4038TIP3   OH233528   4.122   2.517  11.594  0.1392 -0.0174  0.8043
 4038TIP3    H133529   4.149   2.597  11.639  0.0335  1.1581 -1.1023
 4038TIP3    H233530   4.042   2.490  11.638 -0.2884  1.4250  0.9651
 4039TIP3   OH233531   0.989   3.554  17.023  0.4774 -0.2923 -0.4111
 4039TIP3    H133532   0.938   3.634  17.008 -0.2124 -0.3440  1.3591
 4039TIP3    H233533   0.969   3.497  16.949 -1.9654 -0.2547  0.1474
 4040TIP3   OH233534   1.528   0.253   3.377 -0.2166 -0.0018 -0.3074
 4040TIP3    H133535   1.487   0.337   3.399 -0.3381  0.5607 -2.4459
 4040TIP3    H233536   1.614   0.277   3.343 -0.4995 -0.6368 -1.5581
 4041TIP3   OH233537   2.048   1.484  12.709 -0.3093 -0.0254  0.0442
 4041TIP3    H133538   2.055   1.558  12.649  1.8983 -0.9011 -0.9038
 4041TIP3    H233539   2.043   1.523  12.796  2.0215  1.3234 -0.3332
 4042TIP3   OH233540   6.226   3.839  12.429 -0.2930 -0.5826 -0.1343
 4042TIP3    H133541   6.177   3.786  12.367 -1.7406 -0.2977  0.7103
 4042TIP3    H233542   6.235   3.924  12.386 -0.3402 -0.7092 -0.3951
 4043TIP3   OH233543   1.867   3.769   6.526  0.2423  0.0633  0.4074
 4043TIP3    H133544   1.884   3.682   6.490  0.5598 -0.0373  0.7830
 4043TIP3    H233545   1.773   3.781   6.518  0.2605 -0.1097 -0.1015
 4044TIP3   OH233546   4.968   0.520   2.748 -0.7329 -0.0349 -0.1086
 4044TIP3    H133547   4.918   0.581   2.802  1.2229  0.9234  0.7258
 4044TIP3    H233548   4.911   0.443   2.740 -2.6529  1.2880  0.0532
 4045TIP3   OH233549   5.213   5.702   2.407  0.2018  0.1663 -0.6579
 4045TIP3    H133550   5.198   5.794   2.429  0.7710 -0.1055  1.0300
 4045TIP3    H233551   5.282   5.703   2.341 -0.1118  0.9586 -0.9831
 4046TIP3   OH233552   5.895   6.253   2.695  0.4139  0.4680  0.2589
 4046TIP3    H133553   5.845   6.191   2.747  1.0356 -0.2554  0.0034
 4046TIP3    H233554   5.984   6.249   2.731  0.5046  1.0816  0.1264
 4047TIP3   OH233555   2.773   2.875   3.351 -0.5076 -0.4719 -0.4629
 4047TIP3    H133556   2.796   2.821   3.427 -0.2618  0.8081  0.3852
 4047TIP3    H233557   2.687   2.910   3.371 -0.3837 -0.0188 -0.7082
 4048TIP3   OH233558   5.978   5.923   3.461 -0.1696  0.3471 -0.0975
 4048TIP3    H133559   5.973   5.959   3.372  1.7365 -0.9610 -0.8167
 4048TIP3    H233560   6.000   5.830   3.447  2.2180  0.5417  1.7177
 4049TIP3   OH233561   6.021   3.990  15.530 -0.3233  0.4673 -0.0052
 4049TIP3    H133562   6.009   3.927  15.601 -0.4890  0.1725 -0.2955
 4049TIP3    H233563   6.098   4.041  15.556  0.3110 -0.3955 -0.1624
 4050TIP3   OH233564   6.164   1.138   6.418 -0.4461 -0.1556 -0.1175
 4050TIP3    H133565   6.217   1.066   6.454  0.4719  0.7542  0.3986
 4050TIP3    H233566   6.223   1.184   6.359 -0.3784  1.3381  1.0455
 4051TIP3   OH233567   6.247   1.185  11.690 -0.4075 -0.1917  0.1746
 4051TIP3    H133568   6.174   1.124  11.682  0.0255 -0.8692  1.1717
 4051TIP3    H233569   6.324   1.136  11.662 -0.0774 -0.0848  0.8525
 4052TIP3   OH233570   5.541   4.984   5.377 -0.2906  0.0977 -0.2975
 4052TIP3    H133571   5.572   5.053   5.318 -0.0619  0.8928  0.7235
 4052TIP3    H233572   5.451   5.009   5.397 -0.5554 -0.4825 -0.7555
 4053TIP3   OH233573   6.325   1.444  14.343 -0.2954 -0.3814 -0.0797
 4053TIP3    H133574   6.317   1.438  14.248 -1.2805 -0.2977 -0.0090
 4053TIP3    H233575   6.397   1.385  14.366  0.1302 -0.1867 -0.9007
 4054TIP3   OH233576   3.485   0.396   5.411  0.5785  0.2931 -0.3285
 4054TIP3    H133577   3.461   0.481   5.449 -0.3423  0.8116 -1.9538
 4054TIP3    H233578   3.402   0.358   5.383  1.1564 -0.3075 -1.2885
 4055TIP3   OH233579   3.997   1.975   1.101  0.1449 -0.1133 -0.3709
 4055TIP3    H133580   4.076   2.030   1.107 -0.5531  0.7513  1.4943
 4055TIP3    H233581   4.028   1.887   1.123  0.8575 -0.0961 -1.2212
 4056TIP3   OH233582   6.603   5.837  14.433  0.0851  0.0097  0.1772
 4056TIP3    H133583   6.662   5.875  14.499 -1.6513  1.3657  1.0266
 4056TIP3    H233584   6.644   5.860  14.350  2.1985 -1.5128  0.7070
 4057TIP3   OH233585   3.617   5.633  16.127 -0.1830  0.2943  0.1290
 4057TIP3    H133586   3.630   5.589  16.211 -0.5775 -0.6206 -0.2769
 4057TIP3    H233587   3.532   5.677  16.137 -1.5247 -1.9507 -0.6445
 4058TIP3   OH233588   5.029   1.734   2.847  0.3695  0.2447 -0.2509
 4058TIP3    H133589   5.016   1.641   2.865  0.3350  0.1284 -0.8752
 4058TIP3    H233590   4.940   1.770   2.844  0.3825  0.2995 -0.0184
 4059TIP3   OH233591   2.566   5.360  15.341 -0.1226 -0.0746  0.3467
 4059TIP3    H133592   2.622   5.307  15.398 -2.4001  0.7429  3.5898
 4059TIP3    H233593   2.507   5.298  15.300 -1.4121 -0.3746  2.5110
 4060TIP3   OH233594   3.879   2.351   3.578  0.2686 -0.8042 -0.0448
 4060TIP3    H133595   3.832   2.420   3.532  1.5600  0.8180  0.9310
 4060TIP3    H233596   3.857   2.364   3.670  0.7849 -1.4870  0.1847
 4061TIP3   OH233597   0.798   1.097   1.635 -0.2609  0.0830 -0.5256
 4061TIP3    H133598   0.875   1.081   1.581 -0.6782 -1.4966 -0.6970
 4061TIP3    H233599   0.829   1.155   1.705  1.1821 -0.8455 -0.3662
 4062TIP3   OH233600   3.389   6.277   5.670 -0.3160  0.7539 -0.1526
 4062TIP3    H133601   3.380   6.246   5.579 -0.2632  0.9961 -0.2410
 4062TIP3    H233602   3.482   6.269   5.688 -0.4486 -0.1546  0.1910
 4063TIP3   OH233603   2.492   3.553  15.326  0.1682  0.2309  0.0942
 4063TIP3    H133604   2.584   3.579  15.335  0.3550 -0.2361 -0.3781
 4063TIP3    H233605   2.481   3.537  15.232 -1.1468  2.9241 -0.3076
 4064TIP3   OH233606   2.581   1.221   3.032 -0.1275 -0.2382  0.0069
 4064TIP3    H133607   2.525   1.295   3.013 -0.9165 -0.2806  1.9655
 4064TIP3    H233608   2.668   1.249   3.004 -0.3873  1.4697  0.8095
 4065TIP3   OH233609   4.664   3.816  14.582 -0.3416  0.2498  0.1888
 4065TIP3    H133610   4.642   3.906  14.558 -0.4015  0.6204  1.5558
 4065TIP3    H233611   4.616   3.762  14.520  0.1216  1.1559 -1.0041
 4066TIP3   OH233612   2.846   4.143   0.617 -0.5604  0.0999  0.2908
 4066TIP3    H133613   2.803   4.082   0.557  0.0834 -0.7515  0.6791
 4066TIP3    H233614   2.826   4.230   0.581 -0.7355 -0.3683 -0.7758
 4067TIP3   OH233615   3.229   6.260  15.994 -0.4900 -0.0394  0.3413
 4067TIP3    H133616   3.295   6.281  15.929 -0.8898 -1.1570 -0.4483
 4067TIP3    H233617   3.218   6.165  15.988 -1.7880  0.0588  0.8240
 4068TIP3   OH233618   0.100   2.972   1.928 -0.6641 -0.0453 -0.0009
 4068TIP3    H133619   0.048   2.948   1.851  0.1399  1.2747 -0.9983
 4068TIP3    H233620   0.102   2.892   1.981 -1.2259 -1.0000 -1.3512
 4069TIP3   OH233621   1.470   5.155   2.631  0.1466 -0.4452  0.5257
 4069TIP3    H133622   1.460   5.201   2.714  1.6289  0.1882  0.3931
 4069TIP3    H233623   1.498   5.067   2.655 -2.3352 -1.2485  0.7668
 4070TIP3   OH233624   1.368   0.977   3.668  0.2329  0.0563  1.0676
 4070TIP3    H133625   1.387   1.066   3.638  1.8076 -0.3580  0.7015
 4070TIP3    H233626   1.442   0.954   3.723 -0.5507 -0.7518  1.8137
 4071TIP3   OH233627   4.019   1.983   5.293 -0.7280 -0.1906 -0.4538
 4071TIP3    H133628   3.925   1.985   5.311 -0.3291 -1.7570  2.4024
 4071TIP3    H233629   4.034   1.897   5.253 -0.4840 -0.1215 -0.5109
 4072TIP3   OH233630   5.350   2.709   3.649  0.1746  0.4900 -0.5723
 4072TIP3    H133631   5.326   2.638   3.590 -0.5948 -0.1764  0.4992
 4072TIP3    H233632   5.426   2.749   3.608 -0.1752 -0.1087 -1.8715
 4073TIP3   OH233633   4.111   3.735   1.448 -0.1885  0.4880 -0.3132
 4073TIP3    H133634   4.115   3.679   1.370  0.4824  0.6099 -0.3713
 4073TIP3    H233635   4.067   3.815   1.419  0.1181  0.5596 -0.5829
 4074TIP3   OH233636   0.477   0.861  11.396  0.4619  0.0192  0.0035
 4074TIP3    H133637   0.473   0.886  11.489  1.6470  0.1949  0.0207
 4074TIP3    H233638   0.478   0.944  11.349  0.1771 -0.0659 -0.1544
 4075TIP3   OH233639   3.529   0.045  16.877 -0.6396  0.2777 -0.4553
 4075TIP3    H133640   3.465   0.019  16.810 -1.5411  1.0477  0.0942
 4075TIP3    H233641   3.491   0.013  16.959 -1.1624  2.1608  0.0826
 4076TIP3   OH233642   4.263   0.235   3.056  0.1020 -0.3883  0.5919
 4076TIP3    H133643   4.344   0.242   3.106  0.1441  0.8033  0.3876
 4076TIP3    H233644   4.241   0.326   3.034  0.2544 -0.8822 -1.8210
 4077TIP3   OH233645   4.024   2.445   3.005  0.1058  0.1665  0.1715
 4077TIP3    H133646   4.020   2.403   2.920  0.7511  3.4530 -1.6484
 4077TIP3    H233647   3.954   2.510   3.003  0.6058  0.8176  1.8384
 4078TIP3   OH233648   0.687   4.580   4.080  0.4074  0.2247 -0.1168
 4078TIP3    H133649   0.729   4.498   4.106 -1.0536 -1.4499 -2.6406
 4078TIP3    H233650   0.730   4.604   3.998 -0.9760  0.5109 -0.7838
 4079TIP3   OH233651   6.711   3.184   6.351  0.2088 -0.1350  0.5717
 4079TIP3    H133652   6.712   3.139   6.435 -0.2608 -0.0855  0.6080
 4079TIP3    H233653   6.631   3.237   6.353  0.1809 -0.1557  0.0849
 4080TIP3   OH233654   3.000   6.347   3.897  0.3417  0.3538 -0.4537
 4080TIP3    H133655   2.988   6.352   3.992  2.1629  2.0079 -0.2445
 4080TIP3    H233656   2.912   6.361   3.861 -0.1494  1.1105  0.9711
 4081TIP3   OH233657   4.440   2.620   2.190 -0.0684 -0.0133  0.6441
 4081TIP3    H133658   4.363   2.563   2.194 -0.4903  0.5150  0.2602
 4081TIP3    H233659   4.509   2.571   2.234 -0.7384 -0.3217  1.3683
 4082TIP3   OH233660   5.258   6.247   5.290 -0.0640 -0.4702 -0.3803
 4082TIP3    H133661   5.295   6.274   5.206 -0.5326  2.7031  0.3075
 4082TIP3    H233662   5.179   6.199   5.267 -1.2201  1.9272 -1.8709
 4083TIP3   OH233663   3.940   3.686   3.340 -0.0610  0.4693  0.3367
 4083TIP3    H133664   4.008   3.707   3.404  2.7386  0.3406 -2.3711
 4083TIP3    H233665   3.886   3.765   3.335  0.1499  0.7797  2.1701
 4084TIP3   OH233666   0.236   6.075   2.026  0.2534 -0.4162 -0.4124
 4084TIP3    H133667   0.191   6.146   2.073  3.5986  0.5519  1.6965
 4084TIP3    H233668   0.214   6.089   1.934 -0.3155  2.5554  0.0798
 4085TIP3   OH233669   5.928   4.769   2.380 -0.6623 -0.0755 -0.5604
 4085TIP3    H133670   6.004   4.719   2.348  1.0531  2.2191 -0.3347
 4085TIP3    H233671   5.892   4.714   2.450  2.7789  0.0330  1.5616
 4086TIP3   OH233672   1.263   1.749  16.815 -0.5544  0.5162 -0.2239
 4086TIP3    H133673   1.266   1.690  16.890 -0.5641  1.6737  0.7036
 4086TIP3    H233674   1.174   1.742  16.782 -0.7663  0.5710  0.3388
 4087TIP3   OH233675   6.349   2.499  16.671 -0.3652  0.7610 -0.1895
 4087TIP3    H133676   6.356   2.591  16.645  0.2055  0.2605 -1.9548
 4087TIP3    H233677   6.439   2.466  16.670 -0.7401 -0.3604 -1.8665
 4088TIP3   OH233678   5.625   2.599   4.486  0.3895  0.5481 -0.4664
 4088TIP3    H133679   5.683   2.608   4.561 -0.1943 -0.6689  0.1645
 4088TIP3    H233680   5.683   2.575   4.414  0.8682  1.0126 -0.2393
 4089TIP3   OH233681   6.489   3.995   5.565  0.1716 -0.4263 -0.4496
 4089TIP3    H133682   6.487   3.933   5.492 -0.0534  0.2248 -1.0126
 4089TIP3    H233683   6.530   4.073   5.528 -0.5415  0.1427 -0.0540
 4090TIP3   OH233684   4.988   6.134  16.093  0.3410  0.2213 -0.5018
 4090TIP3    H133685   4.964   6.214  16.048 -3.3598 -0.1242  0.5216
 4090TIP3    H233686   5.058   6.096  16.039  1.0046  3.1843 -1.9479
 4091TIP3   OH233687   5.528   3.840   1.268 -0.0591  0.1161 -0.2838
 4091TIP3    H133688   5.594   3.843   1.337 -1.6812 -0.2244  1.3716
 4091TIP3    H233689   5.504   3.932   1.255  0.6976  0.2400 -0.8839
 4092TIP3   OH233690   4.840   2.351  16.762 -0.7385 -0.0728 -0.3084
 4092TIP3    H133691   4.888   2.421  16.807 -0.0736 -0.3268 -0.6013
 4092TIP3    H233692   4.787   2.397  16.697 -1.5930  0.2830  0.6163
 4093TIP3   OH233693   3.526   5.497  12.098 -0.1094  0.1478 -0.3652
 4093TIP3    H133694   3.481   5.413  12.087  0.8695 -0.2588 -1.6264
 4093TIP3    H233695   3.610   5.484  12.054  1.0060  1.0689  1.3958
 4094TIP3   OH233696   2.819   1.187  13.227 -0.3635 -0.1604 -0.4828
 4094TIP3    H133697   2.842   1.099  13.259 -1.1667  0.7224  2.8705
 4094TIP3    H233698   2.724   1.182  13.212 -0.3997  0.1343 -0.3393
 4095TIP3   OH233699   6.663   3.552  17.049  0.1790 -0.4997 -0.4336
 4095TIP3    H133700   6.694   3.468  17.014 -0.3107 -0.8441 -0.0527
 4095TIP3    H233701   6.575   3.562  17.014  0.0605 -0.3647 -0.1011
 4096TIP3   OH233702   1.550   2.164  13.077  1.2199  0.1758 -0.0727
 4096TIP3    H133703   1.563   2.141  12.985  0.1686  0.2476 -0.2409
 4096TIP3    H233704   1.589   2.251  13.085  0.2804  0.6759 -0.7341
 4097TIP3   OH233705   3.814   2.334   0.774  0.1985  0.3826 -0.2055
 4097TIP3    H133706   3.819   2.407   0.835 -0.1742 -0.4921  0.9039
 4097TIP3    H233707   3.742   2.280   0.807  1.3774 -1.2228 -0.1648
 4098TIP3   OH233708   6.106   6.229  13.674 -0.1744 -0.4828  0.1660
 4098TIP3    H133709   6.016   6.199  13.682  0.1270 -1.5137 -0.1464
 4098TIP3    H233710   6.124   6.274  13.756 -1.3810  0.9208 -0.2857
 4099TIP3   OH233711   5.277   2.783  17.061  0.1139 -0.6251  0.4221
 4099TIP3    H133712   5.216   2.743  17.123 -1.8276  1.7519  0.1861
 4099TIP3    H233713   5.294   2.870  17.097  2.6429 -0.8339 -0.0715
 4100TIP3   OH233714   3.268   1.533   4.779 -0.3782 -0.4968 -0.2559
 4100TIP3    H133715   3.296   1.522   4.688  1.0518  0.5621  0.0183
 4100TIP3    H233716   3.281   1.446   4.818  2.0927 -0.2065 -0.2960
 4101TIP3   OH233717   0.718   0.862  16.340 -0.1449  0.4100  0.0125
 4101TIP3    H133718   0.635   0.835  16.379 -0.0872  0.8033  0.4343
 4101TIP3    H233719   0.769   0.894  16.415 -0.2658  1.7830 -0.4658
 4102TIP3   OH233720   2.937   5.192  15.809 -0.4811  0.6600  0.0403
 4102TIP3    H133721   2.963   5.256  15.875 -1.0701  1.5515 -0.5610
 4102TIP3    H233722   2.923   5.111  15.858  0.9685  0.7884  0.7147
 4103TIP3   OH233723   0.720   2.686  10.605 -0.2136 -0.0190  0.2813
 4103TIP3    H133724   0.746   2.601  10.639  0.6800  0.4652  0.8615
 4103TIP3    H233725   0.744   2.684  10.512  0.7080 -0.0587  0.5130
 4104TIP3   OH233726   2.399   6.177   2.095 -0.6370 -0.3761 -0.2625
 4104TIP3    H133727   2.382   6.245   2.160 -3.0235 -1.3663  0.2282
 4104TIP3    H233728   2.464   6.120   2.137 -0.3610  0.2991  0.2501
 4105TIP3   OH233729   4.158   4.633  15.046  0.0027  0.4794  0.1556
 4105TIP3    H133730   4.096   4.694  15.085 -0.3244  0.9894 -1.1126
 4105TIP3    H233731   4.104   4.572  14.996  0.4190 -0.0617  0.3565
 4106TIP3   OH233732   1.483   5.896   0.251 -0.0904 -0.3222 -0.0859
 4106TIP3    H133733   1.569   5.854   0.254 -0.2008 -0.5257  0.2061
 4106TIP3    H233734   1.424   5.828   0.220 -0.0405 -0.0007 -0.9244
 4107TIP3   OH233735   3.029   0.366  16.602  0.1282 -0.3020 -0.0855
 4107TIP3    H133736   3.054   0.423  16.530 -0.3170  3.4151  2.4306
 4107TIP3    H233737   2.937   0.344  16.584 -1.0567  3.2914  0.7170
 4108TIP3   OH233738   5.027   2.108   0.916  0.0373  0.3903  0.2804
 4108TIP3    H133739   5.053   2.016   0.924 -0.3171  0.0897 -1.6559
 4108TIP3    H233740   4.967   2.122   0.990  0.0466 -0.9480  0.5744
 4109TIP3   OH233741   5.803   1.693   0.156 -0.4466 -0.1073 -0.3292
 4109TIP3    H133742   5.865   1.620   0.156 -0.9592 -0.5772 -1.5334
 4109TIP3    H233743   5.739   1.669   0.089 -0.2679  1.7411 -1.2248
 4110TIP3   OH233744   3.476   2.857   0.066 -0.3448 -0.7449 -0.4067
 4110TIP3    H133745   3.528   2.783   0.034  0.5243 -0.7045  0.8592
 4110TIP3    H233746   3.425   2.821   0.139  1.2942  0.2120  1.3020
 4111TIP3   OH233747   6.254   3.155   2.552 -0.0283  0.2692  0.1946
 4111TIP3    H133748   6.313   3.170   2.626 -0.1961 -0.3515  0.4612
 4111TIP3    H233749   6.289   3.209   2.482 -0.2372  1.3917  0.9215
 4112TIP3   OH233750   6.738   4.662  10.464  0.2015  0.4748  0.1053
 4112TIP3    H133751   6.705   4.735  10.518  2.0152  0.0592  1.8758
 4112TIP3    H233752   6.820   4.695  10.427  0.4692 -0.2920  0.0099
 4113TIP3   OH233753   1.333   4.730   3.354  0.0769  0.0453 -0.7118
 4113TIP3    H133754   1.335   4.638   3.380 -0.0300  0.4389  0.7757
 4113TIP3    H233755   1.261   4.735   3.291 -1.1912 -0.5720  0.6128
 4114TIP3   OH233756   6.681   4.677   1.674  0.0813  0.3895  0.1521
 4114TIP3    H133757   6.725   4.632   1.746  0.9158  0.8125 -0.0813
 4114TIP3    H233758   6.611   4.617   1.648  0.8522 -0.5627  0.1886
 4115TIP3   OH233759   3.321   0.623   3.168 -0.2585 -0.5832 -0.1433
 4115TIP3    H133760   3.288   0.646   3.255  2.1847  1.8642  0.2645
 4115TIP3    H233761   3.355   0.535   3.178 -2.6318 -1.5255  0.5005
 4116TIP3   OH233762   2.492   0.073  15.905 -0.2517  0.4305  0.2867
 4116TIP3    H133763   2.502  -0.003  15.963  0.5486  0.2027 -0.1388
 4116TIP3    H233764   2.397   0.086  15.900 -0.5076 -1.5123 -0.8700
 4117TIP3   OH233765   0.637   5.805  16.939  0.4837  0.6921 -0.3753
 4117TIP3    H133766   0.599   5.828  17.024  0.9716 -0.3190  0.1330
 4117TIP3    H233767   0.589   5.726  16.912 -1.5603  2.4706 -2.3557
 4118TIP3   OH233768   3.983   1.174  13.154  0.1488  0.6371  0.3705
 4118TIP3    H133769   3.901   1.159  13.202  0.1430  2.3796  0.9688
 4118TIP3    H233770   4.050   1.180  13.221  1.4541 -3.8264 -0.1915
 4119TIP3   OH233771   6.585   5.554  15.710  0.2091  0.7393  0.6211
 4119TIP3    H133772   6.536   5.482  15.748 -0.7089  0.7629 -0.4476
 4119TIP3    H233773   6.594   5.531  15.617  0.7009  1.5638  0.4474
 4120TIP3   OH233774   0.661   5.685  10.550 -0.0507 -0.0962 -0.2409
 4120TIP3    H133775   0.688   5.762  10.498  1.8255 -0.6345 -0.1446
 4120TIP3    H233776   0.600   5.720  10.615  3.8664  2.3009  2.6180
 4121TIP3   OH233777   4.373   4.260   0.738 -0.0885 -0.4930 -0.3938
 4121TIP3    H133778   4.419   4.190   0.691  0.7404 -1.2637  1.4800
 4121TIP3    H233779   4.371   4.231   0.829  0.6818  2.1121  0.5523
 4122TIP3   OH233780   3.767   5.044   0.474 -0.5888 -0.2216 -0.0430
 4122TIP3    H133781   3.790   4.990   0.550 -0.6275  0.0091  0.1309
 4122TIP3    H233782   3.679   5.015   0.450 -0.0205 -1.3209 -0.8944
 4123TIP3   OH233783   1.187   0.402  12.351  0.0418 -0.5362 -0.0570
 4123TIP3    H133784   1.133   0.335  12.309  0.2260 -0.2348 -0.7975
 4123TIP3    H233785   1.169   0.481  12.301  1.8303 -0.6182 -0.9123
 4124TIP3   OH233786   5.958   5.832  11.794 -0.1455  0.7303 -0.6259
 4124TIP3    H133787   6.010   5.786  11.860 -1.6426  1.1304  0.9160
 4124TIP3    H233788   5.940   5.766  11.727  0.7245  0.0796 -0.2310
 4125TIP3   OH233789   4.403   1.025  16.473  0.4533 -1.0842 -0.0957
 4125TIP3    H133790   4.367   1.011  16.560 -0.4279 -1.3580 -0.4952
 4125TIP3    H233791   4.415   0.937  16.437  0.4909 -0.9661 -0.3762
 4126TIP3   OH233792   2.864   1.789  16.715  0.8443  0.0820  0.6571
 4126TIP3    H133793   2.944   1.807  16.667 -0.5292  0.1362 -1.7334
 4126TIP3    H233794   2.803   1.856  16.687 -1.8118 -3.1550 -2.1473
 4127TIP3   OH233795   6.107   6.678  13.289  0.0281 -0.2111  0.2097
 4127TIP3    H133796   6.031   6.723  13.251  1.7933  1.2269 -1.8472
 4127TIP3    H233797   6.072   6.594  13.319 -2.7627  1.2018  1.2480
 4128TIP3   OH233798   1.926   1.098  12.473  0.7041 -0.4177  0.2736
 4128TIP3    H133799   1.952   1.157  12.544 -0.6952  1.7285 -0.8949
 4128TIP3    H233800   1.854   1.047  12.509 -1.1406  1.8284  0.0145
 4129TIP3   OH233801   5.664   4.168  16.284  0.2088 -0.0162  0.3948
 4129TIP3    H133802   5.682   4.119  16.364  3.9727  0.7810  0.2254
 4129TIP3    H233803   5.750   4.184  16.246 -1.2496  2.0248 -2.4131
 4130TIP3   OH233804   3.411   5.466  11.266 -0.1160  0.4014  0.1716
 4130TIP3    H133805   3.333   5.521  11.265 -1.4098 -1.3577 -0.0433
 4130TIP3    H233806   3.451   5.480  11.180 -0.6877  0.6417 -0.0613
 4131TIP3   OH233807   6.484   4.382   5.650  0.5136 -0.0997 -0.1269
 4131TIP3    H133808   6.481   4.444   5.576  0.2512  0.5126  0.3912
 4131TIP3    H233809   6.562   4.329   5.632 -0.4597 -1.0950 -1.7246
 4132TIP3   OH233810   0.705   5.058   3.088  0.1876 -0.6751  0.1335
 4132TIP3    H133811   0.647   4.990   3.054  1.5291 -1.0867 -1.4919
 4132TIP3    H233812   0.792   5.019   3.082  0.7803  0.4608  1.1051
 4133TIP3   OH233813   0.259   4.660  11.129  0.0257  0.2881  0.4819
 4133TIP3    H133814   0.210   4.578  11.131 -0.1751  0.3574 -0.8047
 4133TIP3    H233815   0.347   4.634  11.101 -0.4069  0.6341 -1.3805
 4134TIP3   OH233816   4.047   0.797   2.630  0.1018 -0.2731  0.0218
 4134TIP3    H133817   3.977   0.799   2.696 -1.0613  0.1967 -1.2001
 4134TIP3    H233818   4.128   0.796   2.682 -0.7448  1.1202  1.4577
 4135TIP3   OH233819   2.575   5.179  13.684 -0.4905 -0.2871  0.4884
 4135TIP3    H133820   2.512   5.174  13.756 -0.5676  0.3854  0.4769
 4135TIP3    H233821   2.649   5.227  13.720 -2.0549  3.5917 -0.8598
 4136TIP3   OH233822   3.318   1.074  15.733  0.0174 -0.3405 -0.1689
 4136TIP3    H133823   3.231   1.105  15.709  0.1062 -0.3053 -0.4448
 4136TIP3    H233824   3.356   1.044  15.650  0.4031 -0.0239 -0.1014
 4137TIP3   OH233825   5.284   1.474   0.209  0.0862 -0.5581 -0.7924
 4137TIP3    H133826   5.349   1.478   0.279  0.5092 -1.1635 -1.1411
 4137TIP3    H233827   5.336   1.483   0.128 -0.1028 -2.2940 -1.1372
 4138TIP3   OH233828   6.678   2.529   2.546  0.5262 -0.2856 -0.8894
 4138TIP3    H133829   6.650   2.448   2.587  2.6004 -0.3423  0.5630
 4138TIP3    H233830   6.601   2.586   2.550 -0.4325 -1.5746 -0.3312
 4139TIP3   OH233831   2.564   3.311   1.916 -0.1925  0.3005  0.5974
 4139TIP3    H133832   2.490   3.351   1.870 -0.3730 -0.6442  0.0467
 4139TIP3    H233833   2.641   3.351   1.876 -0.3409 -0.5781 -0.6451
 4140TIP3   OH233834   1.364   6.212   0.760  0.2909  0.4238  0.0497
 4140TIP3    H133835   1.352   6.126   0.802  0.7879  0.0856 -0.4921
 4140TIP3    H233836   1.304   6.210   0.685  2.5100 -0.7019 -1.8111
 4141TIP3   OH233837   3.173   0.323  11.622 -0.2685 -0.1958 -0.1673
 4141TIP3    H133838   3.212   0.408  11.646 -2.1677  0.4226  0.9954
 4141TIP3    H233839   3.161   0.278  11.706 -2.6996 -0.0089 -0.3352
 4142TIP3   OH233840   2.751   0.124   5.958  0.3124 -0.0534 -0.4155
 4142TIP3    H133841   2.715   0.041   5.990  1.6165 -0.1951  0.7600
 4142TIP3    H233842   2.842   0.123   5.986  0.0180  2.3944  0.9433
 4143TIP3   OH233843   1.935   4.403   5.948  0.3241  0.4256  0.1775
 4143TIP3    H133844   1.973   4.423   6.033 -0.0851  1.8956  0.0371
 4143TIP3    H233845   1.908   4.312   5.955  0.2564  0.5380  1.6342
 4144TIP3   OH233846   1.447   0.629   5.970 -0.7903  0.2983 -0.1817
 4144TIP3    H133847   1.364   0.600   6.007 -1.9203  3.1651 -0.1564
 4144TIP3    H233848   1.425   0.660   5.882 -0.6457  4.3434  1.0040
 4145TIP3   OH233849   5.798   2.997   0.199  0.4833  0.2706  0.4278
 4145TIP3    H133850   5.881   2.976   0.241 -0.4713 -2.5803  1.0839
 4145TIP3    H233851   5.819   3.006   0.106  1.6069  0.2615  0.6744
 4146TIP3   OH233852   0.477   5.370   6.050 -0.3232 -0.2270 -0.6530
 4146TIP3    H133853   0.496   5.454   6.093 -0.4479 -0.6533  0.2728
 4146TIP3    H233854   0.388   5.381   6.016  0.0498  0.3735 -1.4757
 4147TIP3   OH233855   0.147   3.437  15.968 -0.2730  0.5123  0.2134
 4147TIP3    H133856   0.241   3.418  15.981 -0.8099 -2.1554  0.8640
 4147TIP3    H233857   0.123   3.386  15.891 -1.6934 -0.9508  1.5439
 4148TIP3   OH233858   2.771   5.975  10.404 -0.0889  0.7029  0.2944
 4148TIP3    H133859   2.816   6.047  10.448 -3.2043  1.8290  1.9743
 4148TIP3    H233860   2.802   5.897  10.450  0.5685  1.3581  0.9996
 4149TIP3   OH233861   2.963   0.604  11.519 -0.3154  0.1405 -0.4157
 4149TIP3    H133862   2.946   0.601  11.613 -2.1241  0.3223 -0.6953
 4149TIP3    H233863   2.932   0.519  11.487 -0.2997  0.3205 -0.9233
 4150TIP3   OH233864   2.594   5.494  11.187  0.9888 -0.2713  0.2676
 4150TIP3    H133865   2.535   5.420  11.205  1.4797 -0.4787  1.0622
 4150TIP3    H233866   2.590   5.505  11.092  0.7516 -1.1878  0.1626
 4151TIP3   OH233867   5.472   1.860  15.634 -0.4350  0.0761 -0.1431
 4151TIP3    H133868   5.494   1.771  15.661 -3.3880 -1.0290 -0.9534
 4151TIP3    H233869   5.473   1.858  15.539 -0.5006  0.9336 -0.1710
 4152TIP3   OH233870   2.569   5.430   5.705 -0.1310  0.5995  0.0655
 4152TIP3    H133871   2.514   5.433   5.627  1.4424 -0.4919 -1.1266
 4152TIP3    H233872   2.513   5.390   5.772 -0.6803 -0.9137 -1.2326
 4153TIP3   OH233873   4.391   0.565  12.729 -0.3329  0.3406  0.1777
 4153TIP3    H133874   4.302   0.582  12.700 -0.6681  0.6565  1.3420
 4153TIP3    H233875   4.431   0.652  12.737 -0.2400  0.2564  0.6437
 4154TIP3   OH233876   0.293   4.862  14.363  0.0411  0.1009 -0.3055
 4154TIP3    H133877   0.239   4.793  14.325 -0.4402  0.6794 -0.6832
 4154TIP3    H233878   0.241   4.942  14.355  0.5775  0.5107  0.1495
 4155TIP3   OH233879   3.731   3.123  16.536 -0.2796 -0.6299 -0.1467
 4155TIP3    H133880   3.725   3.103  16.442  3.3864  3.5009 -1.6328
 4155TIP3    H233881   3.806   3.072  16.566 -0.9149 -1.2913  0.3215
 4156TIP3   OH233882   6.601   3.012   2.458  0.3712  0.7425 -0.8190
 4156TIP3    H133883   6.667   3.064   2.503  0.8379  1.3972 -2.2059
 4156TIP3    H233884   6.539   3.076   2.424  0.4468  0.3448 -1.7395
 4157TIP3   OH233885   2.913   6.286   3.276  0.0832  0.1073 -0.6334
 4157TIP3    H133886   2.846   6.333   3.326  0.4310  1.2461 -1.1975
 4157TIP3    H233887   2.863   6.227   3.220 -0.3038 -1.2957  1.1168
 4158TIP3   OH233888   0.289   6.454   3.735  0.6396 -0.0880 -0.3559
 4158TIP3    H133889   0.336   6.504   3.801 -1.0499  1.6687 -0.4134
 4158TIP3    H233890   0.354   6.439   3.666  2.3450 -1.6925  1.4812
 4159TIP3   OH233891   4.237   4.341  15.449  0.2623  0.1970  0.6379
 4159TIP3    H133892   4.266   4.278  15.383 -1.4918  0.8878 -0.8570
 4159TIP3    H233893   4.319   4.374  15.487  1.4382  0.6895 -2.0501
 4160TIP3   OH233894   5.859   3.724  13.288 -0.5788  0.0137  0.1801
 4160TIP3    H133895   5.937   3.711  13.342 -0.3510 -3.2481 -0.7391
 4160TIP3    H233896   5.878   3.803  13.237  1.8581 -0.3393  0.4316
 4161TIP3   OH233897   2.729   1.509  12.239 -0.3304  0.4122  0.3397
 4161TIP3    H133898   2.792   1.582  12.241 -1.0310  1.0126  1.1834
 4161TIP3    H233899   2.780   1.435  12.205  1.4466  0.2951  2.9918
 4162TIP3   OH233900   1.634   2.465   5.285 -0.0952 -0.3633  0.6786
 4162TIP3    H133901   1.587   2.547   5.271  0.6684 -0.0257 -0.0058
 4162TIP3    H233902   1.663   2.468   5.376 -1.0309 -0.3928  0.9850
 4163TIP3   OH233903   0.902   4.014   3.387 -0.7697 -0.8130 -0.0471
 4163TIP3    H133904   0.909   3.928   3.344 -0.7743 -0.7535 -0.1678
 4163TIP3    H233905   0.982   4.021   3.439 -0.5905 -0.7316 -0.3296
 4164TIP3   OH233906   1.745   3.704   5.158 -0.2532  0.2963  0.0339
 4164TIP3    H133907   1.749   3.756   5.238 -0.4038  1.3281 -0.6076
 4164TIP3    H233908   1.652   3.703   5.136 -0.0414  1.3579 -0.9693
 4165TIP3   OH233909   0.670   0.889   0.421 -0.5940  0.5560  0.2569
 4165TIP3    H133910   0.716   0.855   0.497  0.6880  0.0664 -0.6892
 4165TIP3    H233911   0.642   0.977   0.447 -0.6525  0.2007  1.4532
 4166TIP3   OH233912   3.541   0.760   1.439 -0.1512 -0.4544 -0.6725
 4166TIP3    H133913   3.578   0.845   1.415 -1.1467  0.0736 -0.3861
 4166TIP3    H233914   3.561   0.751   1.532 -1.2934  0.1481 -0.3467
 4167TIP3   OH233915   1.758   2.675   3.101 -0.0433  0.0243 -0.2833
 4167TIP3    H133916   1.737   2.693   3.192  0.0555  0.5796 -0.3669
 4167TIP3    H233917   1.753   2.579   3.093 -1.0772  0.0405  0.0513
 4168TIP3   OH233918   2.173   0.720   0.713  0.0705  0.2860  0.5781
 4168TIP3    H133919   2.166   0.808   0.751  0.1623  0.7458 -0.4460
 4168TIP3    H233920   2.172   0.662   0.789  2.1373  1.2676  1.4254
 4169TIP3   OH233921   5.764   0.967   3.311  0.2951 -0.2919 -0.0304
 4169TIP3    H133922   5.833   0.993   3.249  0.1544 -0.2797 -0.1812
 4169TIP3    H233923   5.747   1.046   3.361  1.3502 -0.6510  0.9257
 4170TIP3   OH233924   5.126   1.267   0.306  0.5896 -0.2031  0.9054
 4170TIP3    H133925   5.194   1.334   0.301  1.1314 -0.8084 -3.2475
 4170TIP3    H233926   5.156   1.208   0.375  3.0988  0.7741  0.7650
 4171TIP3   OH233927   5.255   6.133  11.411  0.3998 -0.0694  0.2959
 4171TIP3    H133928   5.323   6.103  11.472 -0.9092  0.6076  2.1769
 4171TIP3    H233929   5.300   6.198  11.357  1.2036  0.5938  1.6989
 4172TIP3   OH233930   5.770   4.243  15.091  0.0602 -0.2907 -0.5417
 4172TIP3    H133931   5.838   4.181  15.117  0.8596  0.7361 -0.1105
 4172TIP3    H233932   5.724   4.263  15.172  0.2201  0.1628 -0.5629
 4173TIP3   OH233933   3.857   6.520   1.117  0.2371  0.1686 -0.2509
 4173TIP3    H133934   3.913   6.448   1.147  1.2723  0.2839 -1.8053
 4173TIP3    H233935   3.895   6.599   1.155  0.2408  0.0925 -0.0974
 4174TIP3   OH233936   5.556   2.888   0.039 -0.0818 -0.1591 -0.2220
 4174TIP3    H133937   5.622   2.891  -0.030 -0.9179 -0.2366 -1.0510
 4174TIP3    H233938   5.603   2.910   0.119  0.7370  0.8007 -0.9440
 4175TIP3   OH233939   0.167   2.195  10.338 -0.5778 -0.0326  0.3079
 4175TIP3    H133940   0.211   2.123  10.293 -0.1574  0.2433  0.2783
 4175TIP3    H233941   0.234   2.261  10.349 -0.8127  0.1163  0.8696
 4176TIP3   OH233942   0.968   2.265   5.047 -0.2524  0.2382 -0.4095
 4176TIP3    H133943   1.030   2.263   4.974 -2.0507 -3.7716 -2.1558
 4176TIP3    H233944   1.014   2.220   5.119  0.4245  1.4547 -0.0526
 4177TIP3   OH233945   1.402   6.083  12.641 -0.0802 -0.2040 -0.3309
 4177TIP3    H133946   1.492   6.115  12.645 -0.8524  2.0359  0.2718
 4177TIP3    H233947   1.362   6.110  12.724 -1.5657 -0.3052 -0.9697
 4178TIP3   OH233948   1.573   4.652   1.436  0.1822 -0.2587 -0.0855
 4178TIP3    H133949   1.668   4.640   1.440  0.1352 -0.7051 -0.2350
 4178TIP3    H233950   1.538   4.595   1.505  0.0915  0.8430  0.8121
 4179TIP3   OH233951   1.943   6.292  14.002 -0.4103  0.5793  0.0695
 4179TIP3    H133952   1.954   6.200  14.029  1.3138  0.4862 -0.7759
 4179TIP3    H233953   1.968   6.292  13.910  2.7474  2.3841  0.7821
 4180TIP3   OH233954   5.728   1.797   2.819  0.1644 -0.0488  0.1713
 4180TIP3    H133955   5.755   1.738   2.749  0.4730  0.3088 -0.0211
 4180TIP3    H233956   5.748   1.885   2.785 -1.1602  0.2361  0.0625
 4181TIP3   OH233957   4.818   1.172  12.286  0.2074  0.1424 -0.1508
 4181TIP3    H133958   4.855   1.260  12.288  1.2981 -0.2736 -1.0683
 4181TIP3    H233959   4.890   1.115  12.311 -1.1298 -0.3609  3.0257
 4182TIP3   OH233960   3.175   1.151   5.507 -0.0393 -0.1259 -0.0927
 4182TIP3    H133961   3.106   1.085   5.509 -0.6511  0.5211  0.2607
 4182TIP3    H233962   3.131   1.233   5.485  0.4724  0.4435  0.9177
 4183TIP3   OH233963   4.128   3.239   2.978  0.3167  0.8702  0.1878
 4183TIP3    H133964   4.170   3.313   3.022 -0.2735  2.0500 -1.1203
 4183TIP3    H233965   4.103   3.274   2.892 -1.8426 -0.2452  0.2876
 4184TIP3   OH233966   5.873   1.134   5.224  0.1485 -0.0647 -0.4419
 4184TIP3    H133967   5.908   1.069   5.162  0.6587 -0.5472  0.3387
 4184TIP3    H233968   5.951   1.174   5.263 -0.1725 -0.3246  0.4702
 4185TIP3   OH233969   6.007   1.832   0.865  0.0218  0.4326  0.5963
 4185TIP3    H133970   6.089   1.854   0.820 -1.8772  0.7339 -3.1450
 4185TIP3    H233971   5.946   1.901   0.838 -2.1594 -1.2740  0.9283
 4186TIP3   OH233972   4.720   3.573   0.441  0.3845  0.5216 -0.2073
 4186TIP3    H133973   4.793   3.512   0.442 -0.1174 -0.2020 -2.2774
 4186TIP3    H233974   4.743   3.636   0.372 -0.1829  1.2552  0.2604
 4187TIP3   OH233975   2.092   3.649   3.749 -0.0004  0.0484  0.3539
 4187TIP3    H133976   2.072   3.623   3.838  1.4688 -2.3864  0.0810
 4187TIP3    H233977   2.029   3.602   3.695 -0.6692  1.2501  0.0395
 4188TIP3   OH233978   4.678   2.079   4.764 -0.3307  0.7346  0.5056
 4188TIP3    H133979   4.736   2.151   4.788 -0.6302  1.0276  0.3511
 4188TIP3    H233980   4.737   2.005   4.749  0.0923  1.2662 -0.5845
 4189TIP3   OH233981   5.259   0.405   3.424 -0.4753  0.4337 -0.0382
 4189TIP3    H133982   5.282   0.346   3.495 -3.5458 -2.4689 -1.2217
 4189TIP3    H233983   5.306   0.371   3.348  0.8114  2.0113 -0.0142
 4190TIP3   OH233984   5.687   1.142   3.579 -0.4885 -0.0763  0.4270
 4190TIP3    H133985   5.668   1.126   3.671  1.8205 -1.5806  0.6967
 4190TIP3    H233986   5.782   1.134   3.571 -0.7049 -1.1415 -2.2811
 4191TIP3   OH233987   1.280   3.828  16.463 -0.2530 -0.9513 -0.4536
 4191TIP3    H133988   1.360   3.786  16.494 -0.1178 -0.2848  0.1319
 4191TIP3    H233989   1.297   3.922  16.472 -1.1841 -0.8062 -0.0723
 4192TIP3   OH233990   2.715   6.672   6.086  0.1900  0.7165  0.0931
 4192TIP3    H133991   2.696   6.603   6.149  2.6861 -0.4465 -0.3081
 4192TIP3    H233992   2.808   6.691   6.098  0.2306  1.9950 -1.7560
 4193TIP3   OH233993   0.066   4.820  15.344 -0.1249 -0.1482  0.2792
 4193TIP3    H133994   0.029   4.907  15.329 -1.1091 -0.1207  2.5634
 4193TIP3    H233995   0.148   4.836  15.392  1.2934 -0.3967 -1.8889
 4194TIP3   OH233996   1.563   4.184  14.057 -0.0850 -0.2174  0.3630
 4194TIP3    H133997   1.651   4.157  14.083 -0.7124 -1.4349  1.2808
 4194TIP3    H233998   1.552   4.270  14.098 -0.0740 -0.9618  2.0171
 4195TIP3   OH233999   5.657   6.219   3.396 -0.2124  0.6377  0.3970
 4195TIP3    H134000   5.712   6.150   3.433  3.0685  1.9606 -1.6172
 4195TIP3    H234001   5.604   6.250   3.470  1.0208 -1.3762  2.2385
 4196TIP3   OH234002   5.253   4.986  15.516 -0.0159 -0.2856  0.4626
 4196TIP3    H134003   5.220   4.943  15.437  1.2758 -1.8175  0.7038
 4196TIP3    H234004   5.307   5.058  15.483  1.2105 -1.4221 -0.1319
 4197TIP3   OH234005   3.921   5.419   0.203 -0.1030 -0.0956  0.2423
 4197TIP3    H134006   3.855   5.476   0.242  2.1741  0.5234  3.7403
 4197TIP3    H234007   3.977   5.478   0.153  0.8184  0.4596  1.8215
 4198TIP3   OH234008   0.607   0.305   0.419 -0.2416 -0.0224 -0.1190
 4198TIP3    H134009   0.588   0.397   0.440  3.0992  0.4115  1.7826
 4198TIP3    H234010   0.597   0.300   0.324 -2.0565  1.8590 -0.1057
 4199TIP3   OH234011   2.969   6.692  14.337 -0.1522 -0.2311 -0.8133
 4199TIP3    H134012   2.954   6.724  14.426 -2.9049 -0.6463 -1.0693
 4199TIP3    H234013   3.049   6.737  14.309  0.0854  0.8543  1.4060
 4200TIP3   OH234014   3.713   0.387   4.599 -0.0562  0.0030  0.2927
 4200TIP3    H134015   3.718   0.353   4.689 -0.7979  0.0312  0.3477
 4200TIP3    H234016   3.619   0.392   4.580  0.0988 -0.3569 -0.6208
 4201TIP3   OH234017   3.306   1.160   2.129  0.5166  0.3570 -0.4888
 4201TIP3    H134018   3.378   1.179   2.188 -0.6803  0.8911  0.8382
 4201TIP3    H234019   3.326   1.073   2.094 -1.2120 -2.6259  4.7726
 4202TIP3   OH234020   0.034   2.959  13.602  0.5174  0.7054  0.0517
 4202TIP3    H134021  -0.058   2.982  13.616  0.3243 -1.0642  2.0998
 4202TIP3    H234022   0.051   2.887  13.663  3.0682  0.4661 -0.8178
 4203TIP3   OH234023   1.038   5.199   3.269  0.7528 -0.0131 -0.2759
 4203TIP3    H134024   1.027   5.181   3.175  1.1327  1.3075 -0.5975
 4203TIP3    H234025   1.125   5.239   3.275  0.4694  0.4821  0.5551
 4204TIP3   OH234026   0.754   0.872   3.746  0.2606  0.4984 -0.2778
 4204TIP3    H134027   0.840   0.897   3.781  1.1828  0.6207 -2.4571
 4204TIP3    H234028   0.738   0.935   3.676  0.0522 -1.5995 -2.2383
 4205TIP3   OH234029   1.100   1.511  10.973  0.1679 -0.0348 -0.2023
 4205TIP3    H134030   1.082   1.446  11.041  1.3303 -0.8997 -0.6794
 4205TIP3    H234031   1.056   1.477  10.895  1.3249 -0.6401 -0.6230
 4206TIP3   OH234032   4.509   5.018  15.935  0.5895 -0.2714 -0.5867
 4206TIP3    H134033   4.593   5.055  15.962  0.0277  0.8507 -0.3012
 4206TIP3    H234034   4.506   4.932  15.977  0.3132  0.8857  1.9286
 4207TIP3   OH234035   1.792   0.823   4.848  0.4927 -0.3168 -0.1218
 4207TIP3    H134036   1.703   0.807   4.816  0.0712 -1.2063  1.3634
 4207TIP3    H234037   1.814   0.910   4.815 -0.0116 -0.9845 -2.4124
 4208TIP3   OH234038   6.283   2.478  16.964  0.0018 -0.3797  0.4678
 4208TIP3    H134039   6.270   2.467  16.870 -0.7686 -0.8189  0.6220
 4208TIP3    H234040   6.333   2.401  16.991 -2.5743 -1.9813  0.9690
 4209TIP3   OH234041   2.110   0.723   5.291 -0.0357  0.7376  0.1745
 4209TIP3    H134042   2.076   0.804   5.330  1.4868  1.6270 -0.2807
 4209TIP3    H234043   2.048   0.703   5.221 -0.8796  1.0377  0.8133
 4210TIP3   OH234044   0.599   3.049   5.361 -1.4022  0.1744 -0.5401
 4210TIP3    H134045   0.567   3.030   5.449 -1.2932  1.5539 -0.1765
 4210TIP3    H234046   0.542   3.119   5.330  0.1171  1.4480 -0.5792
 4211TIP3   OH234047   2.530   4.019  16.710  0.4515 -0.0254  0.0567
 4211TIP3    H134048   2.563   3.931  16.725 -3.1370 -1.8355 -1.5084
 4211TIP3    H234049   2.543   4.065  16.793 -1.1841 -3.3727  2.3841
 4212TIP3   OH234050   3.155   6.254  13.822  0.4145 -0.1035  0.2089
 4212TIP3    H134051   3.189   6.175  13.780  0.2598  1.0129 -2.1859
 4212TIP3    H234052   3.131   6.226  13.910 -0.4841 -2.9533 -0.8259
 4213TIP3   OH234053   1.232   5.894   4.779 -0.6790  0.2667 -0.4472
 4213TIP3    H134054   1.277   5.974   4.750 -0.2238 -0.9563 -3.5545
 4213TIP3    H234055   1.285   5.862   4.852  0.3353  1.6994 -0.5118
 4214TIP3   OH234056   2.013   5.328  16.852 -0.5412  0.2812  0.5452
 4214TIP3    H134057   2.035   5.286  16.769  0.0876  0.7551  0.4621
 4214TIP3    H234058   1.970   5.410  16.826 -2.4682 -0.6173  0.7038
 4215TIP3   OH234059   3.525   0.627   2.057  0.7081  0.2421  0.2098
 4215TIP3    H134060   3.609   0.673   2.056  0.7988  0.0734 -0.0849
 4215TIP3    H234061   3.544   0.540   2.023  0.2438  0.4985 -0.7368
 4216TIP3   OH234062   6.370   2.397   4.676  0.1748 -0.2481 -0.1326
 4216TIP3    H134063   6.462   2.412   4.655 -0.2827 -0.8449 -3.1738
 4216TIP3    H234064   6.327   2.393   4.590 -2.5968 -0.5584  1.1631
 4217TIP3   OH234065   3.236   5.124   0.806  0.2228  0.3193 -0.0566
 4217TIP3    H134066   3.185   5.205   0.801  1.7098  1.2430 -2.0670
 4217TIP3    H234067   3.179   5.057   0.769 -0.6814  0.6198  0.7522
 4218TIP3   OH234068   1.330   0.338   0.248  0.1101  0.2319  0.1868
 4218TIP3    H134069   1.395   0.286   0.296 -0.4541  0.2523  0.9793
 4218TIP3    H234070   1.246   0.302   0.274 -0.2103 -1.0655 -2.2762
 4219TIP3   OH234071   5.051   2.615  15.216  0.0600 -0.6607  0.3578
 4219TIP3    H134072   5.044   2.696  15.165  2.0892 -1.2175 -0.9320
 4219TIP3    H234073   4.964   2.575  15.209 -0.4908  0.5975 -0.3700
 4220TIP3   OH234074   3.530   5.234   1.140  0.5369  0.4599 -0.2434
 4220TIP3    H134075   3.547   5.310   1.195  1.1972  0.2471 -0.1367
 4220TIP3    H234076   3.455   5.191   1.181  2.0280 -0.6073  1.5127
 4221TIP3   OH234077   1.304   6.656   4.070 -0.4188 -0.6126 -0.3941
 4221TIP3    H134078   1.332   6.592   4.005 -0.0154 -1.1834  0.3213
 4221TIP3    H234079   1.333   6.619   4.154 -1.6595 -0.3036  0.1989
 4222TIP3   OH234080   4.254   5.065   0.013  0.2457  0.5880  0.2498
 4222TIP3    H134081   4.255   5.007  -0.064 -1.0171 -0.8824  1.2661
 4222TIP3    H234082   4.249   5.153  -0.023 -0.5154 -0.0745 -1.3690
 4223TIP3   OH234083   0.239   5.275   6.689 -0.0062 -0.0089  0.0464
 4223TIP3    H134084   0.298   5.273   6.765 -0.2071 -0.7044  0.1973
 4223TIP3    H234085   0.273   5.345   6.634  1.3157 -0.7713 -0.1466
 4224TIP3   OH234086   5.627   6.645  10.819  0.0157  0.4089 -0.2385
 4224TIP3    H134087   5.621   6.552  10.794 -1.0401  0.8127 -1.6753
 4224TIP3    H234088   5.556   6.656  10.883  0.2724  0.1888  0.0884
 4225TIP3   OH234089   6.235   6.502   6.740  0.1047  0.6840  0.0625
 4225TIP3    H134090   6.208   6.422   6.696 -0.6657  0.8641  0.1928
 4225TIP3    H234091   6.304   6.474   6.800 -2.3775 -0.5437  2.5783
 4226TIP3   OH234092   2.439   0.830   5.349  0.3763  0.1018  0.1656
 4226TIP3    H134093   2.458   0.905   5.292  0.1765  0.8761  1.0906
 4226TIP3    H234094   2.426   0.757   5.288 -2.5090  1.4235 -1.0105
 4227TIP3   OH234095   5.315   6.717  15.130 -0.0533  0.0458 -0.1343
 4227TIP3    H134096   5.357   6.799  15.107  0.7370  0.0793  1.3111
 4227TIP3    H234097   5.251   6.740  15.197  0.9194 -0.6110  1.0781
 4228TIP3   OH234098   6.543   3.918   0.873 -0.4875  0.4087  0.1276
 4228TIP3    H134099   6.520   3.913   0.966 -0.5927  3.1898  0.3202
 4228TIP3    H234100   6.460   3.903   0.828 -0.5505 -0.3414  0.4673
 4229TIP3   OH234101   6.059   0.530  12.797 -0.5643 -0.0205 -0.7842
 4229TIP3    H134102   6.085   0.439  12.806 -0.7774 -0.0352 -0.2608
 4229TIP3    H234103   6.002   0.546  12.872  0.6318  0.9514 -0.0402
 4230TIP3   OH234104   4.094   1.675   0.822 -0.2782 -0.1077 -0.1861
 4230TIP3    H134105   4.043   1.646   0.898 -0.2506 -1.5516 -0.6956
 4230TIP3    H234106   4.106   1.596   0.769  2.2679  0.2246 -0.2315
 4231TIP3   OH234107   5.028   4.870  10.415 -0.2099 -0.6063 -0.3192
 4231TIP3    H134108   5.016   4.944  10.474 -1.3535 -0.5746 -0.5793
 4231TIP3    H234109   5.081   4.904  10.343  0.4804 -0.4301  0.2524
 4232TIP3   OH234110   4.943   6.215  16.683  0.0831  0.3254  0.3961
 4232TIP3    H134111   4.949   6.301  16.642 -0.0510  0.0621 -0.1898
 4232TIP3    H234112   4.855   6.184  16.662  0.9783 -1.0422 -1.6302
 4233TIP3   OH234113   2.643   2.352   0.224  0.1107  0.4800 -0.5718
 4233TIP3    H134114   2.673   2.414   0.291 -0.9394  0.3954 -0.0127
 4233TIP3    H234115   2.610   2.277   0.273  2.3042 -1.0282 -1.2585
 4234TIP3   OH234116   6.612   6.082   1.829 -0.1881  0.3960  0.1015
 4234TIP3    H134117   6.653   6.119   1.907  0.5919 -0.8417  0.3084
 4234TIP3    H234118   6.519   6.076   1.852 -0.3377  2.1688  0.0515
 4235TIP3   OH234119   6.005   4.583   5.843  0.5029 -0.3000  0.6030
 4235TIP3    H134120   5.974   4.599   5.754  0.0269 -0.3385  0.7629
 4235TIP3    H234121   6.083   4.638   5.851 -0.8137  1.6076  0.9787
 4236TIP3   OH234122   1.029   0.516   3.647 -0.1962  1.2137  0.5647
 4236TIP3    H134123   1.090   0.587   3.665  0.2816  0.9311  0.0871
 4236TIP3    H234124   1.016   0.473   3.732 -0.5771  1.9357  0.8762
 4237TIP3   OH234125   0.260   3.216  12.841 -0.6399 -1.0091  0.0391
 4237TIP3    H134126   0.305   3.135  12.817 -2.6047 -2.3491  0.6540
 4237TIP3    H234127   0.223   3.248  12.760  2.2812  0.7911 -0.7325
 4238TIP3   OH234128   1.315   1.895  14.576 -0.2619 -0.9877  0.2093
 4238TIP3    H134129   1.250   1.965  14.569  0.7094  0.2429  2.3723
 4238TIP3    H234130   1.289   1.831  14.510 -2.0339  0.7359 -0.8713
 4239TIP3   OH234131   3.147   2.173   1.449  0.3888 -0.5204  0.0982
 4239TIP3    H134132   3.171   2.105   1.386 -1.5479 -0.7996 -0.4141
 4239TIP3    H234133   3.086   2.129   1.509 -2.8862  1.2676 -1.7111
 4240TIP3   OH234134   2.721   6.637   5.792 -0.5905 -0.3196  0.0012
 4240TIP3    H134135   2.728   6.612   5.884  0.3750  0.3760  0.1296
 4240TIP3    H234136   2.773   6.572   5.745  0.6375  0.5083  0.1766
 4241TIP3   OH234137   1.562   3.986  14.802  0.2073 -0.3119 -0.2060
 4241TIP3    H134138   1.519   3.906  14.774  1.4600 -1.4194  0.8939
 4241TIP3    H234139   1.653   3.976  14.774 -0.1178  1.9780 -2.5042
 4242TIP3   OH234140   1.546   6.344   6.043 -0.3978 -0.3211  0.2141
 4242TIP3    H134141   1.492   6.415   6.009 -1.2811 -1.3056 -0.5434
 4242TIP3    H234142   1.587   6.379   6.121 -2.2448  0.4474  0.9024
 4243TIP3   OH234143   1.985   2.596  13.792 -0.0922 -0.0808  0.8078
 4243TIP3    H134144   2.053   2.663  13.801  0.5404 -0.8111  1.6509
 4243TIP3    H234145   2.005   2.553  13.709 -1.9036  2.2515 -0.9900
 4244TIP3   OH234146   3.946   3.961   5.306 -0.5138  0.1625  0.2413
 4244TIP3    H134147   3.884   3.930   5.372  0.2820 -0.9349  0.4868
 4244TIP3    H234148   3.910   3.930   5.222 -0.1607 -0.7184  0.4089
 4245TIP3   OH234149   0.098   2.793   5.022 -0.2624  0.1375  0.0759
 4245TIP3    H134150   0.112   2.768   4.930  3.1211 -0.7410  0.6668
 4245TIP3    H234151   0.066   2.713   5.064  0.8444 -0.3021  0.1182
 4246TIP3   OH234152   2.737   0.940  11.348 -0.1922 -0.3441 -0.2945
 4246TIP3    H134153   2.752   1.008  11.282  0.9501 -0.7144 -0.4371
 4246TIP3    H234154   2.749   0.858  11.301  0.2940 -0.6165  0.2927
 4247TIP3   OH234155   1.867   1.030   0.108  0.3503 -0.1609 -0.7954
 4247TIP3    H134156   1.804   0.962   0.129 -1.0578  1.2028 -0.4477
 4247TIP3    H234157   1.832   1.073   0.029 -0.0079  1.5770  0.2487
 4248TIP3   OH234158   0.526   5.790  10.749  0.0175  0.2479  0.1505
 4248TIP3    H134159   0.487   5.832  10.826 -1.2356 -0.9344  0.1949
 4248TIP3    H234160   0.621   5.794  10.765 -0.2201  0.1187  1.7103
 4249TIP3   OH234161   0.165   2.734   5.387  0.0569  0.3608  0.4872
 4249TIP3    H134162   0.123   2.672   5.447 -0.8439 -0.2805 -0.7766
 4249TIP3    H234163   0.096   2.798   5.367 -1.0325 -1.6242 -2.9301
 4250TIP3   OH234164   6.426   0.093   2.738  0.3677 -0.0248 -0.2613
 4250TIP3    H134165   6.379   0.077   2.820 -1.9787  3.0581 -0.8425
 4250TIP3    H234166   6.392   0.027   2.678 -0.3114 -0.2753  0.3736
 4251TIP3   OH234167   3.682   4.391  13.340 -0.1398  0.0130 -0.1782
 4251TIP3    H134168   3.724   4.446  13.407  2.8766  0.0331 -1.8972
 4251TIP3    H234169   3.596   4.430  13.328  0.8736  2.7609  0.6103
 4252TIP3   OH234170   3.553   5.486   1.228  0.3493  0.9062  0.3784
 4252TIP3    H134171   3.615   5.532   1.285  1.1358 -0.3822  0.5855
 4252TIP3    H234172   3.490   5.554   1.202  1.1609  1.9710  1.1126
 4253TIP3   OH234173   1.529   0.556   3.481  0.2306 -0.2801 -0.6274
 4253TIP3    H134174   1.483   0.488   3.532  0.3315  1.7746  2.4657
 4253TIP3    H234175   1.468   0.577   3.410 -0.9754 -1.7114 -0.0954
 4254TIP3   OH234176   6.770   5.448  15.297 -0.4263  0.1211 -0.6482
 4254TIP3    H134177   6.806   5.447  15.208 -0.4558  0.7713 -0.6743
 4254TIP3    H234178   6.693   5.503  15.291 -0.7451 -0.2886 -0.3325
 4255TIP3   OH234179   6.036   1.399   6.035 -0.2597 -0.3320  0.0656
 4255TIP3    H134180   6.061   1.460   5.966 -1.1222  0.1861  0.1966
 4255TIP3    H234181   6.115   1.388   6.088 -0.3224  1.3563  0.5538
 4256TIP3   OH234182   1.601   3.595  10.754 -0.8298 -0.0920 -0.1666
 4256TIP3    H134183   1.619   3.632  10.840  1.0429 -0.7068 -0.2535
 4256TIP3    H234184   1.673   3.534  10.738 -1.8919 -1.0488 -1.5763
 4257TIP3   OH234185   6.314   4.390  12.341 -0.3656 -1.0447  0.0178
 4257TIP3    H134186   6.314   4.462  12.277 -0.9226 -0.1293  1.0110
 4257TIP3    H234187   6.225   4.355  12.337 -1.0695  0.3740  1.7076
 4258TIP3   OH234188   6.245   5.427   4.519 -0.3402  0.2050  0.4554
 4258TIP3    H134189   6.323   5.411   4.467 -0.7910  0.4015 -0.2875
 4258TIP3    H234190   6.222   5.341   4.554 -0.7370 -0.1650 -0.6682
 4259TIP3   OH234191   0.255   3.575  17.199 -0.1702 -0.1923 -0.3008
 4259TIP3    H134192   0.167   3.578  17.237 -0.2171 -4.1120  0.3081
 4259TIP3    H234193   0.247   3.518  17.123  1.8877 -0.8547 -0.0759
 4260TIP3   OH234194   5.802   3.245   4.485  0.0812 -0.2355  0.4334
 4260TIP3    H134195   5.733   3.289   4.535  1.2327 -0.2077  2.0661
 4260TIP3    H234196   5.816   3.162   4.530  2.4215  0.5696  1.3634
 4261TIP3   OH234197   3.238   1.605  15.265  0.2971  0.3762 -0.2316
 4261TIP3    H134198   3.155   1.562  15.283  0.7309 -1.0703 -1.5188
 4261TIP3    H234199   3.218   1.670  15.198  0.0883  0.5167 -0.0343
 4262TIP3   OH234200   0.736   0.935  16.813 -0.3327 -0.6089  0.0840
 4262TIP3    H134201   0.777   0.917  16.898  1.3219  1.4584 -0.2192
 4262TIP3    H234202   0.671   1.003  16.832 -0.5090 -0.6988 -0.1911
 4263TIP3   OH234203   3.617   1.591   5.700 -0.8040 -0.2078 -0.8062
 4263TIP3    H134204   3.531   1.547   5.705 -1.4671  1.1533  0.6027
 4263TIP3    H234205   3.680   1.520   5.714 -1.7617 -1.0238 -0.4215
 4264TIP3   OH234206   4.399   5.157   2.915  0.1061 -0.1780  0.3808
 4264TIP3    H134207   4.342   5.228   2.945  1.3212  0.7213  0.6133
 4264TIP3    H234208   4.365   5.079   2.960 -2.3736 -0.1516 -1.2513
 4265TIP3   OH234209   1.874   5.598  16.492  0.5240 -0.2690  0.1652
 4265TIP3    H134210   1.941   5.596  16.423 -0.0494  0.2735 -0.4162
 4265TIP3    H234211   1.908   5.660  16.556  0.1297  0.7513 -0.6011
 4266TIP3   OH234212   2.765   1.096  12.002 -0.1757  0.4260 -0.5045
 4266TIP3    H134213   2.811   1.150  11.937 -2.0009  1.6980 -0.8249
 4266TIP3    H234214   2.692   1.057  11.954 -1.2544  0.9695  0.6392
 4267TIP3   OH234215   3.638   4.616   2.211  0.1902  0.2221 -0.0773
 4267TIP3    H134216   3.564   4.610   2.151 -0.6603  0.3793  0.9131
 4267TIP3    H234217   3.687   4.535   2.196  0.9252  0.9990 -2.1136
 4268TIP3   OH234218   4.240   2.643   5.442 -0.1802 -0.5105 -0.1215
 4268TIP3    H134219   4.166   2.584   5.458  0.3241 -0.7739  1.5017
 4268TIP3    H234220   4.306   2.588   5.400  0.4417 -1.2741  1.7491
 4269TIP3   OH234221   1.025   5.046  12.898  0.3295 -0.0656 -0.5409
 4269TIP3    H134222   0.946   5.007  12.861 -0.3130  0.9862 -0.3555
 4269TIP3    H234223   1.063   5.097  12.826 -1.0047  2.1052  0.1700
 4270TIP3   OH234224   1.088   4.631  15.514  0.0861  0.3969  0.0886
 4270TIP3    H134225   1.178   4.660  15.500  0.7338 -1.4177  0.2403
 4270TIP3    H234226   1.094   4.536  15.519 -2.0774  0.0813 -1.7047
 4271TIP3   OH234227   4.613   1.336  12.513 -0.0708 -0.0132  0.1837
 4271TIP3    H134228   4.556   1.264  12.486  0.2597 -0.5354  0.8562
 4271TIP3    H234229   4.680   1.341  12.444  0.1842 -0.6665  0.3801
 4272TIP3   OH234230   6.422   2.418  11.519  0.0022  0.5014  0.3832
 4272TIP3    H134231   6.409   2.383  11.607 -0.4540 -2.7388 -0.8655
 4272TIP3    H234232   6.510   2.390  11.494 -0.4771 -0.0230 -0.7791
 4273TIP3   OH234233   0.505   4.610   3.121  0.4474 -0.0675  0.1405
 4273TIP3    H134234   0.466   4.634   3.205 -0.4643  0.0772 -0.3066
 4273TIP3    H234235   0.430   4.586   3.066  0.9899  0.2171 -0.7482
 4274TIP3   OH234236   2.000   3.854   5.406  0.2188 -0.1366 -0.1971
 4274TIP3    H134237   2.037   3.796   5.339  0.0740 -1.8951  1.1773
 4274TIP3    H234238   1.945   3.796   5.460 -1.1575  1.5938  0.3420
 4275TIP3   OH234239   5.650   2.419   3.748  0.3936 -0.6184  0.2700
 4275TIP3    H134240   5.602   2.457   3.674  1.0045  1.3678  0.8168
 4275TIP3    H234241   5.681   2.334   3.716 -1.0456 -0.6872 -1.0476
 4276TIP3   OH234242   0.585   6.571  10.876 -0.3712 -0.4965 -0.4755
 4276TIP3    H134243   0.655   6.623  10.914  0.4807 -2.1366  0.3231
 4276TIP3    H234244   0.578   6.495  10.934 -1.8648 -1.0490 -1.3276
 4277TIP3   OH234245   4.563   3.095   4.881  0.4086  0.5343  0.5234
 4277TIP3    H134246   4.525   3.170   4.835  1.3568 -0.1311 -1.4529
 4277TIP3    H234247   4.617   3.052   4.816 -0.7551 -2.3911  1.3184
 4278TIP3   OH234248   0.016   6.631   5.639  0.7175 -0.1831 -0.2249
 4278TIP3    H134249   0.041   6.627   5.731  0.3147 -2.2337 -0.1543
 4278TIP3    H234250   0.080   6.577   5.594  0.7068  0.5235 -1.1079
 4279TIP3   OH234251   5.153   2.652   2.229  0.3055  0.2294 -0.2537
 4279TIP3    H134252   5.176   2.563   2.256  0.5835  0.1211 -0.8237
 4279TIP3    H234253   5.212   2.670   2.155 -1.5521 -0.1439 -1.9211
 4280TIP3   OH234254   0.370   4.002   0.700 -1.2460 -0.3923  0.0844
 4280TIP3    H134255   0.325   4.015   0.783 -0.5809 -1.5975  0.6544
 4280TIP3    H234256   0.420   3.921   0.712  0.8526  0.7148 -0.6058
 4281TIP3   OH234257   6.274   0.649   3.016 -0.2213 -0.0150  0.2518
 4281TIP3    H134258   6.295   0.583   3.083 -2.8819 -2.0381 -0.7284
 4281TIP3    H234259   6.359   0.683   2.989  1.0730 -0.5961  3.1676
 4282TIP3   OH234260   4.952   2.646  13.951  0.2985 -0.0938 -0.6654
 4282TIP3    H134261   4.915   2.566  13.990  2.1524 -0.7821 -0.2376
 4282TIP3    H234262   4.901   2.658  13.870 -0.1795 -1.5709 -0.6170
 4283TIP3   OH234263   0.427   4.836   5.271 -0.1060 -0.0664  0.1714
 4283TIP3    H134264   0.400   4.889   5.196 -0.6962  0.6399  0.8661
 4283TIP3    H234265   0.486   4.770   5.234  2.7182  2.5954 -0.3760
 4284TIP3   OH234266   6.561   3.406   0.969 -0.2504 -0.4977 -0.0405
 4284TIP3    H134267   6.636   3.465   0.975  0.5887 -1.4994 -0.2596
 4284TIP3    H234268   6.509   3.440   0.897 -0.4139  0.6449  0.5961
 4285TIP3   OH234269   1.851   2.079  12.735  0.0766  0.0633  0.6860
 4285TIP3    H134270   1.869   1.985  12.730  0.2620  0.0214  1.9108
 4285TIP3    H234271   1.937   2.118  12.751  0.1899  0.5693 -0.9842
 4286TIP3   OH234272   1.137   2.033   2.256  0.0654  0.1467  0.3628
 4286TIP3    H134273   1.157   1.940   2.259 -0.2109  0.1107  1.2184
 4286TIP3    H234274   1.056   2.039   2.205  1.1599  0.1242 -1.4676
 4287TIP3   OH234275   2.776   2.626  10.904  0.1511  0.2766  0.4128
 4287TIP3    H134276   2.699   2.659  10.951 -1.4960 -2.8521  0.1972
 4287TIP3    H234277   2.834   2.592  10.972 -0.3476 -0.5630  0.4348
 4288TIP3   OH234278   2.675   3.469  12.748  0.3350 -0.0411 -0.0225
 4288TIP3    H134279   2.765   3.465  12.779  0.1018 -0.7371  0.5939
 4288TIP3    H234280   2.664   3.389  12.696 -0.1113 -0.2968  0.4495
 4289TIP3   OH234281   1.553   2.896  13.523  0.3181 -0.3872  0.3960
 4289TIP3    H134282   1.591   2.915  13.609  0.7025  0.1459  0.1075
 4289TIP3    H234283   1.473   2.949  13.520  0.4232 -0.2350  0.3290
 4290TIP3   OH234284   4.236   6.638  11.605  0.3935 -0.0874  0.5174
 4290TIP3    H134285   4.188   6.719  11.589 -1.7192 -1.0624  1.4725
 4290TIP3    H234286   4.224   6.622  11.699  0.1547 -1.8286  0.2290
 4291TIP3   OH234287   4.041   5.756  15.084  0.1769  0.1133  0.0387
 4291TIP3    H134288   4.131   5.789  15.080  0.1949 -0.0534 -2.5886
 4291TIP3    H234289   4.051   5.662  15.096  0.2479  0.3121  1.8552
 4292TIP3   OH234290   6.328   3.783   3.028 -1.0676 -0.0677 -0.0035
 4292TIP3    H134291   6.366   3.696   3.036  2.1424  1.2840  0.8729
 4292TIP3    H234292   6.330   3.801   2.934  0.4449 -0.1096 -0.0069
 4293TIP3   OH234293   5.805   0.250   3.195  0.2537  0.3355  0.8739
 4293TIP3    H134294   5.739   0.203   3.247 -0.2562  0.2237  0.1460
 4293TIP3    H234295   5.852   0.181   3.149 -0.5079  0.5101 -0.2113
 4294TIP3   OH234296   2.509   2.440   4.403  0.6506 -0.5741  0.6624
 4294TIP3    H134297   2.441   2.404   4.346  0.3250  1.8657 -0.6116
 4294TIP3    H234298   2.462   2.471   4.480  0.0157  2.1174 -0.6871
 4295TIP3   OH234299   6.307   2.631  10.970  0.2688  0.4225  0.5117
 4295TIP3    H134300   6.331   2.701  10.910 -0.5715  0.9285  0.7497
 4295TIP3    H234301   6.319   2.550  10.920 -1.2720  0.8749 -0.6381
 4296TIP3   OH234302   5.860   6.360   0.701  0.2693 -0.2204 -1.0357
 4296TIP3    H134303   5.910   6.287   0.665  0.0970 -0.6445 -0.4319
 4296TIP3    H234304   5.791   6.376   0.638  0.5550 -0.3073 -1.3716
 4297TIP3   OH234305   3.324   3.726   5.493  0.1700 -0.0112  0.8695
 4297TIP3    H134306   3.361   3.815   5.489  0.6497 -0.1901 -2.7126
 4297TIP3    H234307   3.396   3.672   5.525  0.1662  0.7553  2.2290
 4298TIP3   OH234308   1.234   4.309   3.930  0.5189  0.2815 -0.7173
 4298TIP3    H134309   1.298   4.352   3.986  0.0651 -0.6190  0.5152
 4298TIP3    H234310   1.285   4.248   3.877  0.9645  1.2245 -1.4087
 4299TIP3   OH234311   5.907   1.803   3.601 -0.2763 -0.7843 -0.0409
 4299TIP3    H134312   5.829   1.832   3.647 -1.2169 -1.4783 -1.1325
 4299TIP3    H234313   5.878   1.787   3.511  1.1930 -0.7545 -0.5635
 4300TIP3   OH234314   1.399   2.866  16.322  0.9572 -0.4163  0.1838
 4300TIP3    H134315   1.483   2.835  16.287  2.3531  0.9480  2.0970
 4300TIP3    H234316   1.394   2.829  16.410  0.1480  0.4843  0.5368
 4301TIP3   OH234317   2.603   5.515  14.692  0.2241  0.0582 -0.3500
 4301TIP3    H134318   2.531   5.456  14.669  2.4916 -2.1711 -2.3874
 4301TIP3    H234319   2.608   5.510  14.787 -2.0451  0.0286 -0.1789
 4302TIP3   OH234320   3.256   6.665  11.316 -0.0706  0.3920  0.2267
 4302TIP3    H134321   3.179   6.699  11.271 -0.9605 -0.5860  0.9687
 4302TIP3    H234322   3.266   6.721  11.393  0.7579  1.3330 -0.5408
 4303TIP3   OH234323   0.121   4.091   3.211  0.1873  0.1585 -0.4483
 4303TIP3    H134324   0.027   4.101   3.193  0.0584  2.1372  0.9412
 4303TIP3    H234325   0.139   3.998   3.197 -2.3900 -0.6493  0.9888
 4304TIP3   OH234326   6.445   6.393   3.033 -0.2671  0.5767 -0.1417
 4304TIP3    H134327   6.464   6.330   2.963 -0.2092  1.1510 -0.6494
 4304TIP3    H234328   6.474   6.349   3.113 -0.5983 -0.2069 -0.4358
 4305TIP3   OH234329   4.362   5.203   3.462 -0.5044 -0.2830  0.0852
 4305TIP3    H134330   4.423   5.180   3.392 -0.9660  0.1391 -0.4647
 4305TIP3    H234331   4.344   5.120   3.506  0.9764 -0.3187  0.6888
 4306TIP3   OH234332   6.547   4.857   4.297 -0.4202 -0.0352  0.4933
 4306TIP3    H134333   6.470   4.888   4.250 -1.1403 -0.6507  1.2516
 4306TIP3    H234334   6.596   4.936   4.319 -0.3175  0.2928 -0.8524
 4307TIP3   OH234335   1.948   5.750  16.690 -0.3169  0.2429  0.3467
 4307TIP3    H134336   2.044   5.746  16.682 -0.4035 -0.7023 -0.4523
 4307TIP3    H234337   1.930   5.841  16.713  0.7121  0.6982 -0.5023
 4308TIP3   OH234338   4.219   5.725   2.792  0.9827 -0.5921  0.5262
 4308TIP3    H134339   4.269   5.806   2.800  0.7623 -0.5526  1.6962
 4308TIP3    H234340   4.235   5.679   2.875  1.5053 -1.9841 -0.3111
 4309TIP3   OH234341   5.893   3.572  11.837  0.3527  0.2062  0.4474
 4309TIP3    H134342   5.811   3.598  11.795  0.6567 -0.0482 -0.3421
 4309TIP3    H234343   5.959   3.581  11.767  0.8982 -0.1131  0.9134
 4310TIP3   OH234344   6.422   6.041   2.084  0.2213 -0.5739 -0.7324
 4310TIP3    H134345   6.466   5.959   2.060 -0.7638 -1.1532 -0.6090
 4310TIP3    H234346   6.345   6.013   2.134  0.5877  0.4841  0.4771
 4311TIP3   OH234347   2.080   4.585   2.465 -0.3908 -0.2860 -0.7644
 4311TIP3    H134348   2.151   4.615   2.521 -0.0359 -1.6390 -0.4528
 4311TIP3    H234349   2.091   4.634   2.384 -0.3778  1.0521  0.0051
 4312TIP3   OH234350   6.475   0.767   5.454  0.6429 -0.0627 -0.6361
 4312TIP3    H134351   6.477   0.805   5.542 -0.3471  1.5251 -1.2427
 4312TIP3    H234352   6.566   0.763   5.428  0.8891  0.2382  0.1363
 4313TIP3   OH234353   0.363   0.469  15.820 -0.1408  0.8851  0.1495
 4313TIP3    H134354   0.365   0.521  15.739  0.5641  0.0345 -0.3920
 4313TIP3    H234355   0.439   0.500  15.870 -0.2468  1.0126  0.2315
 4314TIP3   OH234356   0.323   5.590  14.187  0.9353  0.2876 -0.4363
 4314TIP3    H134357   0.391   5.603  14.253 -0.1477  0.6646  0.6468
 4314TIP3    H234358   0.248   5.556  14.235  0.8001 -1.5541 -1.8416
 4315TIP3   OH234359   2.374   5.391  14.691  0.0274 -0.2071 -0.3306
 4315TIP3    H134360   2.314   5.352  14.627 -0.5466  2.2685 -1.4046
 4315TIP3    H234361   2.345   5.357  14.776 -3.9124  1.9315 -0.6077
 4316TIP3   OH234362   0.991   0.688   5.657 -0.3252  0.0588 -0.1806
 4316TIP3    H134363   1.040   0.745   5.717  0.8442  0.3696 -1.3656
 4316TIP3    H234364   0.974   0.744   5.581 -0.0521 -0.8759 -0.9417
 4317TIP3   OH234365   6.119   6.531   4.225 -0.0766 -0.3175  0.0129
 4317TIP3    H134366   6.052   6.590   4.191 -0.8884 -1.4079 -0.3597
 4317TIP3    H234367   6.133   6.560   4.315 -1.6454 -0.5453  0.3561
 4318TIP3   OH234368   6.077   3.436   6.256  0.3308 -0.1252  0.3664
 4318TIP3    H134369   6.122   3.414   6.174 -0.2375  0.0572  0.0008
 4318TIP3    H234370   5.984   3.435   6.234  0.1430 -0.6174  1.1452
 4319TIP3   OH234371   4.827   3.835  11.311  0.6514 -0.0578 -0.0196
 4319TIP3    H134372   4.902   3.865  11.261  1.3034 -0.4202  0.7285
 4319TIP3    H234373   4.855   3.838  11.402  0.1365 -1.2260  0.1985
 4320TIP3   OH234374   3.204   0.818  14.006 -0.4683 -0.2027 -0.3925
 4320TIP3    H134375   3.244   0.774  14.081  1.5818  1.6612 -0.2955
 4320TIP3    H234376   3.165   0.747  13.954  1.6807 -1.9976  0.3152
 4321TIP3   OH234377   0.195   3.024  16.957 -0.0524 -0.5430  0.6157
 4321TIP3    H134378   0.222   3.024  16.865 -1.3520 -1.6028  0.2103
 4321TIP3    H234379   0.245   3.096  16.996 -0.0427  0.4314 -1.0774
 4322TIP3   OH234380   3.772   4.133  13.308  0.9594  0.1542  0.5682
 4322TIP3    H134381   3.731   4.064  13.361 -1.9926  0.2238 -1.3635
 4322TIP3    H234382   3.710   4.205  13.310  1.7627  0.9620 -1.2036
 4323TIP3   OH234383   0.336   0.565   5.130  0.5286  0.0016 -0.1141
 4323TIP3    H134384   0.270   0.497   5.138  0.3377  0.2907  0.8569
 4323TIP3    H234385   0.325   0.619   5.208  0.6759  1.1466 -0.8483
 4324TIP3   OH234386   5.060   0.086   5.565  0.1109 -0.0767  0.2845
 4324TIP3    H134387   5.014   0.098   5.482 -0.2978 -2.9821 -0.0017
 4324TIP3    H234388   5.012   0.141   5.627 -2.5396 -1.3852 -0.4477
 4325TIP3   OH234389   1.706   1.717  14.698 -0.0820  0.0046 -0.1539
 4325TIP3    H134390   1.783   1.715  14.642 -0.1326 -0.9713 -0.2107
 4325TIP3    H234391   1.632   1.720  14.637 -0.1051  3.0545 -0.1065
 4326TIP3   OH234392   0.996   2.314   1.095 -0.0127  0.0169  0.5609
 4326TIP3    H134393   1.051   2.355   1.029  1.2362 -1.1843  0.8060
 4326TIP3    H234394   0.935   2.260   1.045  0.9494 -0.9150  0.3532
 4327TIP3   OH234395   1.360   1.575  11.379 -0.3205 -0.5156  0.2552
 4327TIP3    H134396   1.330   1.664  11.393 -1.1742 -0.5584 -1.0853
 4327TIP3    H234397   1.455   1.579  11.392 -0.4309  0.4337  0.8557
 4328TIP3   OH234398   4.321   2.289  12.221  0.3142  0.3408 -0.5925
 4328TIP3    H134399   4.416   2.278  12.229  0.3514  0.8242 -0.3313
 4328TIP3    H234400   4.285   2.206  12.252  0.6813 -0.3340 -1.8941
 4329TIP3   OH234401   2.237   4.692   2.046  0.3453 -0.4059  0.3846
 4329TIP3    H134402   2.294   4.621   2.019  0.4701 -1.4212  3.0035
 4329TIP3    H234403   2.284   4.772   2.022  0.5799 -1.1635 -1.8402
 4330TIP3   OH234404   5.618   2.725  11.074 -0.5684 -0.3210 -0.3382
 4330TIP3    H134405   5.560   2.649  11.075  1.4198 -2.0034  2.8733
 4330TIP3    H234406   5.652   2.729  10.985 -1.1955 -2.8529 -0.7526
 4331TIP3   OH234407   6.675   3.495  14.247  0.1941  0.3694  0.1548
 4331TIP3    H134408   6.695   3.409  14.212  2.1284  1.8358 -2.7621
 4331TIP3    H234409   6.650   3.479  14.338 -1.3447 -3.3765 -0.7691
 4332TIP3   OH234410   6.615   0.878   3.490 -0.2449  0.2841 -0.0149
 4332TIP3    H134411   6.644   0.787   3.491 -0.6539  0.1367  1.4957
 4332TIP3    H234412   6.688   0.926   3.451  0.6105 -0.5160  0.5448
 4333TIP3   OH234413   3.597   3.990  14.223 -0.6963 -0.2918 -0.4455
 4333TIP3    H134414   3.684   3.989  14.264 -0.1652 -3.4070 -1.4113
 4333TIP3    H234415   3.543   4.040  14.284  1.3162  0.1037  1.1428
 4334TIP3   OH234416   4.683   0.181  11.303  0.3745  0.1670  0.3296
 4334TIP3    H134417   4.644   0.239  11.237  1.3762  0.5199  0.0281
 4334TIP3    H234418   4.770   0.219  11.319  1.1565 -1.3823 -0.0519
 4335TIP3   OH234419   2.434   2.324   3.591 -0.2649  0.0499 -0.1140
 4335TIP3    H134420   2.495   2.256   3.620 -0.1964  0.1835  0.0509
 4335TIP3    H234421   2.481   2.406   3.604  0.8235  0.0313 -3.0079
 4336TIP3   OH234422   5.498   3.138  13.771 -0.0734 -0.3192 -0.2282
 4336TIP3    H134423   5.549   3.218  13.785 -0.1184 -0.1506 -0.9946
 4336TIP3    H234424   5.535   3.075  13.833  0.7493 -0.0547 -0.4401
 4337TIP3   OH234425   3.024   2.723   5.416 -0.0451 -0.2333 -0.2213
 4337TIP3    H134426   2.982   2.637   5.406 -1.9041  0.6052 -0.1206
 4337TIP3    H234427   3.035   2.755   5.326 -1.8045  0.4966 -0.2162
 4338TIP3   OH234428   1.332   5.592  16.213 -0.3052  0.2412 -0.0967
 4338TIP3    H134429   1.319   5.640  16.295  0.6283 -0.2242  0.3407
 4338TIP3    H234430   1.425   5.570  16.213 -0.6181 -1.1834 -0.4859
 4339TIP3   OH234431   2.837   5.882   3.523  0.0231 -0.1990 -0.3953
 4339TIP3    H134432   2.897   5.863   3.595 -0.8830 -0.0384  0.4178
 4339TIP3    H234433   2.835   5.977   3.518 -1.3866 -0.1420  0.6657
 4340TIP3   OH234434   4.360   6.666  12.293  0.4846 -0.1261  0.3847
 4340TIP3    H134435   4.358   6.745  12.347  1.8649  0.4195 -0.3136
 4340TIP3    H234436   4.326   6.597  12.350 -1.9701  1.1614  0.6206
 4341TIP3   OH234437   6.577   0.118  16.735 -0.2032  0.3994  0.3930
 4341TIP3    H134438   6.565   0.182  16.805 -1.2500  1.3813 -0.6333
 4341TIP3    H234439   6.666   0.133  16.704 -0.5871  1.7522 -0.1612
 4342TIP3   OH234440   3.180   0.187  10.548 -0.0504  0.0863  0.2952
 4342TIP3    H134441   3.211   0.174  10.638  1.4960  0.2942 -0.1697
 4342TIP3    H234442   3.234   0.128  10.495  1.5678  2.4604 -0.8840
 4343TIP3   OH234443   0.530   0.957  14.471 -0.7473  0.7487  0.2220
 4343TIP3    H134444   0.604   1.018  14.465 -0.0284 -0.1589 -0.4054
 4343TIP3    H234445   0.568   0.871  14.451 -1.8620  0.1806  0.4755
 4344TIP3   OH234446   0.659   4.837   1.880 -0.5529  0.3884  0.2966
 4344TIP3    H134447   0.639   4.772   1.946 -0.2527  0.1110  0.1172
 4344TIP3    H234448   0.604   4.814   1.805  1.0196 -0.9064 -0.5230
 4345TIP3   OH234449   0.604   2.818   1.492  0.3768  0.2544  0.0797
 4345TIP3    H134450   0.576   2.868   1.568 -0.2110 -0.3771  0.2842
 4345TIP3    H234451   0.543   2.744   1.487 -0.9090  1.3412 -2.1807
 4346TIP3   OH234452   1.910   3.112  12.642  0.1499  0.0719  0.1717
 4346TIP3    H134453   1.981   3.126  12.704 -2.0923  0.0291  2.9869
 4346TIP3    H234454   1.864   3.196  12.638 -0.4628 -0.2758 -0.4602
 4347TIP3   OH234455   2.958   5.138   4.782 -0.3267  0.1692 -0.0725
 4347TIP3    H134456   3.041   5.111   4.823  0.1697 -2.0867 -2.3489
 4347TIP3    H234457   2.982   5.215   4.731  0.3116 -0.2786 -0.4654
 4348TIP3   OH234458   4.959   2.683   1.818 -0.4308  0.5132  0.1331
 4348TIP3    H134459   4.920   2.729   1.744  0.4546  0.3112 -0.4737
 4348TIP3    H234460   4.905   2.605   1.828 -1.2430  1.1011  0.4361
 4349TIP3   OH234461   3.696   2.217  16.394  0.3012 -0.1981  0.3426
 4349TIP3    H134462   3.645   2.263  16.327  1.2279  0.4258  0.0345
 4349TIP3    H234463   3.695   2.126  16.366 -0.1400 -0.0997  0.0153
 4350TIP3   OH234464   1.843   5.646   0.225  0.1056 -0.4011  0.1671
 4350TIP3    H134465   1.821   5.699   0.148  0.4403  0.5494  0.7116
 4350TIP3    H234466   1.777   5.577   0.226 -0.1961 -0.1395 -0.6989
 4351TIP3   OH234467   4.345   5.161   1.964  0.0393  0.0659  0.3510
 4351TIP3    H134468   4.339   5.244   2.012 -0.6792  0.5902 -0.5895
 4351TIP3    H234469   4.273   5.108   1.998 -1.6079  1.1087 -1.3050
 4352TIP3   OH234470   2.772   0.969   0.082 -0.4118  0.1372 -0.2932
 4352TIP3    H134471   2.710   0.901   0.106 -0.0050 -0.2131 -0.2194
 4352TIP3    H234472   2.770   0.971  -0.014 -1.1338  0.6920 -0.2712
 4353TIP3   OH234473   4.604   1.576  16.907  0.0989  0.2294 -0.1817
 4353TIP3    H134474   4.577   1.613  16.822 -2.2872 -0.8493  0.0281
 4353TIP3    H234475   4.614   1.653  16.964  0.8690  0.9029 -1.1849
 4354TIP3   OH234476   4.070   0.727   2.972  0.0185  0.7157 -0.0728
 4354TIP3    H134477   4.131   0.718   3.045 -0.4548  1.6821  0.4617
 4354TIP3    H234478   4.124   0.752   2.897  0.6520 -1.2965 -0.3468
 4355TIP3   OH234479   1.548   2.346   0.095  0.7817 -0.4537  0.5026
 4355TIP3    H134480   1.639   2.323   0.115  1.2588  2.3032  2.0306
 4355TIP3    H234481   1.509   2.364   0.181 -0.4170  0.9598 -0.2863
 4356TIP3   OH234482   3.693   5.925  12.930 -0.2997  0.5163 -0.0311
 4356TIP3    H134483   3.630   5.939  12.860  0.7861  1.2082 -0.9185
 4356TIP3    H234484   3.729   6.012  12.947 -1.1211  0.5039  1.9882
 4357TIP3   OH234485   2.545   5.029   0.106  0.3334 -0.2644 -0.0520
 4357TIP3    H134486   2.616   4.985   0.061  1.4474  0.2038  1.1919
 4357TIP3    H234487   2.528   5.107   0.054 -1.4857 -1.9371 -2.1272
 4358TIP3   OH234488   4.663   5.580   6.433  0.1170  0.1552 -0.4815
 4358TIP3    H134489   4.672   5.673   6.413 -3.2509  0.5605 -0.7106
 4358TIP3    H234490   4.571   5.561   6.416  0.4529 -2.9819  0.6120
 4359TIP3   OH234491   6.042   3.627  12.561 -0.2801 -0.5359 -0.4407
 4359TIP3    H134492   6.009   3.619  12.651 -1.1411  0.2503 -0.6783
 4359TIP3    H234493   6.135   3.647  12.572  0.2044 -2.8810  0.2377
 4360TIP3   OH234494   2.594   0.910   1.214 -0.5373  0.1402 -0.3578
 4360TIP3    H134495   2.662   0.852   1.179 -1.6124 -0.0517 -2.2932
 4360TIP3    H234496   2.600   0.900   1.309  0.8819 -1.2882 -0.5551
 4361TIP3   OH234497   6.440   6.091  14.299  0.2775  0.0119 -0.1698
 4361TIP3    H134498   6.415   6.115  14.388  0.3260  0.7621 -0.3461
 4361TIP3    H234499   6.534   6.075  14.304  0.1752 -0.5244  0.0307
 4362TIP3   OH234500   4.013   2.479   2.548  0.0522  0.1030 -0.3224
 4362TIP3    H134501   3.944   2.537   2.515  0.1542 -0.3623 -1.4232
 4362TIP3    H234502   4.090   2.502   2.496  0.1961 -0.7412 -0.4940
 4363TIP3   OH234503   3.950   5.508  14.929 -0.4065 -0.5560  0.5356
 4363TIP3    H134504   3.994   5.423  14.939  0.0386 -0.1928  1.8957
 4363TIP3    H234505   4.008   5.559  14.873 -1.8741 -1.9246 -2.4503
 4364TIP3   OH234506   1.397   0.169  15.160  0.5141  0.7941  0.6355
 4364TIP3    H134507   1.418   0.081  15.191 -1.7125  0.0520  0.2408
 4364TIP3    H234508   1.364   0.156  15.071 -1.7240  1.7204  1.2513
 4365TIP3   OH234509   1.641   5.284   6.706  0.1209  0.6018 -0.0050
 4365TIP3    H134510   1.645   5.190   6.688  0.9848  0.6350  0.0093
 4365TIP3    H234511   1.709   5.323   6.651  0.1307  1.1556  0.3898
 4366TIP3   OH234512   6.184   4.543  14.989  0.9484 -0.1839  0.0210
 4366TIP3    H134513   6.152   4.559  14.901  2.0011  0.5362 -0.2450
 4366TIP3    H234514   6.122   4.588  15.046  0.8471  0.2145 -0.4020
 4367TIP3   OH234515   5.395   2.773  11.345  0.1431  0.2411  0.1870
 4367TIP3    H134516   5.331   2.808  11.283 -0.4317 -0.2146  0.5186
 4367TIP3    H234517   5.400   2.680  11.324  0.8735  0.3173  0.0119
 4368TIP3   OH234518   5.178   1.833   2.251  0.0598  0.0987  0.2193
 4368TIP3    H134519   5.209   1.905   2.196 -0.2830  1.6183  1.9164
 4368TIP3    H234520   5.244   1.764   2.240  1.4761  1.4268  0.0512
 4369TIP3   OH234521   4.054   3.700   3.077 -0.0969 -0.0486 -0.2078
 4369TIP3    H134522   4.036   3.661   3.162  1.0046 -0.5314 -0.1802
 4369TIP3    H234523   4.032   3.793   3.088  0.2130 -0.0688  0.6622
 4370TIP3   OH234524   5.980   0.833   4.154  0.3794  0.8968 -0.1217
 4370TIP3    H134525   5.977   0.917   4.108  1.7549  0.7232 -0.5728
 4370TIP3    H234526   6.061   0.836   4.204  1.2276 -0.7315 -1.2955
 4371TIP3   OH234527   4.821   3.303  15.042 -0.3211  0.1158  0.5600
 4371TIP3    H134528   4.903   3.347  15.019 -0.9763  1.2156  0.2399
 4371TIP3    H234529   4.761   3.375  15.061 -1.9298 -0.5640 -1.6215
 4372TIP3   OH234530   1.123   5.487   3.517  0.2943 -0.7295 -0.4424
 4372TIP3    H134531   1.200   5.433   3.535  0.1736 -0.3992  1.1727
 4372TIP3    H234532   1.094   5.518   3.602 -2.5489 -2.0371 -0.8303
 4373TIP3   OH234533   1.454   5.837   6.061  0.5972  0.2683 -0.2345
 4373TIP3    H134534   1.524   5.823   6.126 -1.6957 -0.7330  2.2165
 4373TIP3    H234535   1.397   5.902   6.101 -2.8695 -3.0186  0.6653
 4374TIP3   OH234536   2.615   3.636   1.340 -0.0470 -0.4315  0.1334
 4374TIP3    H134537   2.535   3.584   1.338  0.1347 -0.6900 -0.7348
 4374TIP3    H234538   2.599   3.707   1.278  0.6598 -0.9004 -0.6140
 4375TIP3   OH234539   3.673   5.880  15.357 -0.0297  0.2269 -0.1632
 4375TIP3    H134540   3.616   5.901  15.283 -1.2962 -0.0504  0.6943
 4375TIP3    H234541   3.760   5.871  15.319 -0.6818 -0.1027 -1.6471
 4376TIP3   OH234542   4.527   0.255   2.305 -0.2367  0.0071 -0.5507
 4376TIP3    H134543   4.564   0.236   2.392 -0.7980 -0.8189 -0.4702
 4376TIP3    H234544   4.440   0.215   2.308 -1.6719  2.9417 -0.2909
 4377TIP3   OH234545   6.382   4.511   0.069 -0.4175  0.8433  0.4950
 4377TIP3    H134546   6.391   4.579   0.002  0.8861 -0.2514 -0.5166
 4377TIP3    H234547   6.443   4.538   0.138 -0.2576  0.9511  0.3147
 4378TIP3   OH234548   4.857   3.180   2.565  0.5850 -0.2570 -0.6875
 4378TIP3    H134549   4.794   3.166   2.495 -2.9196 -0.3965  2.2298
 4378TIP3    H234550   4.896   3.094   2.580 -0.3988 -0.7485 -0.8925
 4379TIP3   OH234551   5.797   6.287  14.605  0.3914  0.1527 -0.2728
 4379TIP3    H134552   5.782   6.192  14.604  0.9877  0.0065  1.2451
 4379TIP3    H234553   5.855   6.303  14.531 -0.7746 -0.4409 -1.3699
 4380TIP3   OH234554   4.181   3.429  15.702  0.1711 -0.3697 -0.4765
 4380TIP3    H134555   4.121   3.368  15.659  0.7380 -0.0912 -1.7107
 4380TIP3    H234556   4.215   3.380  15.777 -0.1196 -1.2250 -0.8923
 4381TIP3   OH234557   4.661   4.725   3.197  0.0959 -0.3101 -0.3170
 4381TIP3    H134558   4.584   4.687   3.154 -0.3206  1.9952 -1.7827
 4381TIP3    H234559   4.735   4.694   3.145 -0.0574 -0.6093 -0.3607
 4382TIP3   OH234560   3.566   1.706   0.082 -0.4948 -0.0890 -0.2169
 4382TIP3    H134561   3.523   1.792   0.089 -1.1161 -0.2967 -1.1589
 4382TIP3    H234562   3.496   1.647   0.054 -0.4313 -1.2444  1.8578
 4383TIP3   OH234563   4.360   5.690  16.801  0.2826  0.4992 -0.2760
 4383TIP3    H134564   4.284   5.633  16.793  0.2013  0.8659 -2.8389
 4383TIP3    H234565   4.431   5.641  16.758  0.9569  1.0724  0.1683
 4384TIP3   OH234566   6.758   5.192  14.463  0.8416 -0.1841 -0.0944
 4384TIP3    H134567   6.711   5.220  14.385 -1.4566 -0.8924  0.9582
 4384TIP3    H234568   6.693   5.146  14.516  3.0562 -2.4668  0.8610
 4385TIP3   OH234569   3.815   2.585   0.459  0.0093 -0.0977  0.0206
 4385TIP3    H134570   3.741   2.532   0.430  0.1894 -0.8906  0.9687
 4385TIP3    H234571   3.829   2.560   0.550  1.0735  0.4734  0.0345
 4386TIP3   OH234572   1.320   6.501   6.665  0.8332  0.4674  0.5634
 4386TIP3    H134573   1.337   6.591   6.638  0.6365  0.5417  0.6860
 4386TIP3    H234574   1.395   6.477   6.720  0.4649  0.8488  1.2409
 4387TIP3   OH234575   2.199   2.593   0.987  0.0484  0.1203 -0.5564
 4387TIP3    H134576   2.119   2.644   0.996  0.8074  1.2495  0.0393
 4387TIP3    H234577   2.242   2.628   0.909 -0.1635 -0.6902 -1.0568
 4388TIP3   OH234578   6.506   2.157   1.822 -0.9289 -0.3131 -0.0451
 4388TIP3    H134579   6.515   2.105   1.742 -0.2905  0.4080 -0.4497
 4388TIP3    H234580   6.443   2.225   1.800  0.7909  1.1471 -0.6175
 4389TIP3   OH234581   3.636   6.041   1.752  0.4527  0.0159 -0.7377
 4389TIP3    H134582   3.579   6.007   1.683  0.4687  0.5311 -1.0110
 4389TIP3    H234583   3.602   6.003   1.832  0.4269 -0.5848 -1.0256
 4390TIP3   OH234584   2.997   0.701  15.355  0.5532 -0.0438  0.4256
 4390TIP3    H134585   3.032   0.614  15.376 -0.6329 -0.6646 -0.0234
 4390TIP3    H234586   2.927   0.683  15.292  1.0939  1.3606 -0.6248
 4391TIP3   OH234587   6.722   1.564   4.751 -0.3298 -0.7104  0.0389
 4391TIP3    H134588   6.761   1.634   4.699 -1.9691  0.3993  0.2145
 4391TIP3    H234589   6.667   1.609   4.815 -0.8856 -2.1365  0.6251
 4392TIP3   OH234590   4.539   6.469  13.028  0.0015  0.0365 -0.2600
 4392TIP3    H134591   4.480   6.542  13.048  0.2713  0.1151  0.2964
 4392TIP3    H234592   4.506   6.397  13.082  0.3250  0.0405 -0.0553
 4393TIP3   OH234593   4.986   4.080  12.653 -0.8960 -0.2625  0.4719
 4393TIP3    H134594   5.037   4.070  12.572 -1.6543 -1.8834  0.1464
 4393TIP3    H234595   5.012   4.165  12.687  1.3621 -0.6330 -0.1499
 4394TIP3   OH234596   4.270   4.957   1.694 -0.2730  0.2775 -0.1554
 4394TIP3    H134597   4.255   4.862   1.688 -0.1874 -0.3546  4.9001
 4394TIP3    H234598   4.189   4.991   1.732  0.9456  1.5197  1.5025
 4395TIP3   OH234599   1.357   1.314   1.490 -0.0296  0.2544  0.6326
 4395TIP3    H134600   1.298   1.320   1.565  2.0942  4.0591  2.3151
 4395TIP3    H234601   1.323   1.378   1.428 -1.6286 -2.6952 -1.8006
 4396TIP3   OH234602   2.996   2.806  12.990 -0.3952 -0.2668  0.5809
 4396TIP3    H134603   3.029   2.842  13.072  2.0974 -0.9587 -0.0216
 4396TIP3    H234604   3.035   2.718  12.985 -3.0691 -1.5191  0.1297
 4397TIP3   OH234605   5.703   5.155   2.975  0.2029  0.4995 -0.4261
 4397TIP3    H134606   5.734   5.243   2.997 -0.1096  0.8422 -1.3217
 4397TIP3    H234607   5.626   5.170   2.920  0.4566 -0.3298 -1.0181
 4398TIP3   OH234608   4.794   2.643   1.564 -0.2928 -0.3564  0.2893
 4398TIP3    H134609   4.763   2.729   1.592 -0.3080 -0.5236  0.7963
 4398TIP3    H234610   4.714   2.591   1.554 -0.2238 -0.6237  1.0472
 4399TIP3   OH234611   2.222   0.775  17.024 -0.3151  0.5859 -0.1354
 4399TIP3    H134612   2.302   0.826  17.007 -0.3516  0.4081 -0.9126
 4399TIP3    H234613   2.182   0.765  16.937 -0.6171 -0.2466  0.0912
 4400TIP3   OH234614   1.501   1.674   2.571  0.1489 -0.0067  0.1389
 4400TIP3    H134615   1.469   1.617   2.501  3.2385 -0.6029 -0.9603
 4400TIP3    H234616   1.566   1.621   2.617 -2.0185  0.2024  3.8810
 4401TIP3   OH234617   2.375   1.806  11.562 -0.1036 -0.1811 -0.0740
 4401TIP3    H134618   2.379   1.770  11.650 -2.2215  1.9278  1.0220
 4401TIP3    H234619   2.466   1.819  11.537  0.5569 -0.6300  1.8975
 4402TIP3   OH234620   5.998   1.814   2.096 -0.1584 -0.2855  0.3852
 4402TIP3    H134621   5.929   1.758   2.060 -1.8280  1.8296  0.0873
 4402TIP3    H234622   6.062   1.753   2.133 -0.9031 -2.3917 -1.6035
 4403TIP3   OH234623   0.590   4.997  16.021 -0.2575 -0.1751  0.8853
 4403TIP3    H134624   0.562   4.906  16.031  0.4871 -0.7423 -1.6218
 4403TIP3    H234625   0.555   5.024  15.936  1.5853  1.0706  0.4687
 4404TIP3   OH234626   4.757   5.931   1.617 -0.7839  0.2723 -0.0827
 4404TIP3    H134627   4.789   5.994   1.681  0.2601  0.1378 -0.4473
 4404TIP3    H234628   4.662   5.942   1.617 -0.6377  1.6613  0.0335
 4405TIP3   OH234629   3.308   0.658   5.285 -0.1154  0.4034 -0.2280
 4405TIP3    H134630   3.355   0.681   5.365  0.3467  1.9351 -0.9109
 4405TIP3    H234631   3.224   0.703   5.293 -0.7691 -0.8135  0.1275
 4406TIP3   OH234632   0.869   2.445   4.451 -0.4400 -0.0432 -0.7839
 4406TIP3    H134633   0.826   2.378   4.504 -0.9312 -0.1651 -1.3193
 4406TIP3    H234634   0.901   2.398   4.374  1.2496 -0.0710 -0.1053
 4407TIP3   OH234635   3.386   0.350  16.533 -0.0071 -0.2338 -0.4416
 4407TIP3    H134636   3.481   0.338  16.533 -0.0891 -0.9437  0.2899
 4407TIP3    H234637   3.374   0.436  16.574  0.2772 -0.6423  0.5342
 4408TIP3   OH234638   3.254   2.628   6.106 -0.1208 -0.2510 -0.2885
 4408TIP3    H134639   3.347   2.639   6.086 -0.1635 -0.4591 -0.6067
 4408TIP3    H234640   3.242   2.675   6.188 -0.1251  1.3694 -1.1785
 4409TIP3   OH234641   2.244   4.012   5.123  0.2164  0.1569  0.0531
 4409TIP3    H134642   2.216   3.952   5.193  0.2851  0.0096 -0.0449
 4409TIP3    H234643   2.259   4.095   5.167  1.3303 -0.2149  0.4000
 4410TIP3   OH234644   3.943   1.912   3.638 -0.0116  0.3642 -0.2178
 4410TIP3    H134645   3.901   1.994   3.666  0.3061  0.2461  0.6593
 4410TIP3    H234646   4.037   1.930   3.646  0.0683  0.1185 -0.6254
 4411TIP3   OH234647   4.092   5.753   4.015  0.4187 -0.2392 -0.3353
 4411TIP3    H134648   4.086   5.843   3.984  0.3951  0.0703  0.5629
 4411TIP3    H234649   4.179   5.723   3.988  0.0930 -0.2512 -1.4145
 4412TIP3   OH234650   4.937   2.253  14.261  0.0707 -0.0704 -0.3788
 4412TIP3    H134651   4.870   2.313  14.294 -1.1537 -0.5787 -1.7928
 4412TIP3    H234652   4.965   2.203  14.338 -2.9983 -1.5440 -0.0521
 4413TIP3   OH234653   2.672   4.867  14.040  0.1231  0.1635 -0.0189
 4413TIP3    H134654   2.640   4.947  14.082  0.1185 -0.1101  0.4996
 4413TIP3    H234655   2.705   4.897  13.955 -0.1382  0.6727  0.0526
 4414TIP3   OH234656   0.872   5.969  12.136 -0.4784 -0.2522 -0.6647
 4414TIP3    H134657   0.918   6.052  12.121  0.6801 -0.2835  2.2542
 4414TIP3    H234658   0.794   5.993  12.186  0.9567 -1.0158  2.1356
 4415TIP3   OH234659   2.609   2.876  13.878 -0.1657  0.3795 -0.1163
 4415TIP3    H134660   2.547   2.818  13.922  0.7704 -1.0691 -0.6157
 4415TIP3    H234661   2.578   2.964  13.898 -1.5735 -0.2783  0.7805
 4416TIP3   OH234662   5.644   3.387   2.863  0.0367  0.1312  0.1286
 4416TIP3    H134663   5.622   3.422   2.949  1.9234  2.0322 -0.0923
 4416TIP3    H234664   5.604   3.447   2.801  0.1630 -0.2298 -0.3125
 4417TIP3   OH234665   6.452   5.118  11.287  0.1086  0.1494  0.0998
 4417TIP3    H134666   6.420   5.052  11.226 -0.9368  1.7737 -1.1851
 4417TIP3    H234667   6.462   5.197  11.234  1.4600  1.0105  1.5524
 4418TIP3   OH234668   4.780   6.219  12.255  0.7511  0.0603 -0.0862
 4418TIP3    H134669   4.768   6.241  12.347 -0.7250  1.0457 -0.4759
 4418TIP3    H234670   4.691   6.206  12.221  0.8473  3.5344 -2.2056
 4419TIP3   OH234671   5.643   0.354   0.344 -0.0464  1.1403 -0.8428
 4419TIP3    H134672   5.559   0.389   0.375 -0.5282 -0.1747 -0.6089
 4419TIP3    H234673   5.638   0.260   0.361  1.3661  0.9925 -1.1000
 4420TIP3   OH234674   4.957   0.764  14.788  0.4650  0.3255 -0.3113
 4420TIP3    H134675   4.874   0.793  14.825  0.7311  1.7012 -0.7236
 4420TIP3    H234676   4.934   0.694  14.727 -0.6152  1.7248 -1.6059
 4421TIP3   OH234677   1.688   1.120  15.708 -0.7373 -0.8908  0.0727
 4421TIP3    H134678   1.681   1.025  15.698 -0.3150 -1.0310  0.9854
 4421TIP3    H234679   1.611   1.154  15.664 -1.8608 -1.7646  1.2870
 4422TIP3   OH234680   1.698   5.326  16.862  0.3892 -0.6883  0.0694
 4422TIP3    H134681   1.765   5.392  16.846  2.5119 -3.0196 -1.3156
 4422TIP3    H234682   1.746   5.247  16.884 -1.9783 -2.1181  0.4340
 4423TIP3   OH234683   6.254   5.586  15.564  0.0022  0.1584 -0.1749
 4423TIP3    H134684   6.348   5.600  15.555 -0.0609 -0.3259 -1.9510
 4423TIP3    H234685   6.222   5.665  15.608  1.0060  1.1252 -1.1286
 4424TIP3   OH234686   5.909   0.694   2.260  0.1594 -0.2012 -0.0481
 4424TIP3    H134687   5.954   0.699   2.345  1.1836  2.9233 -0.6683
 4424TIP3    H234688   5.825   0.739   2.275 -0.7415 -1.7669 -0.1456
 4425TIP3   OH234689   2.745   5.318  16.257 -0.6063 -0.6168  0.1318
 4425TIP3    H134690   2.824   5.276  16.291 -0.9958 -0.9755  0.6056
 4425TIP3    H234691   2.683   5.315  16.330 -0.7279  0.5711  0.0979
 4426TIP3   OH234692   0.133   1.372   5.233  0.4330 -0.7302 -0.5201
 4426TIP3    H134693   0.098   1.287   5.206  0.0452 -0.6443 -0.2907
 4426TIP3    H234694   0.142   1.421   5.151 -0.3681 -0.6100 -0.5418
 4427TIP3   OH234695   6.469   2.563   3.228  0.1899 -0.2375 -0.0747
 4427TIP3    H134696   6.533   2.608   3.172 -0.3204 -0.2447 -0.6676
 4427TIP3    H234697   6.461   2.476   3.190  0.0161 -0.3234  0.1548
 4428TIP3   OH234698   5.845   4.053  15.902  0.2236  0.1306 -0.1954
 4428TIP3    H134699   5.891   4.086  15.825  1.3306 -0.2351  0.2933
 4428TIP3    H234700   5.878   4.106  15.975 -0.5129  0.2083  0.0905
 4429TIP3   OH234701   0.605   5.952  12.729 -0.5507 -0.8035  0.9810
 4429TIP3    H134702   0.540   5.903  12.779 -0.2023 -0.9668  1.2781
 4429TIP3    H234703   0.633   5.892  12.660  0.0921 -1.1388  1.5228
 4430TIP3   OH234704   3.067   3.367   0.495 -0.2316  0.3294 -0.0721
 4430TIP3    H134705   3.137   3.335   0.438  1.3140  0.2426  1.7802
 4430TIP3    H234706   3.110   3.428   0.554 -1.1673 -1.4164  2.5990
 4431TIP3   OH234707   5.942   5.420  16.890 -0.0384  0.4805 -0.3910
 4431TIP3    H134708   5.850   5.440  16.906 -0.2272 -0.8088  0.2330
 4431TIP3    H234709   5.947   5.325  16.893  1.4307  0.5544  0.2872
 4432TIP3   OH234710   1.400   5.238  13.824  0.3638  0.6239 -0.0891
 4432TIP3    H134711   1.333   5.247  13.892  0.5024 -0.2373  0.1748
 4432TIP3    H234712   1.400   5.322  13.779 -2.5400 -0.0615 -1.6032
 4433TIP3   OH234713   4.619   0.745  11.445 -0.2196 -0.0389  0.6923
 4433TIP3    H134714   4.599   0.733  11.352  0.5895  0.2405  0.4659
 4433TIP3    H234715   4.540   0.784  11.482  0.1055  1.6836 -0.2944
 4434TIP3   OH234716   1.146   3.547   2.854  0.0602 -0.1840 -0.4927
 4434TIP3    H134717   1.101   3.630   2.873  0.1077 -0.3089  0.2041
 4434TIP3    H234718   1.140   3.538   2.759  1.0601  1.1940 -0.7284
 4435TIP3   OH234719   5.631   5.793   2.067 -0.0911  0.0599 -0.3824
 4435TIP3    H134720   5.723   5.819   2.064 -0.1918  0.4782  0.1573
 4435TIP3    H234721   5.591   5.835   1.991 -0.0690  0.7721 -0.0007
 4436TIP3   OH234722   3.241   0.936   5.111  0.0815  0.2222 -0.5876
 4436TIP3    H134723   3.303   0.932   5.037  0.9987 -0.6790  0.1899
 4436TIP3    H234724   3.200   0.850   5.111 -1.3417  0.8709 -1.1956
 4437TIP3   OH234725   2.125   0.435  15.887 -0.0073  0.3123  0.3561
 4437TIP3    H134726   2.124   0.438  15.982  0.1179  2.2587  0.3272
 4437TIP3    H234727   2.055   0.495  15.860  0.4801  0.3920 -0.7899
 4438TIP3   OH234728   6.535   1.806  11.577 -0.1145  0.2058 -0.1794
 4438TIP3    H134729   6.501   1.738  11.634 -0.7042 -0.1023 -0.8879
 4438TIP3    H234730   6.627   1.814  11.602 -0.2989 -0.1097  0.6230
 4439TIP3   OH234731   5.311   5.714   3.193 -0.6993  0.2543  0.1026
 4439TIP3    H134732   5.385   5.758   3.233 -1.3424  0.2349  1.3416
 4439TIP3    H234733   5.331   5.715   3.099  0.0333  1.7907  0.2442
 4440TIP3   OH234734   1.281   2.865   1.752  0.2309  0.6985  0.4447
 4440TIP3    H134735   1.187   2.861   1.737  0.1768 -0.1559  0.8968
 4440TIP3    H234736   1.298   2.794   1.814  0.8011  2.4635  2.4284
 4441TIP3   OH234737   1.193   6.036   3.724  0.1318 -0.6258 -0.5997
 4441TIP3    H134738   1.170   6.106   3.663 -0.8721  1.3524  1.8890
 4441TIP3    H234739   1.115   6.025   3.778  1.5675 -0.9555  1.5203
 4442TIP3   OH234740   0.348   3.562  16.807  0.0431 -0.1058 -0.1822
 4442TIP3    H134741   0.324   3.579  16.716  0.2458 -0.4703 -0.3039
 4442TIP3    H234742   0.331   3.645  16.852 -0.1409  0.0482 -0.5336
 4443TIP3   OH234743   4.501   2.803   5.932 -0.1377 -0.0652  0.6409
 4443TIP3    H134744   4.428   2.754   5.972  1.4901 -2.2240  1.1440
 4443TIP3    H234745   4.570   2.800   5.998  1.5586 -1.0188 -1.0751
 4444TIP3   OH234746   6.617   1.723  16.200 -0.0333 -0.3015 -0.7190
 4444TIP3    H134747   6.585   1.803  16.157  1.5719  0.3899 -0.6899
 4444TIP3    H234748   6.696   1.700  16.151 -1.7030 -3.2943 -2.2725
 4445TIP3   OH234749   6.338   2.419   4.938  0.3524 -0.0754  0.0210
 4445TIP3    H134750   6.364   2.431   4.847  0.1242  2.1901  0.1736
 4445TIP3    H234751   6.247   2.449   4.941 -0.1786 -1.6611  0.7103
 4446TIP3   OH234752   0.434   4.025  16.674  0.0338 -0.3237  0.0012
 4446TIP3    H134753   0.461   3.955  16.615  0.1934  0.4906 -0.9231
 4446TIP3    H234754   0.407   4.096  16.616  2.7295  1.5279  0.8068
 4447TIP3   OH234755   2.255   3.816   0.820 -0.3253  0.2574 -0.2691
 4447TIP3    H134756   2.161   3.834   0.827 -0.1874  0.4062  2.2019
 4447TIP3    H234757   2.297   3.902   0.822 -0.0931  0.1590 -0.6961
 4448TIP3   OH234758   5.399   0.320  11.243  0.7639 -0.7229  0.3624
 4448TIP3    H134759   5.378   0.386  11.309 -0.6426 -0.9471  0.1732
 4448TIP3    H234760   5.478   0.277  11.275  1.1699  0.4205  0.9525
 4449TIP3   OH234761   6.487   6.432   0.459  0.3870 -0.4063 -0.4045
 4449TIP3    H134762   6.423   6.489   0.415  0.2541  0.5419  0.9407
 4449TIP3    H234763   6.568   6.483   0.459  0.9608 -1.2983 -1.4460
 4450TIP3   OH234764   5.942   4.360  12.673  0.4816  0.1395 -0.2652
 4450TIP3    H134765   5.896   4.324  12.597  0.9374 -1.0055 -0.0263
 4450TIP3    H234766   5.925   4.454  12.669 -1.6782 -0.1941 -0.3062
 4451TIP3   OH234767   3.943   1.828   3.361  0.2381  0.0207  0.3713
 4451TIP3    H134768   3.887   1.751   3.364  1.1550 -0.6956 -0.4179
 4451TIP3    H234769   3.959   1.850   3.453 -0.8246 -0.1128  0.6055
 4452TIP3   OH234770   6.385   3.081  12.727  0.2202  0.1532 -0.3129
 4452TIP3    H134771   6.369   3.153  12.666 -0.6755  0.1313 -0.1084
 4452TIP3    H234772   6.414   3.009  12.672 -0.8154  0.0599 -0.7554
 4453TIP3   OH234773   1.996   4.334   4.053 -0.4373  0.1144  0.5442
 4453TIP3    H134774   1.998   4.271   3.981 -1.1661  0.7216 -0.0244
 4453TIP3    H234775   2.080   4.323   4.097 -0.1919 -0.6262 -0.0913
 4454TIP3   OH234776   1.230   5.763   6.299 -0.3996 -0.2176 -0.1267
 4454TIP3    H134777   1.244   5.714   6.219 -3.0649 -0.5133 -0.4761
 4454TIP3    H234778   1.234   5.698   6.369 -1.2444 -0.5067 -0.3398
 4455TIP3   OH234779   4.821   5.512   1.072 -0.5383  0.2483 -0.4411
 4455TIP3    H134780   4.755   5.562   1.026  1.9161  3.7381 -0.5650
 4455TIP3    H234781   4.790   5.509   1.163 -1.4066  0.7345 -0.7126
 4456TIP3   OH234782   0.167   0.524  14.678  0.3656  0.0439  0.0382
 4456TIP3    H134783   0.246   0.557  14.721 -0.2108  1.0949  0.3270
 4456TIP3    H234784   0.095   0.556  14.732 -0.2245 -2.9178  1.1727
 4457TIP3   OH234785   4.225   6.702   6.088 -0.1161 -0.2898  0.2309
 4457TIP3    H134786   4.292   6.668   6.147  2.4160 -0.7606 -2.7122
 4457TIP3    H234787   4.257   6.787   6.060 -1.7214  0.3372  0.1962
 4458TIP3   OH234788   0.841   2.863   3.011 -0.1986 -0.1874 -0.0264
 4458TIP3    H134789   0.829   2.804   2.936 -0.1224  0.7926 -0.8303
 4458TIP3    H234790   0.759   2.912   3.017  0.3210  0.7604 -0.3978
 4459TIP3   OH234791   3.070   5.476   3.097 -0.2345  0.8773  0.7058
 4459TIP3    H134792   3.004   5.545   3.093 -0.2486  0.8152 -0.2781
 4459TIP3    H234793   3.119   5.495   3.177 -1.2576  1.0836  1.3047
 4460TIP3   OH234794   4.053   0.692   0.531 -0.2484 -0.4248 -0.4532
 4460TIP3    H134795   4.029   0.627   0.465 -1.5677  0.7982 -1.2503
 4460TIP3    H234796   3.974   0.746   0.541 -1.3818 -2.4391  4.5452
 4461TIP3   OH234797   0.867   5.801   5.277  0.1648  0.3029  0.4339
 4461TIP3    H134798   0.923   5.751   5.218 -0.7896  2.3575 -2.4154
 4461TIP3    H234799   0.790   5.745   5.291  1.4976 -1.2666  1.9436
 4462TIP3   OH234800   4.375   6.302   0.940  0.6792  0.1530 -0.2282
 4462TIP3    H134801   4.457   6.344   0.965  0.8749 -1.0584  1.3338
 4462TIP3    H234802   4.312   6.375   0.935  1.2583  0.7939  1.2464
 4463TIP3   OH234803   3.438   1.543  14.724 -0.0903  0.5533 -0.2227
 4463TIP3    H134804   3.408   1.459  14.757 -1.1676  0.5658 -1.1305
 4463TIP3    H234805   3.531   1.530  14.706  0.1304  0.0484  1.1366
 4464TIP3   OH234806   2.312   5.846  14.291  0.0013  0.0777  0.4042
 4464TIP3    H134807   2.315   5.877  14.381 -0.9097 -0.8604  0.7759
 4464TIP3    H234808   2.225   5.806  14.282  1.4115 -3.2732  0.2642
 4465TIP3   OH234809   5.463   0.082   2.145  0.5373 -0.3584  0.0522
 4465TIP3    H134810   5.458   0.091   2.050  1.7915  0.4425  0.0388
 4465TIP3    H234811   5.395   0.018   2.166 -0.4033  0.1483 -1.2692
 4466TIP3   OH234812   2.387   2.331  11.979  0.5994  0.8857  0.6772
 4466TIP3    H134813   2.462   2.309  11.924  0.5591 -0.4901  1.1300
 4466TIP3    H234814   2.402   2.421  12.006  2.4355  0.4357  1.2700
 4467TIP3   OH234815   4.725   5.941  14.872  0.0998  0.5543 -0.5230
 4467TIP3    H134816   4.769   5.862  14.841 -1.2596 -0.7106  0.6338
 4467TIP3    H234817   4.754   6.009  14.812  2.7693 -0.4033 -0.4447
 4468TIP3   OH234818   4.946   0.833  15.366  0.6594 -0.4602  0.7018
 4468TIP3    H134819   4.983   0.872  15.446  0.3632  0.6906  0.2795
 4468TIP3    H234820   4.967   0.895  15.297  2.9679 -2.4800 -0.6034
 4469TIP3   OH234821   0.147   5.361   6.042  0.3373 -0.1026  0.0399
 4469TIP3    H134822   0.093   5.289   6.075 -0.1697  0.2221 -0.0680
 4469TIP3    H234823   0.194   5.394   6.119  0.2727 -0.2938  0.1613
 4470TIP3   OH234824   6.400   3.548  11.725 -0.2573  0.2467  0.6115
 4470TIP3    H134825   6.353   3.629  11.742  2.2338  2.4086 -1.8566
 4470TIP3    H234826   6.331   3.481  11.723 -2.5210  2.3402  1.9888
 4471TIP3   OH234827   6.434   5.377  15.859  0.1762 -0.4784 -0.2806
 4471TIP3    H134828   6.423   5.282  15.856 -1.8787 -0.4692  2.5772
 4471TIP3    H234829   6.513   5.390  15.911  1.5536 -0.5226 -2.2349
 4472TIP3   OH234830   5.412   2.086   3.932  0.2332 -0.4483  0.3815
 4472TIP3    H134831   5.418   2.181   3.916  1.7059 -0.2194  2.0018
 4472TIP3    H234832   5.358   2.053   3.861 -3.2218  2.0707  1.5945
 4473TIP3   OH234833   0.174   2.094  13.188  0.2451  0.1206 -0.4982
 4473TIP3    H134834   0.111   2.053  13.247 -0.6342 -0.1743 -1.6063
 4473TIP3    H234835   0.132   2.090  13.102  1.7698 -0.0391 -1.2547
 4474TIP3   OH234836   0.463   1.465   4.791  0.0905  0.2286  0.0607
 4474TIP3    H134837   0.388   1.474   4.732 -0.5898 -0.2047  0.8412
 4474TIP3    H234838   0.429   1.413   4.865  0.2854  2.5544  1.9091
 4475TIP3   OH234839   0.582   5.187   3.617  0.2869  0.3521 -0.0091
 4475TIP3    H134840   0.667   5.191   3.574 -0.3885  3.1344 -1.4022
 4475TIP3    H234841   0.523   5.151   3.550  0.3056 -1.5815  0.9498
 4476TIP3   OH234842   4.793   2.040   1.827  0.5786 -0.0520  0.8152
 4476TIP3    H134843   4.813   2.070   1.915  0.5761  0.2626  0.7090
 4476TIP3    H234844   4.701   2.066   1.813  1.2394  2.0301 -0.1460
 4477TIP3   OH234845   5.207   1.852  17.006 -0.1795 -0.6825 -0.1362
 4477TIP3    H134846   5.222   1.835  16.913  1.1304 -1.5231  0.1952
 4477TIP3    H234847   5.283   1.814  17.049  0.1897  1.3641  1.1393
 4478TIP3   OH234848   5.475   5.704   2.286 -0.4902  0.0279 -0.1747
 4478TIP3    H134849   5.508   5.793   2.270  0.3754 -0.3940 -0.7346
 4478TIP3    H234850   5.503   5.653   2.210 -0.2240 -0.9345  0.5541
 4479TIP3   OH234851   5.521   1.974   3.380  0.3539  0.0338 -0.4954
 4479TIP3    H134852   5.436   2.008   3.408 -1.0444 -0.3804 -3.7665
 4479TIP3    H234853   5.512   1.879   3.386  1.0971  0.0104  0.3999
 4480TIP3   OH234854   2.519   1.747   1.271  0.6084 -0.0554 -0.1187
 4480TIP3    H134855   2.430   1.734   1.304  1.0226 -0.9882  0.6805
 4480TIP3    H234856   2.574   1.699   1.332  1.7976  1.5724  0.1432
 4481TIP3   OH234857   1.355   6.413   6.406  0.5839 -0.2779  0.2923
 4481TIP3    H134858   1.345   6.429   6.500  0.9780 -1.1544  0.4929
 4481TIP3    H234859   1.404   6.332   6.400  0.1916 -0.4634 -0.6821
 4482TIP3   OH234860   0.788   0.277  16.458  0.0775 -0.0297 -0.5024
 4482TIP3    H134861   0.801   0.293  16.551 -0.5860  2.4183 -0.7616
 4482TIP3    H234862   0.703   0.317  16.438 -0.1698 -1.1978 -2.0109
 4483TIP3   OH234863   1.447   0.148  14.191 -0.1831 -0.0189  0.0379
 4483TIP3    H134864   1.452   0.061  14.151 -1.4814  0.1363 -0.5137
 4483TIP3    H234865   1.504   0.143  14.268 -1.3764 -1.8191  0.8544
 4484TIP3   OH234866   1.610   1.637  14.434 -0.0542 -0.0867  0.0822
 4484TIP3    H134867   1.674   1.570  14.412  0.1125 -0.1104  0.6227
 4484TIP3    H234868   1.536   1.589  14.472  0.0866  0.0336  0.5174
 4485TIP3   OH234869   5.485   0.518   0.497  0.2089 -0.6883  0.0165
 4485TIP3    H134870   5.474   0.580   0.425  0.7851 -0.7381 -0.1185
 4485TIP3    H234871   5.506   0.572   0.573  1.0154 -0.7332 -0.1679
 4486TIP3   OH234872   2.358   3.770  13.134 -0.9761  0.1590 -0.0224
 4486TIP3    H134873   2.311   3.817  13.203 -0.7053  1.2068 -0.5374
 4486TIP3    H234874   2.315   3.796  13.053  1.7695  2.9681 -0.7879
 4487TIP3   OH234875   2.004   0.293   4.488  0.4833  0.6539 -0.2763
 4487TIP3    H134876   1.915   0.304   4.523  0.7336  0.9303  0.2900
 4487TIP3    H234877   2.060   0.338   4.551  1.0891 -0.0420 -0.3010
 4488TIP3   OH234878   6.002   5.247   1.250 -0.3448  0.2631  0.3561
 4488TIP3    H134879   5.911   5.260   1.225 -1.2452 -2.7493  1.5604
 4488TIP3    H234880   6.008   5.154   1.272  3.2605  0.1289 -0.5044
 4489TIP3   OH234881   2.389   4.909   4.444 -0.2973 -0.4706  0.3675
 4489TIP3    H134882   2.414   4.821   4.416 -0.4687  0.1350 -1.9584
 4489TIP3    H234883   2.466   4.944   4.487 -0.2488 -1.7582  1.3650
 4490TIP3   OH234884   4.751   2.116  15.817  0.5197 -0.0485  0.2053
 4490TIP3    H134885   4.821   2.152  15.871  1.8568 -3.7875  1.2502
 4490TIP3    H234886   4.687   2.082  15.879  1.0190 -2.4679 -0.5018
 4491TIP3   OH234887   3.497   4.394   0.039  0.1157 -0.7569  0.3988
 4491TIP3    H134888   3.404   4.400   0.021 -0.0730  0.3715  1.5545
 4491TIP3    H234889   3.528   4.485   0.038  1.4343 -1.1751 -0.9906
 4492TIP3   OH234890   5.828   0.767  16.755  0.6872  0.1795  0.0263
 4492TIP3    H134891   5.767   0.737  16.687  1.3569  0.9194 -0.9260
 4492TIP3    H234892   5.784   0.745  16.837 -0.1675 -0.6958 -0.6315
 4493TIP3   OH234893   4.941   5.244   1.626 -0.0791 -0.1809 -0.5446
 4493TIP3    H134894   5.013   5.307   1.624 -0.1954 -0.0546 -1.0156
 4493TIP3    H234895   4.962   5.180   1.559 -0.6631  0.1604 -1.0703
 4494TIP3   OH234896   4.163   5.001  14.948 -0.4680 -0.0519  0.7421
 4494TIP3    H134897   4.156   4.993  15.043 -0.0964  0.2112  0.7931
 4494TIP3    H234898   4.256   4.991  14.929 -0.8181 -3.0190  0.1163
 4495TIP3   OH234899   3.822   4.083  16.359  0.1176  0.3275 -0.4370
 4495TIP3    H134900   3.827   4.007  16.417 -0.4753 -0.8007 -1.7961
 4495TIP3    H234901   3.762   4.143  16.403 -1.0732 -0.9143 -0.3063
 4496TIP3   OH234902   2.407   4.997  16.253  0.3654 -0.1379  0.0274
 4496TIP3    H134903   2.472   5.003  16.322  0.1732 -0.2788  0.2215
 4496TIP3    H234904   2.456   5.014  16.172  0.5804  0.0711  0.2013
 4497TIP3   OH234905   4.835   4.375   2.886  0.4163 -0.0449 -0.0792
 4497TIP3    H134906   4.860   4.309   2.821 -0.2133 -1.2197  0.8250
 4497TIP3    H234907   4.813   4.325   2.964 -0.8126  1.1832  0.4217
 4498TIP3   OH234908   5.924   5.619  14.798  0.9256 -0.0638 -0.3935
 4498TIP3    H134909   5.856   5.638  14.863  0.6774 -0.6480 -0.4834
 4498TIP3    H234910   6.004   5.654  14.837  0.8502 -0.7470  0.4032
 4499TIP3   OH234911   2.176   0.351   1.263  0.1415  0.5031 -0.4380
 4499TIP3    H134912   2.117   0.384   1.331 -0.6710  1.1641 -1.4196
 4499TIP3    H234913   2.188   0.259   1.284 -0.5085  0.5784  0.3178
 4500TIP3   OH234914   5.033   5.023  11.312 -0.0058 -0.1038 -0.4291
 4500TIP3    H134915   4.982   5.002  11.233 -1.5979  1.8084  0.0154
 4500TIP3    H234916   5.123   4.998  11.289 -0.7002 -1.2765 -2.1662
 4501TIP3   OH234917   5.075   1.892   5.260  0.0930  0.2233 -0.5549
 4501TIP3    H134918   5.006   1.925   5.317  1.0836 -0.7638  1.3310
 4501TIP3    H234919   5.063   1.797   5.262 -0.4132  0.1908 -2.8123
 4502TIP3   OH234920   2.146   1.339   0.891 -0.2677 -0.3830  0.1892
 4502TIP3    H134921   2.229   1.292   0.894  0.6485  1.1846  2.4242
 4502TIP3    H234922   2.081   1.275   0.918  0.7285 -0.8192  1.7334
 4503TIP3   OH234923   1.468   5.924  16.652 -0.3982  0.1967  0.3346
 4503TIP3    H134924   1.531   5.969  16.709  1.0711 -1.1959 -0.1065
 4503TIP3    H234925   1.514   5.845  16.624 -2.4696 -1.0189  0.1789
 4504TIP3   OH234926   3.556   2.830   5.699  0.0221 -0.4232 -0.0108
 4504TIP3    H134927   3.592   2.901   5.752 -1.1443 -0.7779  1.3296
 4504TIP3    H234928   3.535   2.761   5.763  0.1036 -1.5330 -1.1455
 4505TIP3   OH234929   4.995   3.693  14.020 -0.4197  0.2212  0.1317
 4505TIP3    H134930   5.000   3.777  13.975  0.1808 -0.7040 -1.6504
 4505TIP3    H234931   5.078   3.649  13.998 -1.3196 -1.3965 -0.2044
 4506TIP3   OH234932   4.222   1.237   4.167  0.5949  0.4582  0.1457
 4506TIP3    H134933   4.272   1.175   4.220 -0.2813 -0.6498 -0.2757
 4506TIP3    H234934   4.279   1.258   4.093  0.7830 -0.0927  0.1330
 4507TIP3   OH234935   3.820   6.334  16.202 -0.0362 -0.3354 -0.0804
 4507TIP3    H134936   3.786   6.417  16.237  0.1956 -0.0907 -0.4276
 4507TIP3    H234937   3.746   6.294  16.157 -0.0438 -0.1210 -0.2611
 4508TIP3   OH234938   5.011   0.447  16.309  0.2918 -0.5633  0.1472
 4508TIP3    H134939   4.943   0.496  16.356 -0.8224 -0.6568 -1.2902
 4508TIP3    H234940   4.967   0.366  16.281  1.3254 -1.1430  0.1363
 4509TIP3   OH234941   4.669   3.433  14.497 -0.2266  0.3590  0.0450
 4509TIP3    H134942   4.662   3.479  14.581 -0.0215 -0.6724  0.6515
 4509TIP3    H234943   4.583   3.445  14.456 -0.1395  1.3569  0.1344
 4510TIP3   OH234944   4.820   2.759   3.005 -0.7040 -0.7804 -0.3355
 4510TIP3    H134945   4.816   2.668   3.036 -0.4456 -1.4931 -2.2623
 4510TIP3    H234946   4.755   2.763   2.935 -1.4523  0.8436  0.3914
 4511TIP3   OH234947   1.592   0.515  13.260 -0.0593 -0.2065  0.0420
 4511TIP3    H134948   1.653   0.479  13.324 -1.6201 -2.1970  0.5092
 4511TIP3    H234949   1.542   0.581  13.308  2.7459  2.8064 -0.7918
 4512TIP3   OH234950   2.279   5.804   0.637  0.1145 -0.4956  0.8558
 4512TIP3    H134951   2.331   5.748   0.694  2.4182  0.7725  0.1261
 4512TIP3    H234952   2.221   5.744   0.590 -0.6388 -1.7367  3.2038
 4513TIP3   OH234953   2.711   0.704  11.490  0.4372  0.2790 -0.0928
 4513TIP3    H134954   2.788   0.694  11.547  0.7810 -0.6229 -0.6876
 4513TIP3    H234955   2.718   0.793  11.455  1.4414  0.0795 -0.4442
 4514TIP3   OH234956   5.686   5.034  16.585 -0.0296 -0.2748  0.0127
 4514TIP3    H134957   5.749   5.102  16.561  0.1285  0.6018  2.6496
 4514TIP3    H234958   5.693   5.026  16.680 -0.7059 -3.3702 -0.0871
 4515TIP3   OH234959   3.861   0.430   2.717 -0.4615 -0.1409  0.6093
 4515TIP3    H134960   3.950   0.396   2.716  0.0515  1.0548  1.8469
 4515TIP3    H234961   3.846   0.456   2.808 -1.5991  0.8449  0.1790
 4516TIP3   OH234962   4.035   5.250   3.582  0.0168 -0.0237  0.0605
 4516TIP3    H134963   4.068   5.177   3.529  2.3274 -0.3587  1.7889
 4516TIP3    H234964   3.961   5.212   3.631  2.4599 -2.0717  2.5480
 4517TIP3   OH234965   5.113   1.295   1.846  0.0089 -0.1361 -0.1525
 4517TIP3    H134966   5.084   1.385   1.833 -0.6799 -0.4075 -0.5105
 4517TIP3    H234967   5.093   1.250   1.764  0.4182 -0.5993 -0.0068
 4518TIP3   OH234968   2.909   1.734   0.729  0.2246  0.3146 -0.1674
 4518TIP3    H134969   2.886   1.645   0.704 -1.7895  0.9509 -0.7657
 4518TIP3    H234970   2.830   1.785   0.713  0.8406  1.9586  1.5679
 4519TIP3   OH234971   3.840   0.847   2.831  0.0617 -0.3306  0.2535
 4519TIP3    H134972   3.906   0.832   2.898 -0.0337 -3.5524 -0.2047
 4519TIP3    H234973   3.772   0.782   2.849 -1.1883  0.4052 -1.4850
 4520TIP3   OH234974   0.077   4.646   1.475 -0.1978 -0.2323  0.3978
 4520TIP3    H134975   0.019   4.657   1.550 -2.9351  0.3124 -1.6213
 4520TIP3    H234976   0.102   4.735   1.451  2.6694 -0.4965  1.9607
 4521TIP3   OH234977   3.206   5.387  17.188  0.2218  0.0289 -1.2216
 4521TIP3    H134978   3.299   5.409  17.193  0.0639  0.5485 -0.2728
 4521TIP3    H234979   3.199   5.302  17.232  0.2109  0.1412 -1.0018
 4522TIP3   OH234980   4.332   5.267  12.320 -0.4215  0.3368 -0.3504
 4522TIP3    H134981   4.412   5.305  12.285 -2.0022  1.9832 -2.4827
 4522TIP3    H234982   4.285   5.342  12.358 -1.3854 -0.3928 -0.0640
 4523TIP3   OH234983   2.624   1.205  11.775 -0.0767  0.1083 -0.4792
 4523TIP3    H134984   2.691   1.254  11.727  1.0630  1.5095  2.3367
 4523TIP3    H234985   2.566   1.272  11.811  0.3579 -0.6643  1.8090
 4524TIP3   OH234986   4.328   6.013  14.588 -0.4438  0.1572  0.3114
 4524TIP3    H134987   4.352   5.921  14.589 -1.7892 -0.2575 -1.2797
 4524TIP3    H234988   4.400   6.057  14.543 -0.5777 -0.3857 -0.4506
 4525TIP3   OH234989   5.732   2.461   6.621  0.5574 -0.3910 -0.8396
 4525TIP3    H134990   5.691   2.491   6.702  1.0044 -0.5478 -0.5510
 4525TIP3    H234991   5.757   2.541   6.575  1.0783 -0.3120 -0.4213
 4526TIP3   OH234992   4.165   1.314  15.338  0.7654  0.2726 -0.2164
 4526TIP3    H134993   4.099   1.289  15.273  0.0413  0.3935  0.4530
 4526TIP3    H234994   4.249   1.297  15.295  0.3030  0.4894 -1.2276
 4527TIP3   OH234995   1.482   3.981   3.252  0.1362  0.1427 -0.1342
 4527TIP3    H134996   1.417   4.024   3.197  0.4395  0.2599 -0.3982
 4527TIP3    H234997   1.449   3.891   3.262 -0.3296  0.3435  0.1580
 4528TIP3   OH234998   4.368   0.065   5.705  0.1448 -0.2495 -0.1108
 4528TIP3    H134999   4.371   0.006   5.781 -1.0105 -0.6207 -0.3263
 4528TIP3    H235000   4.321   0.015   5.638  3.5802 -1.0798 -2.1520
 4529TIP3   OH235001   4.907   4.833  13.876 -0.1023 -0.0609  0.4820
 4529TIP3    H135002   4.838   4.898  13.889 -0.1531 -0.2967  1.4720
 4529TIP3    H235003   4.888   4.764  13.940  1.7546  0.4657  1.7070
 4530TIP3   OH235004   2.055   6.781   0.878 -0.3010 -0.6915 -0.1852
 4530TIP3    H135005   2.059   6.831   0.959 -1.3094 -0.4149 -0.2907
 4530TIP3    H235006   2.103   6.834   0.815 -2.3817  0.8048 -0.6064
 4531TIP3   OH235007   5.393   5.666  11.579 -0.1557 -0.1259 -0.1831
 4531TIP3    H135008   5.416   5.720  11.503 -3.2292  0.6624 -0.6598
 4531TIP3    H235009   5.407   5.576  11.550 -0.7086  0.1880 -1.4724
 4532TIP3   OH235010   5.472   1.274   2.961  0.0677 -0.2152 -0.0333
 4532TIP3    H135011   5.525   1.317   2.894 -1.5252  0.3667 -0.9954
 4532TIP3    H235012   5.390   1.323   2.962 -0.1256 -0.4770  2.0772
 4533TIP3   OH235013   4.471   5.775  12.290 -0.2997  0.1866 -0.5406
 4533TIP3    H135014   4.498   5.823  12.212 -0.0362  1.0074  0.0409
 4533TIP3    H235015   4.491   5.684  12.271  2.6517  0.6973 -0.2538
 4534TIP3   OH235016   6.396   0.831  15.758 -0.2718 -0.2608  0.0695
 4534TIP3    H135017   6.332   0.793  15.698 -0.7825 -1.1152  1.1194
 4534TIP3    H235018   6.481   0.802  15.725 -0.2075  2.1941 -2.2843
 4535TIP3   OH235019   2.497   5.767  12.744 -0.5234 -0.1557  0.1933
 4535TIP3    H135020   2.472   5.768  12.836  1.5579  0.8289  0.7956
 4535TIP3    H235021   2.481   5.677  12.716  1.5944 -1.3430  2.3834
 4536TIP3   OH235022   0.429   1.907  15.917  0.1476  0.1645 -0.5742
 4536TIP3    H135023   0.463   1.875  16.001  0.9603 -0.9318 -1.2832
 4536TIP3    H235024   0.500   1.962  15.882 -0.5153  1.2877 -0.1915
 4537TIP3   OH235025   3.603   4.461   3.137 -0.5487  0.5609 -0.5587
 4537TIP3    H135026   3.624   4.477   3.228  0.3771 -2.1740 -0.1848
 4537TIP3    H235027   3.526   4.404   3.140 -0.1737 -0.0203 -1.4254
 4538TIP3   OH235028   2.685   2.875  14.767 -0.0694  0.1484  0.0360
 4538TIP3    H135029   2.731   2.808  14.818 -0.9916  0.5968  1.5236
 4538TIP3    H235030   2.637   2.925  14.832 -2.7780 -0.3554 -1.4303
 4539TIP3   OH235031   5.269   3.581  11.338 -0.0053  0.1782  0.3235
 4539TIP3    H135032   5.271   3.616  11.427  0.0611 -1.5023  1.0269
 4539TIP3    H235033   5.178   3.592  11.311 -0.2877 -0.2583  1.0387
 4540TIP3   OH235034   0.870   2.118   5.475  0.1978  0.1464 -0.6064
 4540TIP3    H135035   0.804   2.051   5.495 -0.9215  0.7608 -2.0306
 4540TIP3    H235036   0.819   2.192   5.443  1.5660  0.8213 -1.2924
 4541TIP3   OH235037   2.254   6.545   6.523  0.5488  0.0558  0.2153
 4541TIP3    H135038   2.182   6.486   6.500 -1.0301  2.2817 -0.8422
 4541TIP3    H235039   2.222   6.632   6.501  2.6847  1.3864  1.9717
 4542TIP3   OH235040   3.822   0.378  16.325 -0.4638 -0.0328  0.4449
 4542TIP3    H135041   3.788   0.463  16.350 -1.2394  0.5090 -2.1175
 4542TIP3    H235042   3.837   0.385  16.230  1.0159 -2.2285  0.4304
 4543TIP3   OH235043   1.976   6.277   1.596  0.4426 -0.5381  0.0044
 4543TIP3    H135044   1.907   6.211   1.591  0.0506 -0.2686  1.3093
 4543TIP3    H235045   2.050   6.239   1.550 -0.4736 -0.9619 -1.1834
 4544TIP3   OH235046   2.992   2.813   0.195 -0.1840  0.0569 -0.2937
 4544TIP3    H135047   2.988   2.720   0.218 -3.5951  0.4297  1.2389
 4544TIP3    H235048   2.988   2.859   0.279  0.4739  1.5909 -1.0720
 4545TIP3   OH235049   0.820   1.614  13.146 -0.0389 -0.3281  0.2681
 4545TIP3    H135050   0.882   1.545  13.167  0.8230  0.1982 -0.5320
 4545TIP3    H235051   0.856   1.658  13.069  0.2155  1.9468  1.5900
 4546TIP3   OH235052   5.196   6.294  14.131  0.2295 -0.0340  0.2752
 4546TIP3    H135053   5.288   6.308  14.110 -0.0950  1.2097 -0.3766
 4546TIP3    H235054   5.192   6.203  14.161  1.3588 -0.6825 -1.4220
 4547TIP3   OH235055   0.471   2.601   5.579  0.0637 -0.0308  0.4701
 4547TIP3    H135056   0.526   2.639   5.647 -2.4621  0.4989  2.3395
 4547TIP3    H235057   0.477   2.663   5.506  0.7741  0.7532  1.1684
 4548TIP3   OH235058   3.399   4.149  14.863  0.3781 -0.0847 -0.1896
 4548TIP3    H135059   3.464   4.193  14.808  2.2565 -0.4403  1.6280
 4548TIP3    H235060   3.353   4.221  14.907  1.1841  0.1520  0.2899
 4549TIP3   OH235061   6.479   4.359   1.199 -0.1924  0.1651 -0.0303
 4549TIP3    H135062   6.418   4.351   1.272  0.7899  0.9818  0.9137
 4549TIP3    H235063   6.556   4.401   1.237 -0.7137  3.3045 -2.1002
 4550TIP3   OH235064   2.030   1.917   2.788 -0.9460 -0.2830 -0.4508
 4550TIP3    H135065   1.946   1.872   2.779 -1.6523  0.9806 -0.2637
 4550TIP3    H235066   2.017   1.979   2.860  0.2340 -0.2656 -0.2345
 4551TIP3   OH235067   0.373   5.611   1.695  0.3683 -0.4265  0.3279
 4551TIP3    H135068   0.387   5.630   1.602  1.0148 -0.7821  0.3443
 4551TIP3    H235069   0.461   5.602   1.731  0.2240 -4.0518  0.1730
 4552TIP3   OH235070   4.693   1.598   6.629 -0.3026  0.2620 -0.1249
 4552TIP3    H135071   4.657   1.630   6.546  0.8286 -0.0096 -0.7390
 4552TIP3    H235072   4.690   1.673   6.687  0.9494  1.1049 -1.1035
 4553TIP3   OH235073   3.027   2.418   4.057  0.1947 -0.2538  0.2354
 4553TIP3    H135074   3.010   2.389   3.968  1.2318  0.0097 -0.0547
 4553TIP3    H235075   2.955   2.380   4.108  0.5576 -1.8995 -0.4070
 4554TIP3   OH235076   5.438   0.648  11.152  0.7820 -0.2986 -0.3995
 4554TIP3    H135077   5.412   0.666  11.242 -0.4250 -0.6275 -0.6583
 4554TIP3    H235078   5.531   0.628  11.157  0.4418 -1.7350  0.9778
 4555TIP3   OH235079   5.914   4.673  15.071 -0.2124  0.2371  0.5412
 4555TIP3    H135080   5.857   4.639  15.139 -0.4058  1.1976  0.8737
 4555TIP3    H235081   5.927   4.765  15.094  1.3185  0.0885  0.3673
 4556TIP3   OH235082   5.897   0.608  13.048  0.8448  0.0513 -0.7367
 4556TIP3    H135083   5.978   0.580  13.090  1.1942  1.2284 -0.6045
 4556TIP3    H235084   5.885   0.699  13.075  1.2992  1.0299 -3.4897
 4557TIP3   OH235085   1.829   4.965   1.085  0.0082 -0.2482 -0.1326
 4557TIP3    H135086   1.889   5.013   1.028  2.5314  0.4520  2.8271
 4557TIP3    H235087   1.749   5.017   1.085  0.8882  1.1690 -0.9272
 4558TIP3   OH235088   3.779   4.210   5.148 -0.5277  0.0761  0.2693
 4558TIP3    H135089   3.685   4.225   5.138 -0.4105  0.8511  0.2455
 4558TIP3    H235090   3.811   4.289   5.191  0.2481  0.1807 -0.4778
 4559TIP3   OH235091   2.827   1.850  15.158  0.3003  0.0133  0.1235
 4559TIP3    H135092   2.820   1.772  15.213  0.5425 -0.3533 -0.3595
 4559TIP3    H235093   2.771   1.832  15.083 -1.2638  1.1578  0.9745
 4560TIP3   OH235094   6.110   0.192  12.119  0.7375  0.4396  0.3127
 4560TIP3    H135095   6.150   0.107  12.102  0.1545  0.1849  0.1896
 4560TIP3    H235096   6.018   0.181  12.095  0.6476  1.0960  0.3217
 4561TIP3   OH235097   6.632   6.733  15.463  0.4853 -0.2059 -0.1190
 4561TIP3    H135098   6.611   6.694  15.378 -0.1855  1.1676 -0.6151
 4561TIP3    H235099   6.616   6.826  15.451 -1.7266 -0.1868  2.1338
 4562TIP3   OH235100   5.607   0.715  13.186 -0.6121 -0.5991  0.1969
 4562TIP3    H135101   5.593   0.807  13.163 -1.9371 -0.8453 -0.0836
 4562TIP3    H235102   5.695   0.713  13.225  0.1419  0.4910 -1.3364
 4563TIP3   OH235103   4.908   0.184   0.752  0.0700 -0.3249 -0.0671
 4563TIP3    H135104   4.866   0.268   0.733 -0.1962 -0.7019 -1.2552
 4563TIP3    H235105   4.993   0.207   0.789  0.2849  0.4910 -1.0088
 4564TIP3   OH235106   2.433   2.796  13.040  0.1625  1.1067 -0.4495
 4564TIP3    H135107   2.342   2.825  13.053 -0.0295  1.3071 -2.0120
 4564TIP3    H235108   2.469   2.860  12.977  1.3402  0.9348  0.0311
 4565TIP3   OH235109   3.292   6.217  16.513 -0.2401 -0.2486 -0.1604
 4565TIP3    H135110   3.274   6.177  16.428 -1.4605 -2.0538  0.8608
 4565TIP3    H235111   3.208   6.257  16.539 -0.7502 -2.1115  1.3273
 4566TIP3   OH235112   2.373   0.302  15.349  0.3304  0.0853  0.6953
 4566TIP3    H135113   2.418   0.228  15.309  1.0413  2.2012 -2.8297
 4566TIP3    H235114   2.290   0.308  15.302 -0.1226  1.0296  1.5525
 4567TIP3   OH235115   4.652   5.138   4.629 -0.0115  0.2698 -0.1392
 4567TIP3    H135116   4.594   5.093   4.691  0.5456  1.8498  1.6546
 4567TIP3    H235117   4.618   5.116   4.543 -1.9036 -0.6270  0.7854
 4568TIP3   OH235118   5.293   4.017  11.536  0.0625 -0.6313  0.7206
 4568TIP3    H135119   5.255   4.102  11.556 -0.9564 -0.7867 -0.4553
 4568TIP3    H235120   5.382   4.037  11.506 -0.2428  0.0381  0.2527
 4569TIP3   OH235121   0.357   5.240  15.530  0.9610  0.7584  0.6356
 4569TIP3    H135122   0.320   5.323  15.499 -0.9579 -0.0520  0.6041
 4569TIP3    H235123   0.370   5.254  15.624 -1.0452  0.5558  0.9816
 4570TIP3   OH235124   5.648   4.276   0.705  1.0154 -0.2046 -0.0050
 4570TIP3    H135125   5.723   4.336   0.710  1.7754 -1.1695  0.4160
 4570TIP3    H235126   5.580   4.328   0.661  2.7113 -0.0853 -2.7736
 4571TIP3   OH235127   5.502   0.030  15.668 -0.2320  0.0443  0.1752
 4571TIP3    H135128   5.464  -0.058  15.670  0.3863 -0.2129  1.0269
 4571TIP3    H235129   5.575   0.022  15.606 -2.7704  1.0936 -3.2716
 4572TIP3   OH235130   1.295   0.798  16.873  0.0609  0.2557  0.3323
 4572TIP3    H135131   1.240   0.757  16.807 -1.3701 -0.0727  1.6832
 4572TIP3    H235132   1.376   0.747  16.872 -1.1365 -1.7616  0.9806
 4573TIP3   OH235133   0.725   6.558  16.818 -0.5913 -0.1269 -0.3627
 4573TIP3    H135134   0.768   6.600  16.743 -0.7354  0.7156  0.0145
 4573TIP3    H235135   0.767   6.472  16.824 -0.2001  0.0021 -1.0821
 4574TIP3   OH235136   0.415   1.614   0.174  0.2847  0.7127  0.1230
 4574TIP3    H135137   0.388   1.530   0.211  1.5493 -0.1513 -0.8522
 4574TIP3    H235138   0.393   1.608   0.082  1.3255  1.0260 -0.1592
 4575TIP3   OH235139   5.335   2.146  13.298 -0.0386 -0.2898 -0.5623
 4575TIP3    H135140   5.402   2.211  13.277 -0.8582  0.9437  0.5301
 4575TIP3    H235141   5.293   2.127  13.213  2.1300 -1.6785 -1.4145
 4576TIP3   OH235142   2.839   6.205   5.108  0.3187 -0.5659  0.9601
 4576TIP3    H135143   2.857   6.294   5.138 -0.0145  0.4656 -1.6600
 4576TIP3    H235144   2.750   6.186   5.138  0.4320 -0.0859  1.6246
 4577TIP3   OH235145   2.254   5.895  15.894 -0.6180 -0.3994  0.7359
 4577TIP3    H135146   2.311   5.964  15.928  0.0251 -1.4230  1.8408
 4577TIP3    H235147   2.189   5.941  15.841  0.3548  0.9464  0.6546
 4578TIP3   OH235148   0.233   5.518   6.249  0.0158 -0.6057 -0.1636
 4578TIP3    H135149   0.247   5.613   6.244  1.4466 -0.6087  2.3459
 4578TIP3    H235150   0.189   5.503   6.332  1.2541 -2.2397  0.2651
 4579TIP3   OH235151   1.987   3.374  15.033  0.6940  0.0830  0.3600
 4579TIP3    H135152   2.061   3.314  15.019  1.1211  1.0077 -1.6209
 4579TIP3    H235153   2.026   3.452  15.072  0.6417  0.2882  0.0019
 4580TIP3   OH235154   0.326   2.758   0.203 -0.1579 -0.0578 -1.0359
 4580TIP3    H135155   0.346   2.667   0.180  2.7410  0.0265  0.5780
 4580TIP3    H235156   0.292   2.796   0.122 -0.9127 -2.3975 -1.9124
 4581TIP3   OH235157   6.216   4.897   2.693 -0.3216 -0.1858 -0.0952
 4581TIP3    H135158   6.148   4.831   2.683  1.2461 -1.5244 -3.3296
 4581TIP3    H235159   6.240   4.894   2.785 -0.4653 -4.0335 -0.0463
 4582TIP3   OH235160   3.124   5.321  10.955  0.2751  0.1958  0.7394
 4582TIP3    H135161   3.155   5.288  11.039  0.1276  0.1219  0.7659
 4582TIP3    H235162   3.190   5.291  10.892 -0.6944 -1.6326  0.5108
 4583TIP3   OH235163   3.141   6.722  17.143 -0.5334 -0.5042  0.1888
 4583TIP3    H135164   3.178   6.679  17.219  0.2802 -2.0556 -1.0183
 4583TIP3    H235165   3.061   6.673  17.124  0.1737 -1.2857 -0.9414
 4584TIP3   OH235166   1.457   1.041   1.572  0.0975  0.1148  0.3493
 4584TIP3    H135167   1.495   1.047   1.484  0.9076  1.3009  0.7519
 4584TIP3    H235168   1.363   1.051   1.559  0.3183  1.4721 -0.2870
 4585TIP3   OH235169   0.066   3.460   3.502 -0.1089  0.1987 -0.0585
 4585TIP3    H135170   0.104   3.373   3.494 -0.5026  0.1081 -1.1348
 4585TIP3    H235171  -0.004   3.450   3.567 -0.0926 -0.2653 -0.1145
 4586TIP3   OH235172   0.888   4.475   0.360 -0.1039 -0.2222  0.1969
 4586TIP3    H135173   0.817   4.535   0.337 -0.2115  0.3320  1.9074
 4586TIP3    H235174   0.918   4.504   0.446 -0.8103 -3.1763  1.5723
 4587TIP3   OH235175   1.879   0.762  13.741  0.0844 -0.5809 -0.2396
 4587TIP3    H135176   1.787   0.742  13.723  0.3339 -0.3948 -1.8611
 4587TIP3    H235177   1.919   0.678  13.760 -0.4581 -0.6392  0.6634
 4588TIP3   OH235178   0.328   5.016  13.177 -0.0618 -0.5071  0.3118
 4588TIP3    H135179   0.352   5.104  13.206 -1.4126 -0.4480  1.3396
 4588TIP3    H235180   0.307   5.027  13.084 -2.3503  0.7596  0.9156
 4589TIP3   OH235181   0.479   4.201  14.340  0.1218  0.2192  0.1567
 4589TIP3    H135182   0.573   4.192  14.355 -0.2445 -0.8622  2.3346
 4589TIP3    H235183   0.440   4.191  14.427 -2.0708 -0.4096 -0.8168
 4590TIP3   OH235184   3.275   2.478  15.902 -0.2561  0.0640 -0.3842
 4590TIP3    H135185   3.222   2.500  15.826 -1.5320  1.6684  0.9159
 4590TIP3    H235186   3.249   2.388  15.923 -0.3243 -0.1849 -1.4629
 4591TIP3   OH235187   0.549   2.209  11.919 -0.0901  0.7035  0.4694
 4591TIP3    H135188   0.546   2.285  11.977  1.8500  0.0321  1.5682
 4591TIP3    H235189   0.619   2.229  11.857 -1.8851  1.2411 -1.4701
 4592TIP3   OH235190   6.095   0.506  14.168  0.2135 -0.7901 -0.0447
 4592TIP3    H135191   6.020   0.462  14.130  0.4121  0.0062 -1.4276
 4592TIP3    H235192   6.111   0.581  14.110  0.7400  0.2938  1.4241
 4593TIP3   OH235193   5.945   3.699  13.900  0.2246  0.3065  0.0209
 4593TIP3    H135194   5.983   3.616  13.928  0.5404  0.1651 -0.8215
 4593TIP3    H235195   5.948   3.696  13.804 -1.0593  0.6781 -0.0553
 4594TIP3   OH235196   1.048   5.889   0.655  0.3094 -0.6859  0.1588
 4594TIP3    H135197   1.143   5.894   0.643  0.2880  1.2059  0.4935
 4594TIP3    H235198   1.036   5.877   0.749  0.2208  1.6212  0.4931
 4595TIP3   OH235199   2.024   2.832  14.422  0.2451 -0.5034 -0.3668
 4595TIP3    H135200   2.062   2.903  14.475 -1.7326 -0.8296  1.6337
 4595TIP3    H235201   1.936   2.863  14.400 -1.2301 -2.7871  1.7621
 4596TIP3   OH235202   2.286   2.302  11.008 -0.4404  0.3412 -0.1199
 4596TIP3    H135203   2.313   2.394  10.998  1.0377  0.0823  1.0347
 4596TIP3    H235204   2.295   2.285  11.102 -0.2071 -1.1161 -0.3864
 4597TIP3   OH235205   3.595   3.097  13.382 -0.1455  0.2884 -0.4647
 4597TIP3    H135206   3.550   3.014  13.363  0.4530 -0.3108  0.6012
 4597TIP3    H235207   3.536   3.164  13.348 -1.8547 -0.4686  0.8252
 4598TIP3   OH235208   4.638   4.364   0.359 -0.0334 -0.4479  0.4415
 4598TIP3    H135209   4.638   4.356   0.454 -0.9849  0.5048  0.5329
 4598TIP3    H235210   4.584   4.290   0.329 -0.1359 -0.4632  0.6658
 4599TIP3   OH235211   2.820   6.444   5.223 -0.0294  0.2616 -0.1721
 4599TIP3    H135212   2.901   6.467   5.268 -0.8441  0.6338  1.1344
 4599TIP3    H235213   2.771   6.391   5.286  0.3675 -2.3997 -1.9273
 4600TIP3   OH235214   2.066   0.103   5.601  0.2118 -0.4324  0.1458
 4600TIP3    H135215   2.130   0.125   5.534 -0.6771  0.7609 -0.3438
 4600TIP3    H235216   2.026   0.021   5.571  0.9454 -0.7601  0.0541
 4601TIP3   OH235217   3.979   2.373  15.474  0.2465 -0.1624  0.4892
 4601TIP3    H135218   3.947   2.375  15.564 -2.0689  1.7558 -0.2851
 4601TIP3    H235219   3.995   2.280  15.456  0.3931 -0.6215  2.7061
 4602TIP3   OH235220   1.774   0.897  12.618  0.2880  0.0228 -0.0840
 4602TIP3    H135221   1.701   0.881  12.678  0.6632 -0.7368  0.1880
 4602TIP3    H235222   1.845   0.841  12.651  1.5464  1.9319  0.6288
 4603TIP3   OH235223   2.580   6.398   2.245  0.4240 -0.8854  0.1522
 4603TIP3    H135224   2.588   6.377   2.338  1.5390 -1.3322 -0.0302
 4603TIP3    H235225   2.669   6.423   2.218 -0.3264  1.7164 -0.2319
 4604TIP3   OH235226   0.488   4.171  16.435 -0.0608 -0.0386  0.9544
 4604TIP3    H135227   0.392   4.176  16.436 -0.2965 -2.9769  1.6136
 4604TIP3    H235228   0.509   4.121  16.356  0.7194 -1.4612  2.0159
 4605TIP3   OH235229   4.128   2.400  16.888  0.4201  0.0238 -0.5152
 4605TIP3    H135230   4.171   2.445  16.961  0.1743 -0.7677  0.1396
 4605TIP3    H235231   4.055   2.353  16.929  1.1956 -1.6967 -1.0023
 4606TIP3   OH235232   0.779   2.966  16.999 -0.0323 -0.3251 -0.2420
 4606TIP3    H135233   0.748   2.891  16.949  0.0325  0.5021 -1.5794
 4606TIP3    H235234   0.742   3.042  16.953  0.6136  0.4924  0.5591
 4607TIP3   OH235235   1.350   4.205  14.718  0.0350 -0.0126 -0.1454
 4607TIP3    H135236   1.426   4.179  14.770 -0.5193 -0.1638  0.5982
 4607TIP3    H235237   1.363   4.298  14.700 -0.5121  0.4272  1.5771
 4608TIP3   OH235238   3.020   0.058  13.715 -0.8014  0.6667  0.1049
 4608TIP3    H135239   2.966  -0.002  13.767 -0.4019  0.4166  0.2339
 4608TIP3    H235240   3.109   0.039  13.743 -0.7371  1.9704  0.8263
 4609TIP3   OH235241   2.282   1.441  13.286  0.3188 -0.6894 -0.0685
 4609TIP3    H135242   2.322   1.358  13.261 -0.5384 -0.8540 -0.9523
 4609TIP3    H235243   2.352   1.506  13.278  0.2040 -0.7836 -2.6265
 4610TIP3   OH235244   0.954   2.428   4.789 -0.8363 -0.0366  0.6319
 4610TIP3    H135245   0.896   2.360   4.824 -1.6426 -0.7344 -1.8914
 4610TIP3    H235246   0.898   2.483   4.735  0.4749  0.4925 -0.2396
 4611TIP3   OH235247   4.192   6.011   0.751 -0.2769  0.2037 -0.3651
 4611TIP3    H135248   4.199   5.926   0.709 -2.3524 -0.9068  1.3046
 4611TIP3    H235249   4.198   6.074   0.680  2.6902 -1.1769 -1.5141
 4612TIP3   OH235250   2.803   6.071   3.148  0.0956  0.1889  0.2386
 4612TIP3    H135251   2.853   6.036   3.075 -0.2274  0.5796 -0.1741
 4612TIP3    H235252   2.719   6.024   3.145 -0.4322  1.1537 -0.4643
 4613TIP3   OH235253   5.898   2.839  15.138 -0.2379 -0.3857  0.0722
 4613TIP3    H135254   5.879   2.922  15.094 -1.1030 -2.4942 -3.9737
 4613TIP3    H235255   5.988   2.819  15.112 -0.1691 -0.9239  0.7119
 4614TIP3   OH235256   5.570   3.491   3.116  0.0985  0.2343  0.2931
 4614TIP3    H135257   5.620   3.566   3.148 -1.0910  0.8757  0.7143
 4614TIP3    H235258   5.545   3.444   3.196 -0.2123  0.0941  0.1174
 4615TIP3   OH235259   2.510   4.648  16.237 -0.2911  0.2390  0.1392
 4615TIP3    H135260   2.423   4.645  16.197 -0.2629  0.7282  0.0355
 4615TIP3    H235261   2.543   4.558  16.229 -0.1815  0.3817 -1.1741
 4616TIP3   OH235262   3.921   3.775   1.642  0.0651  0.1384 -0.2609
 4616TIP3    H135263   3.984   3.759   1.572 -2.3898  2.5173 -3.3025
 4616TIP3    H235264   3.950   3.858   1.682 -0.8238  1.0362 -1.4116
 4617TIP3   OH235265   5.537   6.605  14.295  0.0837  0.2620  0.0576
 4617TIP3    H135266   5.549   6.591  14.201  0.0072  1.5224 -0.1499
 4617TIP3    H235267   5.612   6.659  14.321 -0.4522  0.7980  0.5089
 4618TIP3   OH235268   2.667   3.641  14.132 -0.2062  0.3976 -0.0621
 4618TIP3    H135269   2.588   3.587  14.145 -0.4303  1.1356  1.9359
 4618TIP3    H235270   2.725   3.616  14.204  0.9020  0.7699 -0.7980
 4619TIP3   OH235271   2.491   1.864  15.446 -0.4590  0.1151  0.5619
 4619TIP3    H135272   2.454   1.778  15.466  0.5749 -0.8522 -1.3390
 4619TIP3    H235273   2.562   1.875  15.509 -0.4233 -0.5585  0.6425
 4620TIP3   OH235274   5.072   3.459   0.340  0.4142  0.2547  0.2618
 4620TIP3    H135275   5.100   3.539   0.385  0.0001  1.9521 -2.2894
 4620TIP3    H235276   5.148   3.431   0.290 -0.2043  0.5938 -0.8978
 4621TIP3   OH235277   5.774   0.474  14.894  0.5016 -0.0963  0.5399
 4621TIP3    H135278   5.862   0.488  14.930  1.4161  0.5642 -1.7725
 4621TIP3    H235279   5.780   0.504  14.803 -1.9895 -0.5361  0.1574
 4622TIP3   OH235280   2.307   5.216  12.106 -0.4255  1.0829 -0.0340
 4622TIP3    H135281   2.353   5.161  12.170 -0.9933  2.6262  1.8145
 4622TIP3    H235282   2.353   5.300  12.108  0.4659  0.7504 -2.8470
 4623TIP3   OH235283   4.317   4.719   4.044 -0.5710  0.2193 -0.5092
 4623TIP3    H135284   4.301   4.640   4.096 -1.0088 -0.2966 -1.4181
 4623TIP3    H235285   4.275   4.789   4.094 -1.1041 -0.2888 -0.2285
 4624TIP3   OH235286   1.249   4.461  13.057  0.0373 -0.1512 -0.6457
 4624TIP3    H135287   1.285   4.439  12.971  0.1871  1.5376 -1.0462
 4624TIP3    H235288   1.154   4.449  13.046  0.0254  0.3447 -1.1500
 4625TIP3   OH235289   5.388   1.057   1.341  0.4540  0.3535  0.2121
 4625TIP3    H135290   5.323   1.087   1.277 -0.4979  1.7367  1.7534
 4625TIP3    H235291   5.471   1.095   1.310  0.3085 -0.2644 -1.0089
 4626TIP3   OH235292   1.532   2.790   0.738  0.2510  0.3030 -0.4644
 4626TIP3    H135293   1.537   2.885   0.725  0.2857  0.2722 -0.6733
 4626TIP3    H235294   1.443   2.775   0.770 -0.9694  0.0322 -3.6545
 4627TIP3   OH235295   1.550   6.550   1.810 -0.2207  0.5866 -0.1420
 4627TIP3    H135296   1.478   6.605   1.843 -0.2566  0.7681 -0.5137
 4627TIP3    H235297   1.508   6.491   1.748 -0.2870 -0.2949  0.7186
 4628TIP3   OH235298   3.030   4.245  15.267  0.0240  0.2963 -0.3717
 4628TIP3    H135299   3.073   4.161  15.284 -0.9839 -0.0953  0.3478
 4628TIP3    H235300   2.986   4.267  15.349 -0.9646  0.7879 -1.0076
 4629TIP3   OH235301   2.584   2.486   1.119  0.1703 -0.0986 -0.4003
 4629TIP3    H135302   2.519   2.436   1.069 -1.0552  0.5698  0.4582
 4629TIP3    H235303   2.655   2.503   1.057  0.0778 -1.8599 -1.0434
 4630TIP3   OH235304   5.911   4.460  15.296  0.0489 -0.1656  0.3211
 4630TIP3    H135305   5.887   4.461  15.203 -0.0426  2.5297  0.3149
 4630TIP3    H235306   5.985   4.399  15.300  0.8254  0.5470 -1.7480
 4631TIP3   OH235307   5.692   3.847   1.697  0.8386  0.2746 -0.5126
 4631TIP3    H135308   5.624   3.781   1.696  2.0461 -1.0624  0.7197
 4631TIP3    H235309   5.716   3.859   1.605  0.8517 -1.2946 -0.7327
 4632TIP3   OH235310   3.271   4.106   5.298 -0.2047 -0.6659  0.2564
 4632TIP3    H135311   3.264   4.081   5.390 -0.2646 -2.3591 -0.1789
 4632TIP3    H235312   3.266   4.023   5.250 -0.4083  0.2047 -1.2891
 4633TIP3   OH235313   0.795   0.925   4.548  0.2135  0.1860 -0.0718
 4633TIP3    H135314   0.746   0.845   4.570  2.1574 -1.4538 -1.3466
 4633TIP3    H235315   0.739   0.970   4.485 -0.6851 -0.4357  0.2549
 4634TIP3   OH235316   3.451   1.321  11.806  0.3136 -0.3055 -0.0288
 4634TIP3    H135317   3.396   1.248  11.778  0.8472 -1.0530  0.8264
 4634TIP3    H235318   3.454   1.313  11.901  1.6979 -0.1384 -0.0458
 4635TIP3   OH235319   1.811   0.666  17.196 -0.0753 -0.5728 -0.5452
 4635TIP3    H135320   1.869   0.658  17.120  0.6529  0.0889 -0.0756
 4635TIP3    H235321   1.723   0.665  17.159  0.0390 -3.9904 -1.1299
 4636TIP3   OH235322   4.136   1.489   3.238 -0.0472 -0.2873 -0.8829
 4636TIP3    H135323   4.094   1.438   3.168 -1.3080 -0.7352  0.1639
 4636TIP3    H235324   4.098   1.455   3.319  0.3880  1.1468 -0.0427
 4637TIP3   OH235325   5.655   3.546   4.058 -0.0469  0.1434 -0.1874
 4637TIP3    H135326   5.748   3.540   4.079  0.1662  0.9536 -0.8827
 4637TIP3    H235327   5.629   3.632   4.090 -0.1767  0.5783 -1.4375
 4638TIP3   OH235328   2.310   3.590  11.457 -0.0887  0.1530  0.1108
 4638TIP3    H135329   2.404   3.570  11.459  0.0924  0.8670 -0.6787
 4638TIP3    H235330   2.276   3.536  11.387  0.3038  2.0439 -1.6538
 4639TIP3   OH235331   6.277   2.296   3.642  0.8940  0.0443 -0.3044
 4639TIP3    H135332   6.317   2.253   3.718 -0.5045 -0.6510  0.0911
 4639TIP3    H235333   6.350   2.314   3.583  1.5603 -3.5682 -0.8192
 4640TIP3   OH235334   5.645   4.090  10.378  0.3202  0.3969 -0.4540
 4640TIP3    H135335   5.659   4.026  10.448  0.2080 -0.1415 -0.9136
 4640TIP3    H235336   5.584   4.154  10.415  1.3966  0.9348  0.4306
 4641TIP3   OH235337   1.242   5.851  12.905  0.3950 -0.4508 -0.1671
 4641TIP3    H135338   1.219   5.790  12.974  0.7764 -0.9532 -0.4762
 4641TIP3    H235339   1.163   5.857  12.851  0.5238 -1.0855 -0.4341
 4642TIP3   OH235340   5.127   3.817  12.289  0.2309  0.3929  0.6417
 4642TIP3    H135341   5.050   3.781  12.333  0.1272  1.4102  1.2918
 4642TIP3    H235342   5.169   3.740  12.251 -1.0634 -0.1967  0.3225
 4643TIP3   OH235343   4.719   4.037  12.065 -0.5447  0.0526  0.1767
 4643TIP3    H135344   4.694   4.127  12.085 -1.7684 -0.4117  0.8545
 4643TIP3    H235345   4.797   4.021  12.118 -0.4303  0.6455  0.1931
 4644TIP3   OH235346   3.327   5.951   0.538 -0.2950 -0.1818 -0.5525
 4644TIP3    H135347   3.294   6.002   0.612 -1.1987  0.4377 -1.3586
 4644TIP3    H235348   3.310   6.006   0.462  1.0133 -0.6207 -1.1860
 4645TIP3   OH235349   1.373   3.674  11.923  0.1064 -0.2318 -0.1332
 4645TIP3    H135350   1.449   3.635  11.878  1.8534  2.3688  0.3404
 4645TIP3    H235351   1.313   3.698  11.852  0.2226 -1.2830 -0.6052
 4646TIP3   OH235352   5.993   4.577   4.594  0.6135  0.2284  0.1379
 4646TIP3    H135353   6.033   4.490   4.591  2.0477  0.8265  1.0921
 4646TIP3    H235354   5.925   4.574   4.526  1.0169 -1.4382 -0.2399
 4647TIP3   OH235355   1.872   5.160  12.491  0.1069  0.5403 -0.0715
 4647TIP3    H135356   1.844   5.088  12.547  1.6908  0.1654  0.3000
 4647TIP3    H235357   1.915   5.221  12.551  2.0974 -0.0100 -0.8605
 4648TIP3   OH235358   1.650   0.266   1.741 -0.1129  0.0379  0.4530
 4648TIP3    H135359   1.732   0.226   1.770 -0.2964  0.0809  1.0398
 4648TIP3    H235360   1.592   0.192   1.724  0.4133 -0.0481 -1.1231
 4649TIP3   OH235361   5.452   5.674   5.439 -0.1299 -0.4218 -0.0699
 4649TIP3    H135362   5.526   5.623   5.405  0.9325  1.3760 -0.6235
 4649TIP3    H235363   5.439   5.743   5.374  0.1982  1.5398  1.8282
 4650TIP3   OH235364   3.308   2.947   5.387  0.1122 -0.1520 -1.1476
 4650TIP3    H135365   3.349   2.999   5.457 -1.3131 -0.5541  0.0275
 4650TIP3    H235366   3.337   2.858   5.405 -0.1094 -0.2314 -1.1952
 4651TIP3   OH235367   2.791   2.997  10.977  0.0279  0.3160 -0.0269
 4651TIP3    H135368   2.730   3.069  10.966 -0.5435 -0.3247 -1.2920
 4651TIP3    H235369   2.849   3.003  10.901 -0.2845 -0.7892 -0.3742
 4652TIP3   OH235370   1.823   4.959  15.030 -0.3608  0.2081  0.3480
 4652TIP3    H135371   1.787   4.942  15.118 -0.8820 -1.2866 -0.1198
 4652TIP3    H235372   1.903   4.906  15.027 -0.2583  0.3863 -0.0265
 4653TIP3   OH235373   0.583   3.456  16.568  0.2467  0.0917 -0.1194
 4653TIP3    H135374   0.522   3.421  16.503  0.9202 -0.6522 -0.3677
 4653TIP3    H235375   0.650   3.501  16.515  0.5515 -0.1225  0.0824
 4654TIP3   OH235376   0.849   6.328   2.694 -0.3484  0.6100  0.3578
 4654TIP3    H135377   0.901   6.401   2.727  0.7630 -0.2740  0.6348
 4654TIP3    H235378   0.873   6.254   2.751 -1.2859 -0.0273 -0.0471
 4655TIP3   OH235379   4.281   6.404  15.603 -0.3984  0.3353  0.8514
 4655TIP3    H135380   4.302   6.312  15.621  0.5077  0.0605 -1.2727
 4655TIP3    H235381   4.260   6.441  15.689  0.2128 -1.5988  1.9026
 4656TIP3   OH235382   2.514   1.006   0.592  0.1377  0.2872  0.2680
 4656TIP3    H135383   2.512   1.090   0.637  0.2992  0.3096  0.2339
 4656TIP3    H235384   2.438   0.958   0.626  0.2362  0.3190  0.5332
 4657TIP3   OH235385   1.681   0.165   3.625 -0.7172 -0.2745  0.1230
 4657TIP3    H135386   1.660   0.114   3.547 -1.6541  0.0553  0.1533
 4657TIP3    H235387   1.717   0.247   3.592 -2.0581  0.2909 -0.0161
 4658TIP3   OH235388   3.819   3.354  12.342  0.6630 -0.0335 -0.0056
 4658TIP3    H135389   3.875   3.313  12.276 -0.2178 -0.8378 -0.2820
 4658TIP3    H235390   3.817   3.447  12.317 -0.0169 -0.3922 -1.4059
 4659TIP3   OH235391   6.543   5.194  16.631 -0.3721 -0.5712 -0.0725
 4659TIP3    H135392   6.607   5.180  16.700  0.4531  0.9200 -0.4895
 4659TIP3    H235393   6.594   5.214  16.553 -1.3151 -0.6273 -0.7278
 4660TIP3   OH235394   3.657   3.016  13.814  0.1524 -0.2547  0.3192
 4660TIP3    H135395   3.666   2.924  13.841  1.2608  0.0279  0.9920
 4660TIP3    H235396   3.695   3.019  13.727  0.8107 -0.3074  0.5954
 4661TIP3   OH235397   2.288   2.546  14.813  0.3292 -0.3092 -0.0672
 4661TIP3    H135398   2.315   2.474  14.870  0.6089 -0.4222 -0.3339
 4661TIP3    H235399   2.339   2.532  14.733  0.2498  0.0857 -0.1847
 4662TIP3   OH235400   5.811   0.754   3.526 -0.3521  0.1198 -0.1304
 4662TIP3    H135401   5.890   0.735   3.576 -2.0675 -1.3839  2.2230
 4662TIP3    H235402   5.824   0.843   3.494  1.7404  0.3830  1.2435
 4663TIP3   OH235403   1.260   4.499  16.540 -0.6813 -0.9643  0.5948
 4663TIP3    H135404   1.199   4.451  16.596 -0.6087 -0.9572  0.6788
 4663TIP3    H235405   1.245   4.462  16.453 -0.1924 -1.5753  0.7618
 4664TIP3   OH235406   2.402   6.749   2.557 -0.0972  0.1583 -0.4022
 4664TIP3    H135407   2.399   6.704   2.641  1.1355  0.8305  0.0223
 4664TIP3    H235408   2.324   6.805   2.557  0.8933  1.6428  1.1847
 4665TIP3   OH235409   6.283   2.973  16.620  0.1528  0.2598  0.6687
 4665TIP3    H135410   6.284   2.976  16.716 -0.1991 -1.6276  0.7848
 4665TIP3    H235411   6.190   2.965  16.597  0.2214  0.9065  0.1583
 4666TIP3   OH235412   1.047   1.686   6.054 -0.4177  0.1890 -0.0286
 4666TIP3    H135413   1.101   1.748   6.102  1.1953 -1.0196 -0.1874
 4666TIP3    H235414   0.962   1.687   6.098  0.9835 -0.8998  2.9241
 4667TIP3   OH235415   4.557   1.098  16.010 -0.8058 -0.0722  0.6130
 4667TIP3    H135416   4.494   1.033  15.978  1.4356 -2.0172 -0.1768
 4667TIP3    H235417   4.590   1.141  15.930 -0.0941 -0.1269  0.8644
 4668TIP3   OH235418   4.327   4.800  16.791 -0.4610  0.3180 -0.2857
 4668TIP3    H135419   4.403   4.857  16.775  0.0545 -0.2818 -0.0191
 4668TIP3    H235420   4.300   4.821  16.880 -1.5445  1.5954 -0.8852
 4669TIP3   OH235421   0.041   0.191  16.017 -0.2212 -0.0603  0.4676
 4669TIP3    H135422  -0.039   0.213  16.064 -1.8844  0.4514 -2.3871
 4669TIP3    H235423   0.020   0.111  15.970  0.9977  0.0063 -0.2239
 4670TIP3   OH235424   1.696   1.658  17.138  0.2525 -0.3396 -0.2236
 4670TIP3    H135425   1.705   1.576  17.187  0.5680  0.4657  1.1316
 4670TIP3    H235426   1.614   1.695  17.169  0.5921  0.3143 -0.0907
 4671TIP3   OH235427   5.817   0.428   5.253  0.4709 -0.1173 -0.3217
 4671TIP3    H135428   5.820   0.332   5.247  0.8341 -0.0299 -2.1689
 4671TIP3    H235429   5.904   0.456   5.224 -0.4285  0.8167 -2.2802
 4672TIP3   OH235430   2.307   0.656  15.636  0.5903 -0.1627 -0.0609
 4672TIP3    H135431   2.287   0.567  15.607  0.4008 -0.3718  0.6874
 4672TIP3    H235432   2.368   0.643  15.709  1.1284  0.3529 -0.4101
 4673TIP3   OH235433   2.945   2.196   0.024  0.1518 -0.4025  0.1746
 4673TIP3    H135434   2.857   2.210  -0.008  0.9068  0.2670 -1.7422
 4673TIP3    H235435   2.935   2.185   0.119 -2.1453 -2.0747 -0.1774
 4674TIP3   OH235436   4.142   5.150  13.772 -0.0920 -0.5355  0.8363
 4674TIP3    H135437   4.125   5.130  13.680 -0.0978 -3.2083  1.3526
 4674TIP3    H235438   4.070   5.108  13.819 -1.2035  2.4056  2.0312
 4675TIP3   OH235439   5.966   3.098   3.904  0.1225 -0.0096 -0.3929
 4675TIP3    H135440   5.896   3.143   3.858 -0.2729 -1.4094 -1.2183
 4675TIP3    H235441   5.978   3.016   3.856  1.6172 -0.2687  0.3522
 4676TIP3   OH235442   2.577   1.316   3.701 -0.1118 -0.0796  0.1641
 4676TIP3    H135443   2.534   1.394   3.665  0.7720  1.1300  1.6132
 4676TIP3    H235444   2.519   1.287   3.771  0.1396 -0.0091  0.4042
 4677TIP3   OH235445   4.330   4.768   2.529  0.4671 -0.1348  0.3230
 4677TIP3    H135446   4.412   4.753   2.577  0.9964 -0.0858 -0.5405
 4677TIP3    H235447   4.308   4.860   2.547  0.9182  0.0196  0.1050
 4678TIP3   OH235448   4.455   4.087   4.224  1.0975 -0.1531 -0.8887
 4678TIP3    H135449   4.535   4.046   4.193  0.9928 -2.2233  1.3241
 4678TIP3    H235450   4.386   4.025   4.201  0.1428  1.3410 -2.2693
 4679TIP3   OH235451   6.695   6.506  12.753 -0.1371 -0.1149  0.0433
 4679TIP3    H135452   6.748   6.583  12.731  0.6457 -1.1328 -1.9452
 4679TIP3    H235453   6.604   6.536  12.743  0.1350  0.7544  0.1044
 4680TIP3   OH235454   6.476   1.109  15.789 -0.3810 -0.5425 -0.2752
 4680TIP3    H135455   6.440   1.025  15.818 -1.4176  0.3624  1.2206
 4680TIP3    H235456   6.400   1.169  15.790  0.2438  0.3339 -1.7011
 4681TIP3   OH235457   2.053   3.850   0.581  0.0101  0.3941  0.5019
 4681TIP3    H135458   1.969   3.892   0.559 -0.3056  1.1059  2.8294
 4681TIP3    H235459   2.028   3.763   0.613  0.0704  0.8552  1.8450
 4682TIP3   OH235460   3.975   0.917   5.582 -0.6503 -0.0486 -0.4688
 4682TIP3    H135461   4.070   0.925   5.590 -0.5896 -0.2165 -0.9338
 4682TIP3    H235462   3.939   0.975   5.649 -0.2182 -1.6258  1.2192
 4683TIP3   OH235463   0.967   3.667   1.200  0.6128 -0.1502 -0.2023
 4683TIP3    H135464   0.881   3.644   1.166 -0.0701 -1.2876  2.0413
 4683TIP3    H235465   1.005   3.583   1.227  0.2991  0.6776  3.3573
 4684TIP3   OH235466   5.929   6.546  13.801  0.2237  0.0569  0.2018
 4684TIP3    H135467   5.944   6.479  13.867 -0.3127 -0.5480 -0.2786
 4684TIP3    H235468   6.014   6.555  13.757  0.1182 -0.8516 -0.2173
 4685TIP3   OH235469   0.679   1.116  17.070 -0.0022  0.3939  0.1868
 4685TIP3    H135470   0.647   1.192  17.118  0.8339  0.9272 -0.0767
 4685TIP3    H235471   0.603   1.059  17.061 -0.4502  0.8388  1.0797
 4686TIP3   OH235472   4.171   0.591   3.190 -0.2307 -0.2439  0.0814
 4686TIP3    H135473   4.165   0.630   3.277  1.8341 -2.1508  1.1864
 4686TIP3    H235474   4.124   0.508   3.197 -0.3896 -0.2369 -0.7597
 4687TIP3   OH235475   3.504   2.378  15.300 -0.0866 -0.1067  0.3757
 4687TIP3    H135476   3.503   2.354  15.208  1.0694  0.8965  0.0771
 4687TIP3    H235477   3.490   2.295  15.347 -1.2375 -0.5388 -0.6861
 4688TIP3   OH235478   1.472   5.214  16.006  0.2579 -0.2391 -0.0904
 4688TIP3    H135479   1.413   5.173  16.070  0.5133 -2.8409 -1.3762
 4688TIP3    H235480   1.439   5.304  15.997 -0.8972 -0.3369  2.2958
 4689TIP3   OH235481   3.221   2.628  15.288  0.3934 -0.6200  0.0596
 4689TIP3    H135482   3.153   2.678  15.333  1.0816 -1.4900  2.1719
 4689TIP3    H235483   3.287   2.693  15.265  0.1191 -0.1786  0.4922
 4690TIP3   OH235484   3.143   0.200   2.401 -0.2205 -0.0064  0.0360
 4690TIP3    H135485   3.177   0.243   2.322 -1.3507 -1.3395 -1.2330
 4690TIP3    H235486   3.209   0.217   2.468  2.0254 -0.9387 -1.8287
 4691TIP3   OH235487   1.277   1.926  16.105  0.2404  0.2406  0.3444
 4691TIP3    H135488   1.253   1.927  16.012  0.6347 -0.5988  0.2333
 4691TIP3    H235489   1.275   2.019  16.130  0.0342  0.4701 -0.4707
 4692TIP3   OH235490   6.208   2.668   3.213  0.3505 -0.3002  0.2697
 4692TIP3    H135491   6.289   2.622   3.239  1.3073  1.4446  0.5396
 4692TIP3    H235492   6.153   2.665   3.291  0.1749 -1.4012  0.1216
 4693TIP3   OH235493   2.336   4.746  11.774 -0.4464  0.3006  0.3134
 4693TIP3    H135494   2.325   4.756  11.869  0.9129  2.4027  0.2940
 4693TIP3    H235495   2.246   4.740  11.741 -0.9906  0.8791  1.6086
 4694TIP3   OH235496   4.674   4.409   4.654  0.2948 -0.2358  0.5642
 4694TIP3    H135497   4.661   4.321   4.691 -0.8653 -1.8122 -3.1372
 4694TIP3    H235498   4.586   4.444   4.642  0.7293  1.1904  1.2956
 4695TIP3   OH235499   2.784   3.408  14.616 -0.5558  0.3868 -0.1514
 4695TIP3    H135500   2.746   3.433  14.700  2.2692 -0.1223  1.4233
 4695TIP3    H235501   2.777   3.313  14.613  0.2718  0.3081  0.0401
 4696TIP3   OH235502   4.278   0.788   2.773  0.3945 -0.0112 -0.2230
 4696TIP3    H135503   4.328   0.835   2.707  0.1762  0.6114  0.0521
 4696TIP3    H235504   4.341   0.771   2.843  0.4014  0.1414 -0.1912
 4697TIP3   OH235505   2.097   5.596  13.925  0.4892  0.1673  0.0571
 4697TIP3    H135506   2.172   5.583  13.866 -0.6708 -2.4619 -0.9985
 4697TIP3    H235507   2.076   5.689  13.918  2.7030  0.6667 -0.7662
 4698TIP3   OH235508   3.870   6.756  16.697 -0.4241 -0.4146 -0.5802
 4698TIP3    H135509   3.941   6.816  16.720 -1.4699  0.2251  1.1938
 4698TIP3    H235510   3.914   6.675  16.672  0.9492 -0.2936  1.2335
 4699TIP3   OH235511   2.708   6.321   5.470 -0.1529 -0.1803 -0.0415
 4699TIP3    H135512   2.622   6.278   5.465 -0.0964 -0.4185  0.7882
 4699TIP3    H235513   2.759   6.264   5.528  0.6939 -0.2392 -0.8233
 4700TIP3   OH235514   1.893   0.578  12.989 -0.3320  0.3316  0.4376
 4700TIP3    H135515   1.857   0.490  12.990 -2.3134  1.0925  0.2184
 4700TIP3    H235516   1.904   0.601  13.081  2.8225 -1.0650  0.5578
 4701TIP3   OH235517   6.585   5.265   5.319 -0.7958 -0.3999 -0.1044
 4701TIP3    H135518   6.665   5.305   5.286 -0.4789 -1.0192 -0.1040
 4701TIP3    H235519   6.571   5.305   5.405  0.0928 -1.0451  0.3533
 4702TIP3   OH235520   1.434   4.952   4.693 -0.5869  0.5712 -0.2241
 4702TIP3    H135521   1.430   5.046   4.675  0.8992  0.6558 -0.2374
 4702TIP3    H235522   1.356   4.916   4.651 -1.7391  1.9275  0.6841
 4703TIP3   OH235523   1.637   2.082  14.769 -0.0933  1.1875 -0.0812
 4703TIP3    H135524   1.572   2.013  14.783  0.1679  0.7731 -0.8511
 4703TIP3    H235525   1.594   2.143  14.709  0.1880  0.9580 -0.5225
 4704TIP3   OH235526   1.924   6.765  12.221 -0.1258  0.0079  0.4765
 4704TIP3    H135527   1.942   6.692  12.280  1.6481  0.3341  0.3859
 4704TIP3    H235528   1.854   6.733  12.164  0.8748 -1.7844  0.1735
 4705TIP3   OH235529   4.893   3.288  15.413 -0.4470  0.0878 -0.0537
 4705TIP3    H135530   4.903   3.235  15.492 -0.6769 -1.8866 -1.2772
 4705TIP3    H235531   4.983   3.312  15.389 -0.2950 -0.1593  0.2620
 4706TIP3   OH235532   5.720   3.362  16.436  0.2814 -0.0647  0.1487
 4706TIP3    H135533   5.683   3.317  16.360 -1.6710  3.0358 -0.9327
 4706TIP3    H235534   5.649   3.361  16.501  1.0679 -0.5696  1.0267
 4707TIP3   OH235535   0.960   5.402  14.194  0.1162 -0.2112 -0.4466
 4707TIP3    H135536   1.041   5.437  14.232 -0.9533 -0.4256  2.2309
 4707TIP3    H235537   0.916   5.479  14.157  0.3117  0.3848  0.5216
 4708TIP3   OH235538   0.523   6.135   1.548 -0.3371  1.1361  0.8189
 4708TIP3    H135539   0.458   6.102   1.611 -0.5472  0.4238  0.2477
 4708TIP3    H235540   0.607   6.104   1.581 -0.4457  0.7762  0.7624
 4709TIP3   OH235541   2.655   2.078   5.564 -0.0126  0.3080 -0.4197
 4709TIP3    H135542   2.745   2.050   5.582 -0.5590 -2.0249 -0.9601
 4709TIP3    H235543   2.611   2.070   5.649 -0.0602 -0.0795 -0.4780
 4710TIP3   OH235544   3.080   2.723   1.060 -0.2765 -0.1689  0.0052
 4710TIP3    H135545   3.014   2.655   1.066  0.8362 -1.6219 -2.5474
 4710TIP3    H235546   3.049   2.793   1.118 -2.1602 -2.2375  1.6424
 4711TIP3   OH235547   1.104   2.024   1.224  0.3495  0.4767 -0.3267
 4711TIP3    H135548   1.136   1.974   1.300  1.9029  0.0268 -1.2184
 4711TIP3    H235549   1.157   2.103   1.223 -0.5130  1.0654 -0.2516
 4712TIP3   OH235550   2.110   4.939  12.374 -0.1266  0.3012  0.1811
 4712TIP3    H135551   2.031   4.931  12.320  0.4689  0.2887 -0.7157
 4712TIP3    H235552   2.137   4.848  12.389 -1.1503  0.2271  1.8495
 4713TIP3   OH235553   4.654   2.775   6.153  0.3377  0.2613 -0.0299
 4713TIP3    H135554   4.749   2.780   6.159  0.5784 -1.8420 -1.2061
 4713TIP3    H235555   4.624   2.778   6.244  1.5415  0.4952  0.3787
 4714TIP3   OH235556   0.544   1.998   4.581  0.7055  0.7279  0.5671
 4714TIP3    H135557   0.539   2.094   4.576 -1.4776  0.6824  1.0632
 4714TIP3    H235558   0.573   1.980   4.670 -1.6653  0.9285  1.4323
 4715TIP3   OH235559   3.524   5.564  15.242  0.4048  0.6609  0.1745
 4715TIP3    H135560   3.473   5.604  15.172  1.8466  2.6659  0.1894
 4715TIP3    H235561   3.476   5.484  15.264 -2.3050  2.0466 -0.2877
 4716TIP3   OH235562   2.455   2.381   6.189 -0.2711 -0.3526  0.3442
 4716TIP3    H135563   2.384   2.437   6.221 -0.3961 -0.4936  0.3164
 4716TIP3    H235564   2.420   2.341   6.110 -0.5683 -1.2623  0.9133
 4717TIP3   OH235565   4.176   4.382   0.005 -0.1739 -0.3044  0.5439
 4717TIP3    H135566   4.161   4.475   0.022 -2.5137 -0.9009  2.1622
 4717TIP3    H235567   4.152   4.371  -0.087 -0.2296  0.6097  0.4335
 4718TIP3   OH235568   2.323   4.683   1.119  0.0931 -0.6841  0.5951
 4718TIP3    H135569   2.381   4.722   1.185 -0.6428  0.9390  0.3290
 4718TIP3    H235570   2.370   4.695   1.036  0.3029 -1.2896  0.6188
 4719TIP3   OH235571   2.461   0.281   1.470  0.5346  0.1749 -0.0751
 4719TIP3    H135572   2.432   0.219   1.403  1.6874  0.5716 -0.9648
 4719TIP3    H235573   2.395   0.274   1.539 -0.3314 -0.7100 -0.9635
 4720TIP3   OH235574   6.611   1.582   5.663 -0.0518  0.7113  0.2717
 4720TIP3    H135575   6.663   1.641   5.607  0.1267  0.6886  0.4133
 4720TIP3    H235576   6.584   1.637   5.736 -0.1247  0.6895  0.2614
 4721TIP3   OH235577   3.796   4.693  11.153 -0.2240 -0.1049 -0.5297
 4721TIP3    H135578   3.868   4.719  11.211 -0.2091 -2.9141  0.9116
 4721TIP3    H235579   3.803   4.597  11.149  0.8768 -0.1656 -6.6968
 4722TIP3   OH235580   1.913   3.975  11.593  0.4285  0.5705  0.0919
 4722TIP3    H135581   1.918   3.941  11.504  0.2683 -0.3731  0.4365
 4722TIP3    H235582   1.973   4.051  11.593  0.5167  0.5105 -0.7775
 4723TIP3   OH235583   5.375   0.572   6.246 -0.7722 -0.3690 -0.1296
 4723TIP3    H135584   5.287   0.570   6.285 -0.3641  1.1957  0.9723
 4723TIP3    H235585   5.404   0.662   6.258  1.6363 -1.2294  0.9723
 4724TIP3   OH235586   0.930   3.496   3.360  0.1130  0.6002 -0.0338
 4724TIP3    H135587   0.921   3.409   3.320  0.5901  0.8534 -0.7094
 4724TIP3    H235588   0.886   3.488   3.445  0.9391 -0.5706  0.3150
 4725TIP3   OH235589   2.664   2.911   6.736  0.1404  0.0943 -0.1407
 4725TIP3    H135590   2.691   2.997   6.768  0.8329 -0.1442 -0.0574
 4725TIP3    H235591   2.620   2.929   6.653 -2.1947  0.7755  1.1435
 4726TIP3   OH235592   4.641   1.959  16.628  0.1970  0.1549  0.0678
 4726TIP3    H135593   4.632   2.023  16.698  0.7792  0.3410 -0.0215
 4726TIP3    H235594   4.560   1.966  16.578  1.1711  2.5320 -1.3600
 4727TIP3   OH235595   4.617   1.530   1.041  0.1141  0.0415 -0.0860
 4727TIP3    H135596   4.544   1.469   1.050  1.2389 -1.3988 -0.3778
 4727TIP3    H235597   4.666   1.521   1.123  1.3069 -0.8637 -0.8631
 4728TIP3   OH235598   5.754   6.350  16.148  0.2015  0.3162 -0.1440
 4728TIP3    H135599   5.807   6.428  16.166  0.3255  0.0372  0.7660
 4728TIP3    H235600   5.717   6.327  16.233  2.0739 -2.0131  0.1130
 4729TIP3   OH235601   6.106   0.611  14.946  0.8697 -0.4197  0.0227
 4729TIP3    H135602   6.144   0.634  14.862 -0.4279 -0.4064 -0.5807
 4729TIP3    H235603   6.087   0.517  14.939 -0.1216 -0.2143 -0.0555
 4730TIP3   OH235604   5.251   2.276   4.287  0.0217  0.8731 -0.0299
 4730TIP3    H135605   5.316   2.321   4.340 -0.1835  0.6636  0.3998
 4730TIP3    H235606   5.175   2.335   4.289 -1.1053 -0.5052  2.4737
 4731TIP3   OH235607   4.685   2.820   2.120  0.2532  0.4070 -0.9025
 4731TIP3    H135608   4.591   2.836   2.108  0.2271 -0.0401 -1.3262
 4731TIP3    H235609   4.692   2.725   2.131  0.5434  0.5511  0.2461
 4732TIP3   OH235610   1.756   1.192  16.648  0.6879  0.0660 -0.2434
 4732TIP3    H135611   1.739   1.287  16.645  0.5669  0.0512 -0.0072
 4732TIP3    H235612   1.814   1.181  16.723 -0.8741 -0.2958  0.9548
 4733TIP3   OH235613   2.543   1.816  14.045  0.3514 -0.1340  0.4072
 4733TIP3    H135614   2.555   1.900  14.089  0.9257  0.4142 -0.7524
 4733TIP3    H235615   2.508   1.839  13.959  0.6917 -1.0654  0.0050
 4734TIP3   OH235616   0.856   3.271  16.561 -0.2295 -0.1131 -0.3195
 4734TIP3    H135617   0.784   3.233  16.510  1.1862  1.2391 -3.6186
 4734TIP3    H235618   0.934   3.253  16.509  1.5069  0.5770  1.9154
 4735TIP3   OH235619   5.394   3.655  13.130 -0.8929 -0.2003 -0.2934
 4735TIP3    H135620   5.471   3.607  13.100 -0.6284  0.9356 -1.5836
 4735TIP3    H235621   5.320   3.607  13.094 -0.7305 -0.6618 -0.0169
 4736TIP3   OH235622   3.375   6.019   0.924  0.0218  0.0762 -0.1681
 4736TIP3    H135623   3.442   6.056   0.981  0.7165  0.1839 -1.0408
 4736TIP3    H235624   3.394   5.925   0.921 -0.6370 -0.0911  0.5852
 4737TIP3   OH235625   3.156   6.370  16.726  0.3576  0.5803 -0.1916
 4737TIP3    H135626   3.163   6.439  16.792 -0.0723 -1.0461  1.6653
 4737TIP3    H235627   3.211   6.299  16.759  2.3206  0.6274 -2.9831
 4738TIP3   OH235628   0.002   1.168   2.036  0.1594 -0.1348  0.0131
 4738TIP3    H135629   0.059   1.152   2.111  0.8849 -0.6508 -0.6275
 4738TIP3    H235630  -0.067   1.102   2.043  0.3843 -0.3648  0.0737
 4739TIP3   OH235631   6.587   0.574   5.661  0.2756  0.3384 -0.6782
 4739TIP3    H135632   6.638   0.493   5.661 -0.7316 -0.3331  0.7122
 4739TIP3    H235633   6.497   0.546   5.650 -0.3265  1.0358  1.8305
 4740TIP3   OH235634   2.888   4.788  13.722  0.0638 -0.4210  0.2689
 4740TIP3    H135635   2.927   4.701  13.733  1.1252  0.0716  0.5530
 4740TIP3    H235636   2.963   4.847  13.713 -0.6482  0.4257 -0.2845
 4741TIP3   OH235637   1.923   2.229  17.053  0.3203 -0.0433 -0.3182
 4741TIP3    H135638   1.949   2.321  17.064 -1.9360  0.6122  0.0769
 4741TIP3    H235639   1.928   2.214  16.959  0.4455  0.5635 -0.4147
 4742TIP3   OH235640   3.088   0.192   1.618  0.1697  0.3150  0.7415
 4742TIP3    H135641   2.995   0.198   1.597  0.0524  0.7295  1.3607
 4742TIP3    H235642   3.130   0.259   1.563  0.4819 -1.6464 -1.5601
 4743TIP3   OH235643   6.608   0.443  15.220  0.6210  0.6561  0.3196
 4743TIP3    H135644   6.611   0.539  15.215 -0.2117  0.7062  0.6724
 4743TIP3    H235645   6.567   0.424  15.304  0.9247 -0.0140  0.3205
 4744TIP3   OH235646   5.033   4.151  11.188  0.1076 -0.3611  0.0250
 4744TIP3    H135647   5.050   4.074  11.241 -0.0136 -0.2262  0.2640
 4744TIP3    H235648   4.960   4.126  11.132  0.3466 -0.5598 -0.1972
 4745TIP3   OH235649   2.778   5.290   5.341 -0.4258 -0.4403  0.3964
 4745TIP3    H135650   2.756   5.369   5.292  1.6773 -0.5571 -0.8351
 4745TIP3    H235651   2.742   5.305   5.429 -2.5074  0.6514 -0.5637
 4746TIP3   OH235652   2.187   1.866  14.053 -0.4961  0.5676 -0.7752
 4746TIP3    H135653   2.237   1.792  14.018  1.9940  2.4915 -1.5482
 4746TIP3    H235654   2.114   1.876  13.992  1.0957  0.8553 -2.7163
 4747TIP3   OH235655   1.229   2.366  13.328  0.2540  0.4894 -0.1243
 4747TIP3    H135656   1.187   2.384  13.412  0.3245 -1.8585  0.5010
 4747TIP3    H235657   1.322   2.354  13.349  0.2282 -0.4097 -0.4705
 4748TIP3   OH235658   1.723   2.980   5.164 -0.0733  0.3670 -0.2643
 4748TIP3    H135659   1.658   2.978   5.234  0.0905 -2.2261 -0.0934
 4748TIP3    H235660   1.672   2.986   5.083 -0.4666 -0.1597 -0.0618
 4749TIP3   OH235661   1.346   1.581   1.112  0.3919  0.1370  0.3136
 4749TIP3    H135662   1.366   1.585   1.018  0.0640 -3.1785 -0.0254
 4749TIP3    H235663   1.251   1.569   1.116  0.5616 -1.1113  0.9636
 4750TIP3   OH235664   2.781   1.345  15.484 -0.5109  0.2353 -0.1486
 4750TIP3    H135665   2.707   1.389  15.442 -1.5703 -1.4871 -0.1895
 4750TIP3    H235666   2.800   1.271  15.428  0.8885  0.3157  0.1839
 4751TIP3   OH235667   3.884   0.740  11.230  0.1847 -0.5223 -0.1128
 4751TIP3    H135668   3.838   0.809  11.183  1.0737  0.8213  0.8929
 4751TIP3    H235669   3.879   0.664  11.173 -0.3370  0.5343 -1.5316
 4752TIP3   OH235670   5.959   2.122  14.640 -0.4937 -0.6366  0.4815
 4752TIP3    H135671   5.957   2.026  14.639  1.5716 -0.7200 -0.4569
 4752TIP3    H235672   6.051   2.145  14.626 -1.0691  1.4934 -0.3123
 4753TIP3   OH235673   6.216   0.252  15.177  0.1051 -0.5175 -0.3715
 4753TIP3    H135674   6.163   0.226  15.101  0.7379  1.2727 -1.4948
 4753TIP3    H235675   6.186   0.341  15.197  3.4931  1.1431 -1.9179
 4754TIP3   OH235676   3.633   1.917   1.924  0.2917  0.4042 -0.0583
 4754TIP3    H135677   3.631   1.821   1.922 -1.4868  0.3666  1.0714
 4754TIP3    H235678   3.712   1.939   1.974 -0.0700 -0.5286  0.9635
 4755TIP3   OH235679   6.399   4.000  15.887  0.0610 -0.3254  0.7865
 4755TIP3    H135680   6.366   3.913  15.911 -0.2372 -0.5730 -0.4648
 4755TIP3    H235681   6.491   3.985  15.865  0.2891 -0.1250  1.5436
 4756TIP3   OH235682   5.337   0.913   5.060  0.1015 -0.1408  0.2613
 4756TIP3    H135683   5.367   0.878   4.976  1.0802  0.2395  0.4321
 4756TIP3    H235684   5.266   0.855   5.087  1.1305 -1.5008  0.1533
 4757TIP3   OH235685   0.837   3.508   3.052  0.4410 -0.6274  0.2892
 4757TIP3    H135686   0.779   3.432   3.057 -0.3751 -0.1901 -1.5441
 4757TIP3    H235687   0.924   3.473   3.069  0.2932 -2.3160 -1.9074
 4758TIP3   OH235688   2.682   4.496   4.140 -0.6412  0.2493 -0.3407
 4758TIP3    H135689   2.607   4.552   4.161 -2.0319 -1.8959  0.7247
 4758TIP3    H235690   2.693   4.441   4.217  0.5634 -1.0859 -1.4164
 4759TIP3   OH235691   4.029   3.463  12.761 -0.2069  0.0631  0.0892
 4759TIP3    H135692   4.037   3.393  12.696 -0.8291 -1.4225  1.5389
 4759TIP3    H235693   4.077   3.429  12.837  0.3454  1.6741  0.4889
 4760TIP3   OH235694   3.164   6.403  15.640  0.1228  0.1516 -0.0723
 4760TIP3    H135695   3.191   6.450  15.561 -0.7208  1.2789  0.2926
 4760TIP3    H235696   3.217   6.440  15.710 -0.4664  0.4819  0.2017
 4761TIP3   OH235697   3.824   3.612  12.296  0.5969 -0.1913 -0.0188
 4761TIP3    H135698   3.824   3.676  12.225  0.1848 -1.0586 -0.8228
 4761TIP3    H235699   3.801   3.663  12.374 -1.0106  0.4317 -0.8524
 4762TIP3   OH235700   6.503   2.481  12.210  0.4373  0.1390 -0.2887
 4762TIP3    H135701   6.597   2.477  12.193  0.1198 -0.0244 -2.1918
 4762TIP3    H235702   6.470   2.545  12.146 -0.8086 -0.1475  0.0427
 4763TIP3   OH235703   3.971   2.712  13.230  0.1913 -0.5487  0.4055
 4763TIP3    H135704   3.942   2.792  13.186  0.0495 -0.4680  0.6378
 4763TIP3    H235705   3.909   2.645  13.202  0.5288 -0.6610 -0.0754
 4764TIP3   OH235706   1.758   4.824  14.491 -0.1007 -0.7572  0.2703
 4764TIP3    H135707   1.750   4.891  14.422 -0.2725  0.4226  1.3968
 4764TIP3    H235708   1.805   4.752  14.449 -0.9506 -0.4261 -1.3245
 4765TIP3   OH235709   4.205   4.767  10.683  0.0770 -0.5719  0.4447
 4765TIP3    H135710   4.207   4.785  10.778 -1.0474  0.7068  0.2650
 4765TIP3    H235711   4.217   4.853  10.643 -0.2419 -0.9910 -0.5702
 4766TIP3   OH235712   4.431   5.819   5.016 -0.4481 -0.0634 -0.4879
 4766TIP3    H135713   4.473   5.747   4.968 -1.0229 -0.1032 -0.9409
 4766TIP3    H235714   4.460   5.807   5.107  1.5795  0.6890 -0.9804
 4767TIP3   OH235715   5.926   0.268  14.670 -0.1627 -0.0111  0.1570
 4767TIP3    H135716   5.892   0.282  14.581  0.4176 -2.4174 -0.5124
 4767TIP3    H235717   5.851   0.286  14.727 -0.5929  1.4163 -0.8056
 4768TIP3   OH235718   4.398   1.730  10.884 -0.9070  0.0676  0.1075
 4768TIP3    H135719   4.306   1.713  10.907 -0.8481  1.1691  1.2981
 4768TIP3    H235720   4.403   1.825  10.873 -0.2836 -0.1452 -1.8155
 4769TIP3   OH235721   5.473   1.900  15.088  0.2649  0.4950  0.4868
 4769TIP3    H135722   5.528   1.958  15.034  0.9035 -0.4446  0.1015
 4769TIP3    H235723   5.389   1.899  15.042 -0.2432  2.2634  1.2975
 4770TIP3   OH235724   2.918   1.376  16.770 -0.5234  0.1007 -0.5851
 4770TIP3    H135725   2.873   1.298  16.737  0.8515  0.3735 -3.4420
 4770TIP3    H235726   3.011   1.358  16.756  0.2154  0.4934  2.9681
 4771TIP3   OH235727   3.031   6.124  16.276  0.0178 -0.0999 -0.6995
 4771TIP3    H135728   3.118   6.086  16.287  0.6771  0.8687 -2.2283
 4771TIP3    H235729   3.045   6.218  16.278 -0.7955  0.0780 -2.0765
 4772TIP3   OH235730   2.821   3.594   2.255  0.1934 -0.0993 -0.8473
 4772TIP3    H135731   2.893   3.648   2.224  2.4012 -0.5481  2.8816
 4772TIP3    H235732   2.859   3.506   2.262 -1.5912 -0.9493 -1.3397
 4773TIP3   OH235733   4.925   2.078  16.709  0.6637  0.0196  0.1444
 4773TIP3    H135734   4.903   2.171  16.717 -0.0991 -0.0075 -1.3058
 4773TIP3    H235735   4.850   2.031  16.744 -0.5160 -0.0392 -2.2372
 4774TIP3   OH235736   3.522   1.718  15.255 -0.1164 -0.1061  0.4291
 4774TIP3    H135737   3.436   1.685  15.281  0.0493  0.3144  1.5688
 4774TIP3    H235738   3.578   1.701  15.331  1.1261 -1.4762 -0.7271
 4775TIP3   OH235739   4.807   3.719   2.894  0.2839  0.0302  0.0359
 4775TIP3    H135740   4.891   3.724   2.848  1.5395 -3.3708  1.5890
 4775TIP3    H235741   4.753   3.661   2.840  0.3629 -0.8124  0.8164
 4776TIP3   OH235742   5.235   1.278   4.693  0.4793  0.0255  0.3353
 4776TIP3    H135743   5.296   1.328   4.748  1.6945 -1.8464  0.7730
 4776TIP3    H235744   5.153   1.278   4.741  0.3856  1.7397  0.2269
 4777TIP3   OH235745   0.290   4.821  16.132  0.2633  0.4911 -0.2126
 4777TIP3    H135746   0.327   4.857  16.213  1.8149  4.0501 -2.2280
 4777TIP3    H235747   0.367   4.795  16.081 -0.6605 -1.2296 -0.7893
 4778TIP3   OH235748   4.097   0.600  12.391 -1.1287 -0.2723  0.6551
 4778TIP3    H135749   4.056   0.660  12.329  1.3130  0.2261 -0.6180
 4778TIP3    H235750   4.165   0.555  12.340  0.4891 -0.3865  2.7508
 4779TIP3   OH235751   6.682   3.041   6.110 -0.0199  0.7140  0.2851
 4779TIP3    H135752   6.757   3.082   6.067 -0.7012  0.6642 -0.9917
 4779TIP3    H235753   6.662   3.098   6.184  0.1281  1.7328 -0.4489
 4780TIP3   OH235754   2.013   4.725  15.405  0.2976 -0.5104  0.2400
 4780TIP3    H135755   1.991   4.818  15.412  0.3325 -0.1722 -2.7470
 4780TIP3    H235756   1.959   4.683  15.472 -1.1539  1.4687  0.4183
 4781TIP3   OH235757   6.566   0.673  13.029 -0.6081  0.8043 -0.5194
 4781TIP3    H135758   6.588   0.718  13.111  0.7947 -0.9376  0.1186
 4781TIP3    H235759   6.600   0.730  12.960 -0.7737  1.7273  0.1350
 4782TIP3   OH235760   1.987   6.451   3.156 -0.0854  0.0345  0.4386
 4782TIP3    H135761   2.022   6.364   3.134 -1.0717 -1.0165  2.7015
 4782TIP3    H235762   1.904   6.432   3.200  0.3961  2.0447  2.3329
 4783TIP3   OH235763   6.110   0.103  10.914 -0.4631 -0.2043 -0.2550
 4783TIP3    H135764   6.138   0.012  10.911  0.9717  0.2391 -2.3846
 4783TIP3    H235765   6.129   0.137  10.826 -1.4281  2.0101  0.3268
 4784TIP3   OH235766   5.015   3.956   0.392 -0.4345 -0.5798 -0.1293
 4784TIP3    H135767   5.099   3.986   0.356 -0.5184  0.2429  0.3226
 4784TIP3    H235768   4.950   4.011   0.349 -0.8329 -1.7752 -1.0907
 4785TIP3   OH235769   4.105   1.562  15.750 -0.0016  0.6647 -0.4812
 4785TIP3    H135770   4.142   1.520  15.827 -1.2182 -0.4447 -0.4553
 4785TIP3    H235771   4.181   1.587  15.697  0.8033 -0.5366  0.0572
 4786TIP3   OH235772   3.798   1.138  12.723  0.1531  0.3806 -0.3390
 4786TIP3    H135773   3.739   1.063  12.731  0.4669  0.0754 -0.9066
 4786TIP3    H235774   3.786   1.186  12.805 -0.2838 -0.1163 -0.1072
 4787TIP3   OH235775   4.527   2.313  16.672  0.4840 -0.0789 -0.6163
 4787TIP3    H135776   4.572   2.305  16.587  0.0110 -2.6494 -0.7014
 4787TIP3    H235777   4.476   2.394  16.664  0.9935  0.1202 -2.5213
 4788TIP3   OH235778   0.546   6.766   6.304 -0.3303  0.8244 -1.0242
 4788TIP3    H135779   0.593   6.846   6.326 -2.1965  2.5145 -2.7586
 4788TIP3    H235780   0.454   6.793   6.299 -1.3619 -1.9458  0.5740
 4789TIP3   OH235781   4.759   3.529  12.992  0.0550  0.1677  0.0729
 4789TIP3    H135782   4.795   3.467  13.055  1.0208  1.1213  0.4981
 4789TIP3    H235783   4.832   3.587  12.971 -0.4044  0.2238 -1.5006
 4790TIP3   OH235784   2.006   0.724   3.394  0.3155 -0.5280  0.4055
 4790TIP3    H135785   2.061   0.647   3.408 -0.0304 -1.3060 -2.0962
 4790TIP3    H235786   1.918   0.689   3.381 -0.3476  0.5281  1.8019
 4791TIP3   OH235787   6.782   5.684  12.472 -0.1076  0.0724  0.0281
 4791TIP3    H135788   6.799   5.733  12.553  0.8572 -0.1579 -0.0223
 4791TIP3    H235789   6.728   5.610  12.500  3.0206 -1.9889  1.1733
 4792TIP3   OH235790   6.394   1.935  16.707  0.3679  0.2373  0.4452
 4792TIP3    H135791   6.332   2.002  16.737  0.7537  1.1738 -0.7688
 4792TIP3    H235792   6.455   1.982  16.651  0.9044 -1.0683 -0.1076
 4793TIP3   OH235793   3.773   5.685   1.393 -0.3311  0.2625 -0.0818
 4793TIP3    H135794   3.841   5.696   1.460 -3.3472  0.1166  3.3258
 4793TIP3    H235795   3.753   5.774   1.365 -0.4721  0.5406  0.8578
 4794TIP3   OH235796   0.158   0.952   1.110  0.3741 -0.0135  0.1941
 4794TIP3    H135797   0.159   0.915   1.199 -1.5864  1.6005  0.9696
 4794TIP3    H235798   0.251   0.967   1.090  0.8618 -0.0974  2.1286
 4795TIP3   OH235799   5.182   3.290   1.253  0.1423 -0.0269 -0.3492
 4795TIP3    H135800   5.235   3.219   1.215 -0.5302 -0.4664 -0.4842
 4795TIP3    H235801   5.230   3.316   1.332  0.0948 -1.0444  0.0317
 4796TIP3   OH235802   3.271   5.874   4.965  0.3356  0.3585  0.1509
 4796TIP3    H135803   3.240   5.899   4.878 -1.1650  0.8569  0.8047
 4796TIP3    H235804   3.203   5.905   5.025  1.4560  0.2336  1.5328
 4797TIP3   OH235805   5.922   2.828   5.982  0.1671  0.1073 -0.2647
 4797TIP3    H135806   5.859   2.886   6.023  0.5175 -0.0907  0.5711
 4797TIP3    H235807   6.006   2.851   6.023  0.4487 -0.4019 -0.5466
 4798TIP3   OH235808   2.585   3.854  12.875  0.0243 -0.0655 -0.1014
 4798TIP3    H135809   2.642   3.923  12.909  0.6346  0.0405 -1.3086
 4798TIP3    H235810   2.507   3.859  12.931 -0.2966  2.1313 -0.6336
 4799TIP3   OH235811   2.447   2.127  15.038 -0.0360 -0.1222  0.8313
 4799TIP3    H135812   2.373   2.176  15.001 -0.1622 -1.8499 -1.4417
 4799TIP3    H235813   2.419   2.105  15.127 -1.9394 -0.0915  0.2943
 4800TIP3   OH235814   6.498   6.662  12.644 -0.0490  0.0428  0.4176
 4800TIP3    H135815   6.494   6.694  12.554  0.3754  0.9540  0.7098
 4800TIP3    H235816   6.447   6.725  12.695 -1.9587 -1.5342  0.5627
 4801TIP3   OH235817   1.175   6.224  11.785  0.0778 -0.1233  0.1379
 4801TIP3    H135818   1.203   6.141  11.745  1.9917  0.0227  1.0671
 4801TIP3    H235819   1.242   6.287  11.757 -0.3359  0.6925  0.9569
 4802TIP3   OH235820   4.058   5.702   3.387  0.0110 -0.6275  0.4884
 4802TIP3    H135821   4.077   5.647   3.463  1.5883 -1.0216 -0.1618
 4802TIP3    H235822   4.124   5.678   3.322  0.2684  1.4861 -0.1029
 4803TIP3   OH235823   4.144   3.098   5.960  0.1436  0.1236 -0.4500
 4803TIP3    H135824   4.143   3.012   5.920  0.8510 -0.7188  1.2618
 4803TIP3    H235825   4.128   3.159   5.887  0.7913 -1.3520 -1.8760
 4804TIP3   OH235826   5.765   3.271  14.304 -0.5242  0.1528  0.0217
 4804TIP3    H135827   5.741   3.206  14.370  3.3609 -0.2796  1.2753
 4804TIP3    H235828   5.760   3.355  14.350  3.0665 -0.2235  1.4006
 4805TIP3   OH235829   1.756   0.275   4.639  0.4408 -0.1949 -0.3501
 4805TIP3    H135830   1.693   0.272   4.567  0.4997  1.0167 -0.4696
 4805TIP3    H235831   1.705   0.306   4.714  0.4828 -1.0151  0.0216
 4806TIP3   OH235832   4.591   3.316   0.370 -0.4770  0.0560 -0.8009
 4806TIP3    H135833   4.641   3.385   0.412 -0.1303  0.8021 -2.3501
 4806TIP3    H235834   4.581   3.345   0.279 -2.8145 -0.5716 -0.8173
 4807TIP3   OH235835   6.509   2.802  14.780  0.2310  0.8881 -0.3258
 4807TIP3    H135836   6.534   2.882  14.826 -0.7423  1.2335 -0.3827
 4807TIP3    H235837   6.586   2.779  14.729  1.7347 -0.0279  2.1320
 4808TIP3   OH235838   3.220   1.030   6.029  0.1931 -0.1665 -0.1542
 4808TIP3    H135839   3.289   0.969   6.053  0.7614 -0.0913 -1.4894
 4808TIP3    H235840   3.233   1.045   5.935 -0.9412  0.7310 -0.1923
 4809TIP3   OH235841   0.407   1.379  13.896 -0.4731 -0.1233 -0.2560
 4809TIP3    H135842   0.462   1.426  13.833 -1.7364  0.4781 -0.9446
 4809TIP3    H235843   0.323   1.368  13.851 -1.0233 -0.7537  0.8821
 4810TIP3   OH235844   4.983   1.911   5.657 -0.1556 -0.5334 -0.3249
 4810TIP3    H135845   5.000   1.993   5.702 -0.3973  0.2175 -1.5501
 4810TIP3    H235846   5.058   1.856   5.679  0.7492  0.5356 -0.6397
 4811TIP3   OH235847   0.061   4.383   3.538  0.5190 -0.3804  0.1459
 4811TIP3    H135848   0.070   4.371   3.443  0.8812 -3.3541  0.4708
 4811TIP3    H235849   0.151   4.394   3.569  0.3627  1.1477  0.1432
 4812TIP3   OH235850   4.984   4.165  16.938 -0.0545  0.1521  0.2533
 4812TIP3    H135851   5.072   4.204  16.944 -0.1644  0.2891  1.2087
 4812TIP3    H235852   4.933   4.228  16.887  0.6108 -0.3425 -1.0687
 4813TIP3   OH235853   4.311   4.844   5.588 -0.3146 -0.6583 -0.2414
 4813TIP3    H135854   4.394   4.798   5.593  1.3576  2.2464  1.2278
 4813TIP3    H235855   4.291   4.868   5.678 -2.8082 -1.2972 -0.5581
 4814TIP3   OH235856   0.911   4.918  13.196 -0.3494  0.1415 -0.2668
 4814TIP3    H135857   0.917   4.823  13.194 -0.3433  0.0342 -4.6011
 4814TIP3    H235858   1.001   4.948  13.183 -0.2318  0.8507  1.8273
 4815TIP3   OH235859   0.300   0.332  13.812 -0.3569  0.1958 -0.0740
 4815TIP3    H135860   0.383   0.376  13.831 -0.3372  0.4223 -0.6445
 4815TIP3    H235861   0.287   0.345  13.717 -0.8626 -0.1455 -0.0582
 4816TIP3   OH235862   2.651   5.348  12.889 -0.0947 -0.6058  0.1512
 4816TIP3    H135863   2.587   5.366  12.820  0.3832  0.1173 -0.1213
 4816TIP3    H235864   2.721   5.300  12.844 -0.2228 -0.9804  0.3463
 4817TIP3   OH235865   0.787   3.979   0.855 -0.2203  0.3256  0.0445
 4817TIP3    H135866   0.779   4.021   0.769 -0.1528  0.5777  0.1582
 4817TIP3    H235867   0.699   3.949   0.875 -0.4014  0.9636  0.2306
 4818TIP3   OH235868   1.725   4.868  16.468  0.2356  0.2488  0.2019
 4818TIP3    H135869   1.706   4.812  16.543 -1.2875 -0.6617 -0.8178
 4818TIP3    H235870   1.639   4.891  16.432  0.8900 -0.9574 -2.4055
 4819TIP3   OH235871   3.937   2.971  14.120  0.0882 -0.2129 -0.0018
 4819TIP3    H135872   3.872   2.975  14.190 -0.0302  0.9150 -0.1669
 4819TIP3    H235873   4.017   3.006  14.159  0.1991 -0.1985 -0.2412
 4820TIP3   OH235874   4.376   6.584   5.313  0.4931  0.3282  0.3470
 4820TIP3    H135875   4.323   6.595   5.392 -1.5700 -0.3619 -0.8315
 4820TIP3    H235876   4.389   6.673   5.280  0.5402  0.5520  0.9668
 4821TIP3   OH235877   4.600   1.487   1.500 -0.4682 -0.3399  0.4383
 4821TIP3    H135878   4.525   1.541   1.526 -1.0924 -1.0861  0.2010
 4821TIP3    H235879   4.591   1.407   1.551  2.0976  0.8781  3.0974
 4822TIP3   OH235880   3.750   2.685  16.202 -0.7328  0.3656  0.1383
 4822TIP3    H135881   3.724   2.649  16.287  0.7052  0.3009  0.5722
 4822TIP3    H235882   3.747   2.609  16.143  0.6615 -0.1461  0.6865
 4823TIP3   OH235883   4.896   6.497   1.092 -0.5390 -0.0013 -0.2910
 4823TIP3    H135884   4.965   6.510   1.157  0.5047  0.9608 -1.5522
 4823TIP3    H235885   4.911   6.409   1.058 -0.2747 -0.0017 -0.1764
 4824TIP3   OH235886   0.609   3.689  13.714 -0.3626 -0.0418  0.2792
 4824TIP3    H135887   0.516   3.664  13.717 -0.2468 -0.4174  1.6010
 4824TIP3    H235888   0.640   3.655  13.630 -1.2750 -0.4469  0.0869
 4825TIP3   OH235889   3.274   1.115   5.766  0.2287  0.1628  0.5152
 4825TIP3    H135890   3.369   1.101   5.763  0.0080 -1.5364  0.2752
 4825TIP3    H235891   3.249   1.128   5.675 -0.0080 -1.5295  0.2991
 4826TIP3   OH235892   5.355   5.424   3.418  0.0138  0.1641  0.1890
 4826TIP3    H135893   5.447   5.426   3.392 -0.3438 -0.5272 -1.2890
 4826TIP3    H235894   5.325   5.514   3.408  0.0793  0.0518 -1.2259
 4827TIP3   OH235895   2.761   1.220  13.603  0.0098 -0.2772  0.0761
 4827TIP3    H135896   2.840   1.178  13.637  0.9741  1.5406  0.2198
 4827TIP3    H235897   2.703   1.228  13.679  0.8614  0.8823  0.6491
 4828TIP3   OH235898   3.824   3.720   6.359  0.4165  0.1535  0.2782
 4828TIP3    H135899   3.778   3.778   6.298 -2.4746 -0.4675  1.6520
 4828TIP3    H235900   3.805   3.632   6.328  1.9344 -0.1443  0.1170
 4829TIP3   OH235901   5.802   6.074   2.874 -0.4017  0.2286  0.3747
 4829TIP3    H135902   5.848   5.994   2.898  0.1800  0.5098  0.2043
 4829TIP3    H235903   5.779   6.115   2.957 -0.8755 -0.2083  0.4650
 4830TIP3   OH235904   5.906   3.659   1.584  0.1916 -0.4640  0.2411
 4830TIP3    H135905   5.958   3.650   1.664  0.3732 -1.9061 -0.0287
 4830TIP3    H235906   5.828   3.708   1.613 -0.5126 -2.3134  1.6944
 4831TIP3   OH235907   4.446   6.341   0.488 -0.1727  0.0628  0.0800
 4831TIP3    H135908   4.489   6.294   0.559  0.7367 -0.7666 -0.9789
 4831TIP3    H235909   4.384   6.400   0.532  1.0773  0.3114  1.5936
 4832TIP3   OH235910   3.549   2.035  11.058  0.2963 -0.6464 -0.3433
 4832TIP3    H135911   3.616   2.101  11.039  0.6576 -0.8407  0.2531
 4832TIP3    H235912   3.473   2.085  11.088  0.3960 -0.4705 -0.3848
 4833TIP3   OH235913   4.112   4.711  14.043 -0.7190 -0.2284 -0.3704
 4833TIP3    H135914   4.058   4.784  14.073  0.0700 -0.2642  1.2776
 4833TIP3    H235915   4.049   4.645  14.013 -1.5506  0.1976  0.3822
 4834TIP3   OH235916   2.412   1.723   1.785 -0.5537  0.4670  0.8538
 4834TIP3    H135917   2.463   1.703   1.863 -1.1023 -1.1837  0.8153
 4834TIP3    H235918   2.466   1.693   1.712 -0.6504  0.7139  0.6782
 4835TIP3   OH235919   4.041   0.055   5.116 -0.1919 -0.2160 -0.5204
 4835TIP3    H135920   4.059   0.115   5.188 -1.3358 -0.0563 -0.3541
 4835TIP3    H235921   4.013  -0.025   5.158 -1.9717  0.2383 -0.7763
 4836TIP3   OH235922   0.024   3.120   4.891 -0.6674 -0.2461  0.5234
 4836TIP3    H135923   0.033   3.185   4.821  1.1601 -1.3707 -0.3888
 4836TIP3    H235924   0.006   3.038   4.845  0.3906 -0.9766  1.3428
 4837TIP3   OH235925   3.188   3.311   2.180 -0.2370  0.1179  0.2685
 4837TIP3    H135926   3.188   3.249   2.107  0.7827  0.4647 -0.0429
 4837TIP3    H235927   3.104   3.296   2.223 -0.9993  0.1129 -1.1431
 4838TIP3   OH235928   0.531   4.656   2.043 -0.4329  0.4210  0.2829
 4838TIP3    H135929   0.447   4.688   2.010 -1.0808  0.2213  1.6656
 4838TIP3    H235930   0.525   4.666   2.138  1.2819  0.7933  0.3779
 4839TIP3   OH235931   2.698   0.759  15.763  0.0159  0.6651  0.1791
 4839TIP3    H135932   2.610   0.796  15.757 -0.6245 -0.8662 -0.2737
 4839TIP3    H235933   2.711   0.716  15.679  1.1472  0.7193  0.3106
 4840TIP3   OH235934   5.788   3.026  12.204  0.0075  0.9184  0.1647
 4840TIP3    H135935   5.830   3.087  12.143  0.6362 -0.0800 -0.4369
 4840TIP3    H235936   5.808   2.939  12.169 -2.0453  0.3669  0.2219
 4841TIP3   OH235937   6.651   1.304   5.638  0.0866  0.4977  0.6230
 4841TIP3    H135938   6.609   1.389   5.650 -0.9421  0.2102 -0.7098
 4841TIP3    H235939   6.591   1.255   5.582  1.2408 -0.6728  0.3561
 4842TIP3   OH235940   3.480   2.393   1.661  0.0988  0.4438 -0.2855
 4842TIP3    H135941   3.434   2.385   1.578 -1.1148  1.3783  0.2580
 4842TIP3    H235942   3.562   2.437   1.640  1.1384 -1.8261 -1.3758
 4843TIP3   OH235943   4.639   2.258   0.708 -0.6193  0.0924 -0.4725
 4843TIP3    H135944   4.558   2.301   0.682 -0.8149  0.5357  0.8227
 4843TIP3    H235945   4.626   2.166   0.683 -0.8642  0.4440 -1.7149
 4844TIP3   OH235946   4.328   3.848   0.065 -0.1009  0.4546  0.2675
 4844TIP3    H135947   4.340   3.774   0.005  0.8262  1.3854 -0.7475
 4844TIP3    H235948   4.401   3.842   0.126  0.9373  1.4473 -0.8390
 4845TIP3   OH235949   3.834   5.450   3.501 -0.0999 -0.5010  0.4962
 4845TIP3    H135950   3.821   5.488   3.414 -1.3954 -1.3512  0.2827
 4845TIP3    H235951   3.919   5.407   3.496  0.6195  0.9005  0.2114
 4846TIP3   OH235952   0.396   5.669   5.892 -0.1524 -0.1468  0.4295
 4846TIP3    H135953   0.360   5.622   5.818 -0.3807  0.4991  0.1260
 4846TIP3    H235954   0.325   5.725   5.922  0.6691  1.3917 -0.3919
 4847TIP3   OH235955   5.372   1.434  17.145  0.6545  0.1461 -0.0368
 4847TIP3    H135956   5.281   1.421  17.118  0.2213 -0.8743  1.7809
 4847TIP3    H235957   5.416   1.464  17.065 -0.7660 -1.5755 -1.5495
 4848TIP3   OH235958   0.724   3.594  16.378 -0.8108  0.3672  0.0482
 4848TIP3    H135959   0.786   3.577  16.448 -0.4110 -1.3010 -0.6746
 4848TIP3    H235960   0.771   3.573  16.298 -1.5628  1.3611 -0.6829
 4849TIP3   OH235961   0.329   6.411   1.230  0.4069 -0.0422 -0.3589
 4849TIP3    H135962   0.292   6.326   1.251  1.2766 -0.1846  0.6948
 4849TIP3    H235963   0.254   6.467   1.214 -0.1750 -0.9734 -0.9340
 4850TIP3   OH235964   1.572   1.688   2.063  0.4460 -0.0082 -0.3146
 4850TIP3    H135965   1.488   1.678   2.019  0.0716  0.1542  0.3393
 4850TIP3    H235966   1.558   1.761   2.123  1.1536  0.2198 -0.4279
 4851TIP3   OH235967   0.436   4.551   5.826  0.1721  0.3221  0.6666
 4851TIP3    H135968   0.381   4.628   5.814  0.7156  0.4231 -1.4354
 4851TIP3    H235969   0.377   4.477   5.813  0.5098  0.4286 -1.8712
 4852TIP3   OH235970   4.045   4.685  14.358  0.3560  0.1632 -0.1086
 4852TIP3    H135971   4.057   4.594  14.330 -1.4111 -1.1304  2.7797
 4852TIP3    H235972   3.958   4.708  14.327  0.1090  0.2103  0.5865
 4853TIP3   OH235973   1.515   0.674  12.533 -0.4351  0.2751 -0.4349
 4853TIP3    H135974   1.608   0.667  12.554 -0.9985 -0.7049  2.1087
 4853TIP3    H235975   1.495   0.593  12.487  0.0059  0.6081 -1.2274
 4854TIP3   OH235976   1.745   5.318  13.940 -0.1701  0.6226  0.4392
 4854TIP3    H135977   1.681   5.253  13.909 -0.7233  1.9565 -1.3977
 4854TIP3    H235978   1.817   5.313  13.878  0.3710  0.9042  1.0286
 4855TIP3   OH235979   6.194   2.453   2.118  0.3628 -0.2063 -0.3533
 4855TIP3    H135980   6.120   2.479   2.063  1.1615  2.1682 -0.4157
 4855TIP3    H235981   6.265   2.513   2.093  1.4716 -0.5937  1.6486
 4856TIP3   OH235982   1.607   0.136   2.610  0.4736 -0.0582  0.0941
 4856TIP3    H135983   1.622   0.043   2.595  0.9003 -0.3032  1.8398
 4856TIP3    H235984   1.689   0.179   2.585  0.8482 -0.3497  0.7892
 4857TIP3   OH235985   3.179   1.425  12.563 -0.1204 -0.6463  0.3582
 4857TIP3    H135986   3.092   1.386  12.553 -1.0199  1.6329 -1.4478
 4857TIP3    H235987   3.223   1.408  12.480 -0.5138  1.9712 -0.4615
 4858TIP3   OH235988   2.908   6.776   3.082 -0.6619  0.4875  0.1060
 4858TIP3    H135989   2.965   6.705   3.111  0.9778  1.3613 -0.8408
 4858TIP3    H235990   2.821   6.736   3.076 -0.2277 -0.8197  1.8123
 4859TIP3   OH235991   3.812   2.557   3.386 -0.4577  0.2203  0.0676
 4859TIP3    H135992   3.748   2.626   3.366  1.2089  1.9769  0.4165
 4859TIP3    H235993   3.897   2.600   3.373  0.6507 -1.7642  0.4403
 4860TIP3   OH235994   4.969   3.254   0.999  0.7071 -0.4587 -0.3383
 4860TIP3    H135995   4.914   3.194   0.948  0.1590 -2.1449  2.0776
 4860TIP3    H235996   5.049   3.205   1.016  0.4920 -0.3433  1.1642
 4861TIP3   OH235997   0.768   1.417   0.089  0.4839 -0.0441 -0.4260
 4861TIP3    H135998   0.692   1.406   0.032 -0.2533  1.5058  0.1995
 4861TIP3    H235999   0.756   1.352   0.159 -0.6314  0.6168  0.0244
 4862TIP3   OH236000   2.479   1.401  11.915  0.0109 -0.2732 -0.3605
 4862TIP3    H136001   2.419   1.461  11.870 -1.2952 -0.5911  0.8932
 4862TIP3    H236002   2.472   1.425  12.007  1.7935 -0.3763 -0.1695
 4863TIP3   OH236003   6.043   2.051  13.099 -0.2596 -0.1760 -0.1527
 4863TIP3    H136004   6.001   1.982  13.049  1.6857 -0.8870 -0.9267
 4863TIP3    H236005   6.059   2.121  13.036 -1.5644  0.7181  0.4648
 4864TIP3   OH236006   3.597   1.140   1.558  1.0783 -0.2376 -0.8685
 4864TIP3    H136007   3.654   1.216   1.547 -0.8974  1.3696 -0.5359
 4864TIP3    H236008   3.510   1.177   1.569 -0.0277 -2.5968 -1.1601
 4865TIP3   OH236009   4.265   6.442   5.006 -0.6798  0.3823 -0.0618
 4865TIP3    H136010   4.278   6.407   4.917  3.6059 -0.2316  0.5784
 4865TIP3    H236011   4.234   6.367   5.057  0.0724 -0.1888 -0.4214
 4866TIP3   OH236012   3.373   1.658  12.416 -0.2220  0.1782  0.0252
 4866TIP3    H136013   3.307   1.683  12.480  0.0520  1.5133 -0.1969
 4866TIP3    H236014   3.351   1.567  12.394 -1.0457  0.0969  1.0900
 4867TIP3   OH236015   3.237   4.674   4.750  0.2028  0.0705  0.2430
 4867TIP3    H136016   3.144   4.674   4.774 -0.7032  0.6015 -2.8086
 4867TIP3    H236017   3.262   4.766   4.753  0.0600  0.1522 -0.7430
 4868TIP3   OH236018   4.428   5.947  16.091  0.0066  0.1135  0.2577
 4868TIP3    H136019   4.419   5.883  16.021  0.5995  0.6573 -0.3352
 4868TIP3    H236020   4.519   5.977  16.084 -0.0946  0.5940  0.8943
 4869TIP3   OH236021   4.905   2.611   6.072 -0.8560 -0.3708  0.3495
 4869TIP3    H136022   4.969   2.682   6.066 -1.2478  0.0865  1.3413
 4869TIP3    H236023   4.957   2.531   6.070 -0.3655 -0.0493 -0.2058
 4870TIP3   OH236024   1.902   1.212   4.065  0.5892  0.5297  0.3095
 4870TIP3    H136025   1.857   1.284   4.020  0.8353 -0.0390 -0.8891
 4870TIP3    H236026   1.845   1.192   4.140 -1.8508 -0.9173 -1.7620
 4871TIP3   OH236027   3.626   0.107  10.852 -0.6183  0.1917  0.3243
 4871TIP3    H136028   3.687   0.045  10.892 -1.4256 -0.4552  0.5760
 4871TIP3    H236029   3.665   0.193  10.869 -0.3068 -0.1450  1.4066
 4872TIP3   OH236030   1.515   1.490   0.433  0.4575 -0.2501  0.0744
 4872TIP3    H136031   1.442   1.433   0.407  0.4135 -0.2016  0.0925
 4872TIP3    H236032   1.581   1.429   0.467  0.8746 -0.4033 -0.9582
 4873TIP3   OH236033   1.009   5.179   1.619 -0.6435 -0.5535 -0.3611
 4873TIP3    H136034   1.103   5.173   1.635 -0.6697  1.4646  1.0709
 4873TIP3    H236035   0.993   5.274   1.613 -2.9102 -0.6701  2.0365
 4874TIP3   OH236036   6.330   0.717   4.471  0.1020  0.2731  0.2069
 4874TIP3    H136037   6.367   0.629   4.478 -1.6850 -0.4537  1.0804
 4874TIP3    H236038   6.339   0.754   4.559 -1.1163  0.1191  0.4075
 4875TIP3   OH236039   4.987   1.103  15.838  0.4625  0.0370 -0.4652
 4875TIP3    H136040   4.939   1.058  15.908  1.1249  1.3363  0.8944
 4875TIP3    H236041   4.940   1.185  15.827  1.7869  0.9314  0.2487
 4876TIP3   OH236042   5.841   5.080  13.642  0.3145 -0.4140 -0.4150
 4876TIP3    H136043   5.771   5.142  13.620  1.6648  0.8225 -1.4691
 4876TIP3    H236044   5.809   4.996  13.610 -0.4393  0.2474 -1.4735
 4877TIP3   OH236045   4.537   6.018  15.345 -0.2119 -0.1465 -0.4652
 4877TIP3    H136046   4.511   5.958  15.415  0.6470 -0.7151 -0.6174
 4877TIP3    H236047   4.601   6.076  15.387 -0.8253  0.4873 -0.3933
 4878TIP3   OH236048   1.265   5.247   5.402 -0.9186 -0.2970  0.0542
 4878TIP3    H136049   1.344   5.294   5.427 -1.5308  1.0049 -0.3238
 4878TIP3    H236050   1.288   5.203   5.320 -0.6840  0.4309 -0.2877
 4879TIP3   OH236051   4.672   5.819   4.734  0.1006  0.0277 -0.2136
 4879TIP3    H136052   4.758   5.784   4.711 -0.4899 -0.5048 -1.7240
 4879TIP3    H236053   4.626   5.744   4.771 -0.2301 -0.0796 -0.8432
 4880TIP3   OH236054   3.515   5.291  14.254 -0.3022 -0.2798  0.1262
 4880TIP3    H136055   3.543   5.200  14.242 -0.8764 -0.4262 -0.1288
 4880TIP3    H236056   3.592   5.343  14.231  0.2620 -0.7137  0.9734
 4881TIP3   OH236057   5.126   6.775  13.992 -0.3107  0.2891 -0.5297
 4881TIP3    H136058   5.214   6.761  13.958 -0.9842 -1.4457 -1.6983
 4881TIP3    H236059   5.086   6.689  13.991 -1.6391  0.8312  1.1747
 4882TIP3   OH236060   2.971   3.938  13.015 -0.8242 -0.1740  0.4610
 4882TIP3    H136061   3.027   4.005  13.054 -0.2765 -0.3566  0.0154
 4882TIP3    H236062   2.897   3.986  12.980  1.1038  0.7396 -2.8089
 4883TIP3   OH236063   2.900   0.211   1.971 -0.0484 -0.1620  0.1715
 4883TIP3    H136064   2.949   0.136   1.937  2.6252  1.1095  0.9085
 4883TIP3    H236065   2.910   0.205   2.066 -1.3592  0.1676  0.3529
 4884TIP3   OH236066   4.152   1.014   4.811 -0.0836  0.3411  0.1326
 4884TIP3    H136067   4.118   0.953   4.875  1.2407 -1.1525 -0.5122
 4884TIP3    H236068   4.246   1.019   4.830  0.3248 -0.0581 -1.5892
 4885TIP3   OH236069   5.148   2.764   1.462  0.0478 -0.1635 -0.2042
 4885TIP3    H136070   5.152   2.848   1.508 -2.4244 -1.0749  1.8860
 4885TIP3    H236071   5.201   2.704   1.515 -0.2114 -0.4856 -0.3025
 4886TIP3   OH236072   6.090   5.045  13.513 -0.2065 -0.3681  0.1555
 4886TIP3    H136073   6.025   5.091  13.566  0.3630  0.5820  0.0467
 4886TIP3    H236074   6.059   4.954  13.511 -1.5171  0.0565  0.1210
 4887TIP3   OH236075   2.785   1.841  14.260  0.0488  0.3934  0.1636
 4887TIP3    H136076   2.802   1.929  14.225 -0.5687 -0.2335 -1.8170
 4887TIP3    H236077   2.812   1.782  14.191 -0.8560 -0.9516  0.9201
 4888TIP3   OH236078   4.407   3.112  17.129 -0.0706  0.2652 -0.2364
 4888TIP3    H136079   4.400   3.031  17.180 -0.1599 -1.0328 -2.1910
 4888TIP3    H236080   4.317   3.142  17.120 -0.1644 -0.0911 -0.5144
 4889TIP3   OH236081   4.561   1.448   2.023  0.0435 -0.5798  0.2621
 4889TIP3    H136082   4.523   1.449   2.111  2.2402  1.7065  1.3044
 4889TIP3    H236083   4.522   1.525   1.980 -1.1459 -1.7797 -0.8957
 4890TIP3   OH236084   6.200   0.642   5.168  0.2990 -0.2066 -0.1723
 4890TIP3    H136085   6.274   0.596   5.129 -0.3288 -1.2259 -0.1855
 4890TIP3    H236086   6.140   0.573   5.195  0.8136  0.3954  2.8675
 4891TIP3   OH236087   1.225   6.468   0.087  0.0745 -0.2975  0.2226
 4891TIP3    H136088   1.306   6.416   0.088  1.2656  1.4315  2.3208
 4891TIP3    H236089   1.160   6.410   0.125  0.2880 -1.6855 -1.3988
 4892TIP3   OH236090   1.253   2.645   5.737  0.2481 -0.0377 -0.3864
 4892TIP3    H136091   1.190   2.608   5.675  0.1897  0.6574 -0.7599
 4892TIP3    H236092   1.203   2.711   5.786  0.4610 -0.1138 -0.0588
 4893TIP3   OH236093   0.380   0.874  15.515  0.0458  0.2637  0.8526
 4893TIP3    H136094   0.376   0.963  15.481 -1.9503 -0.0731  0.0792
 4893TIP3    H236095   0.430   0.882  15.596  2.1065  1.6290 -0.4437
 4894TIP3   OH236096   6.061   6.488  12.272 -0.3573 -0.1969 -0.2735
 4894TIP3    H136097   5.993   6.554  12.285 -1.1153 -1.0521  0.2323
 4894TIP3    H236098   6.137   6.520  12.321  0.4061  1.8691 -2.6294
 4895TIP3   OH236099   2.202   0.831   2.205 -0.7347  0.7517  1.2041
 4895TIP3    H136100   2.194   0.737   2.219  2.3384  0.2310  0.2329
 4895TIP3    H236101   2.182   0.869   2.291 -0.6018 -0.8811  2.0033
 4896TIP3   OH236102   1.135   2.362  16.738  0.3812 -0.2306 -0.1015
 4896TIP3    H136103   1.204   2.331  16.797  0.8083  0.0166 -0.4647
 4896TIP3    H236104   1.164   2.336  16.651  0.7048  1.0566 -0.4100
 4897TIP3   OH236105   4.359   2.587  11.262 -0.0299 -0.2733 -0.2597
 4897TIP3    H136106   4.360   2.683  11.265  0.0856 -0.2927  0.4745
 4897TIP3    H236107   4.346   2.560  11.353  0.2621 -0.9602 -0.4133
 4898TIP3   OH236108   2.024   4.100   5.534  0.0082  0.1867 -0.1936
 4898TIP3    H136109   1.954   4.105   5.598 -0.4094  3.3459 -0.7048
 4898TIP3    H236110   2.022   4.010   5.502 -2.3066 -0.4189  1.4024
 4899TIP3   OH236111   6.232   4.078   2.048  0.0233  0.1334  0.0788
 4899TIP3    H136112   6.202   4.153   2.099 -1.0030 -0.3335  0.1956
 4899TIP3    H236113   6.257   4.013   2.113  1.1894  0.4663 -0.0212
 4900TIP3   OH236114   3.875   2.695   5.831  0.9436 -1.1688 -0.0323
 4900TIP3    H136115   3.969   2.702   5.846  0.9612  1.1375 -0.9265
 4900TIP3    H236116   3.836   2.756   5.893  0.0416 -1.8182  0.0578
 4901TIP3   OH236117   3.471   4.819   2.340 -0.3812 -0.1924 -0.2269
 4901TIP3    H136118   3.529   4.745   2.327  0.5484  0.4501  0.1575
 4901TIP3    H236119   3.485   4.875   2.263  0.7817  0.7751  0.6534
 4902TIP3   OH236120   0.791   5.146  16.404 -0.1127 -0.1809  0.0735
 4902TIP3    H136121   0.787   5.055  16.435  2.5958 -0.4094 -0.0049
 4902TIP3    H236122   0.839   5.193  16.473  0.0658  0.7959 -0.6874
 4903TIP3   OH236123   4.374   1.241  13.692 -0.0501  0.3536  0.5586
 4903TIP3    H136124   4.453   1.266  13.645 -0.6461  1.3628  0.0597
 4903TIP3    H236125   4.356   1.315  13.750 -1.2425  0.6388 -0.1448
 4904TIP3   OH236126   0.896   0.130   3.127 -0.1473 -0.0876  0.2208
 4904TIP3    H136127   0.842   0.147   3.050  0.6095  0.1232 -0.2711
 4904TIP3    H236128   0.840   0.156   3.201 -0.8471 -0.2163 -0.2493
 4905TIP3   OH236129   6.095   2.343  13.041  1.1866  0.0826 -0.5608
 4905TIP3    H136130   6.186   2.372  13.042  1.2634 -0.1401 -1.0559
 4905TIP3    H236131   6.047   2.415  13.083  1.5810  0.2242 -0.3464
 4906TIP3   OH236132   4.685   3.927   3.043 -0.2615 -0.6808  0.0801
 4906TIP3    H136133   4.730   3.872   2.979 -0.6731 -2.0829  0.9370
 4906TIP3    H236134   4.605   3.879   3.064 -1.1343  0.7437  0.1421
 4907TIP3   OH236135   5.643   2.657   0.714 -0.1793  0.4053  0.0935
 4907TIP3    H136136   5.710   2.695   0.770 -1.5329  1.0591  1.3328
 4907TIP3    H236137   5.690   2.631   0.635  1.7955 -0.5889  1.5138
 4908TIP3   OH236138   6.219   1.914   0.158  0.3147  0.4846 -0.5148
 4908TIP3    H136139   6.259   1.879   0.078  0.3613  0.0223 -0.2923
 4908TIP3    H236140   6.277   1.985   0.185  2.1079 -1.4006  0.8814
 4909TIP3   OH236141   1.355   0.996  14.127 -0.0505  0.2769 -0.4843
 4909TIP3    H136142   1.430   0.937  14.117  0.5713  1.0586 -0.6022
 4909TIP3    H236143   1.278   0.939  14.124  0.5716 -0.6482  0.5605
 4910TIP3   OH236144   0.366   5.080   3.414  0.5967 -0.1257  0.4018
 4910TIP3    H136145   0.366   5.041   3.501 -1.0594 -0.8598  0.1203
 4910TIP3    H236146   0.347   5.006   3.355  0.4561  0.5836 -0.4654
 4911TIP3   OH236147   2.089   0.478  16.162 -0.3061  0.3278 -0.2216
 4911TIP3    H136148   2.146   0.429  16.221 -0.1636 -1.4827 -1.7835
 4911TIP3    H236149   2.002   0.441  16.176 -0.9290  2.1452  1.1542
 4912TIP3   OH236150   4.266   2.826   6.561 -0.2542 -0.9870  0.0917
 4912TIP3    H136151   4.211   2.897   6.594 -0.0906 -0.2592 -1.1395
 4912TIP3    H236152   4.237   2.812   6.471  1.9800 -0.0919 -0.8517
 4913TIP3   OH236153   5.010   4.704  17.077  0.2119  0.3576  0.2202
 4913TIP3    H136154   4.985   4.721  17.168  0.6884 -0.6251  0.5569
 4913TIP3    H236155   4.928   4.677  17.035  0.1337  0.0230  0.5761
 4914TIP3   OH236156   6.100   5.454  16.172  0.1144 -0.4524 -0.0675
 4914TIP3    H136157   6.150   5.493  16.244  2.1175 -1.2775 -0.9416
 4914TIP3    H236158   6.149   5.476  16.094 -0.2025 -2.3285 -0.8553
 4915TIP3   OH236159   6.747   3.411  10.732 -0.1436  0.3098  0.0181
 4915TIP3    H136160   6.748   3.317  10.747  0.6462  0.2076 -0.5783
 4915TIP3    H236161   6.664   3.428  10.688 -0.4144 -0.0583  0.3801
 4916TIP3   OH236162   1.358   1.727   0.370 -0.1455  0.5280  0.5771
 4916TIP3    H136163   1.338   1.719   0.277  1.7974  1.4107  0.0302
 4916TIP3    H236164   1.418   1.655   0.388  1.9976  2.1654  0.3237
 4917TIP3   OH236165   6.188   5.323   5.637 -0.0362 -0.1478 -0.4120
 4917TIP3    H136166   6.248   5.371   5.581  0.3913  0.0336  0.1837
 4917TIP3    H236167   6.244   5.282   5.703 -0.3660 -1.6417 -1.0132
 4918TIP3   OH236168   3.999   1.511   1.576 -0.4622  0.0043  0.2904
 4918TIP3    H136169   4.059   1.577   1.541  0.3184 -1.1354 -0.6093
 4918TIP3    H236170   4.047   1.469   1.647  0.0267 -1.1741 -0.6825
 4919TIP3   OH236171   3.871   3.176  13.006 -0.0289  0.2221 -0.0462
 4919TIP3    H136172   3.857   3.204  13.096 -0.7811 -0.3399  0.0226
 4919TIP3    H236173   3.812   3.231  12.954 -0.0492  0.1284 -0.1239
 4920TIP3   OH236174   2.979   3.767   3.523 -0.6258 -0.0766  0.4332
 4920TIP3    H136175   3.048   3.772   3.589 -0.4627  1.2541  0.1889
 4920TIP3    H236176   2.906   3.815   3.561 -0.6293  0.4627 -0.2280
 4921TIP3   OH236177   5.743   2.444   4.283  0.2150  0.5658 -0.0909
 4921TIP3    H136178   5.835   2.419   4.276 -0.4723 -2.1261 -0.6242
 4921TIP3    H236179   5.705   2.425   4.197 -1.1430  0.1311  0.5690
 4922TIP3   OH236180   1.973   3.697   5.019  0.3149 -0.0703 -0.0797
 4922TIP3    H136181   1.967   3.654   4.934  2.1445 -0.1489 -0.2281
 4922TIP3    H236182   1.884   3.701   5.051 -0.5390  0.6621 -2.3365
 4923TIP3   OH236183   2.678   2.906  15.578  0.2571 -0.5774 -0.0123
 4923TIP3    H136184   2.594   2.948  15.597  0.9576  1.4854 -1.2069
 4923TIP3    H236185   2.744   2.964  15.615  1.3098 -0.0493 -2.5054
 4924TIP3   OH236186   5.715   1.446  12.438  0.3186  0.5125  0.3119
 4924TIP3    H136187   5.645   1.391  12.403  3.2989 -2.5696 -1.3961
 4924TIP3    H236188   5.712   1.432  12.533 -0.6447 -0.4836  0.1531
 4925TIP3   OH236189   2.988   5.999   2.875  0.0577  0.1758  0.1066
 4925TIP3    H136190   2.986   5.905   2.892 -0.8832 -0.0457 -1.0452
 4925TIP3    H236191   2.929   6.010   2.800  1.9509  1.3652 -1.2934
 4926TIP3   OH236192   1.061   3.516   2.593 -0.1159  0.3315 -0.6741
 4926TIP3    H136193   1.056   3.536   2.499  0.3163 -0.1646 -0.8091
 4926TIP3    H236194   0.973   3.532   2.626 -0.8771 -1.5788 -1.5965
 4927TIP3   OH236195   1.795   1.378  14.602  0.0701  0.6156  0.1425
 4927TIP3    H136196   1.809   1.393  14.508 -1.0963 -1.8041 -0.4995
 4927TIP3    H236197   1.714   1.425  14.621 -0.4202  0.0149 -0.4127
 4928TIP3   OH236198   1.599   0.777  14.466 -0.3762  0.1141  0.5307
 4928TIP3    H136199   1.533   0.847  14.465  1.0616  1.5735  1.7410
 4928TIP3    H236200   1.578   0.726  14.545 -1.3514 -0.7863 -0.2852
 4929TIP3   OH236201   6.401   4.060   1.842 -0.5789 -0.3440  0.2347
 4929TIP3    H136202   6.341   4.077   1.914 -1.4197 -2.5398  0.1332
 4929TIP3    H236203   6.366   4.109   1.768 -1.5750 -0.6567  0.4931
 4930TIP3   OH236204   5.485   1.148  14.042  0.7275 -0.6599 -0.5603
 4930TIP3    H136205   5.422   1.098  13.991  2.3977 -3.0192 -0.4989
 4930TIP3    H236206   5.511   1.089  14.113 -0.1078  1.8213  1.9642
 4931TIP3   OH236207   2.588   6.147  14.303 -0.3089 -0.2615 -0.0404
 4931TIP3    H136208   2.551   6.098  14.377 -1.3639  3.4532  2.2135
 4931TIP3    H236209   2.682   6.144  14.317 -0.4000 -1.0460  0.4433
 4932TIP3   OH236210   4.348   2.708  14.530  0.4772  0.7337 -0.3398
 4932TIP3    H136211   4.355   2.645  14.601  1.4399  0.9783 -0.2008
 4932TIP3    H236212   4.435   2.747  14.524  0.0829  1.5673 -0.8642
 4933TIP3   OH236213   4.839   3.331  13.153 -0.2005  0.1816  0.7435
 4933TIP3    H136214   4.756   3.330  13.202 -0.1633 -2.9732  0.9528
 4933TIP3    H236215   4.905   3.308  13.218  0.4894  0.2640  0.0825
 4934TIP3   OH236216   5.697   3.476  14.497  0.1211 -0.7740 -0.1585
 4934TIP3    H136217   5.765   3.535  14.531 -1.1547  0.4263  0.3601
 4934TIP3    H236218   5.673   3.422  14.573  1.0420 -1.7756 -0.5467
 4935TIP3   OH236219   0.085   2.552   0.634 -0.4205 -0.2219 -0.1967
 4935TIP3    H136220   0.111   2.555   0.542  1.0632  0.7236  0.2271
 4935TIP3    H236221   0.128   2.474   0.669  1.3667  0.9509  0.3327
 4936TIP3   OH236222   4.885   5.266  11.436 -0.1006 -0.3473  0.4476
 4936TIP3    H136223   4.943   5.197  11.404 -0.3248 -0.9063  1.2264
 4936TIP3    H236224   4.816   5.271  11.371  1.3662  1.1026 -1.1038
 4937TIP3   OH236225   6.240   0.479  15.819  0.1237 -0.2236 -0.3130
 4937TIP3    H136226   6.209   0.511  15.735  1.0811  1.2796 -0.1284
 4937TIP3    H236227   6.193   0.396  15.832 -3.5313  1.6259 -0.2216
 4938TIP3   OH236228   1.269   6.007   0.361  0.1000  0.6026 -0.2243
 4938TIP3    H136229   1.344   5.958   0.329 -0.4505 -0.4741  0.0602
 4938TIP3    H236230   1.199   5.989   0.298 -0.3232  0.3987  0.2930
 4939TIP3   OH236231   6.255   5.125   3.319 -0.4867  0.3112 -0.4368
 4939TIP3    H136232   6.315   5.051   3.331  1.1202  1.3836 -1.3817
 4939TIP3    H236233   6.249   5.166   3.405  1.7566  1.3058 -0.6877
 4940TIP3   OH236234   3.907   1.209   1.948  0.0762  0.1875 -0.0926
 4940TIP3    H136235   3.954   1.141   1.997 -0.3765 -1.1902 -1.5030
 4940TIP3    H236236   3.825   1.168   1.923 -0.6361  1.5962 -0.1946
 4941TIP3   OH236237   2.810   4.208  13.953 -0.0837  0.3562 -0.3959
 4941TIP3    H136238   2.755   4.252  14.018 -1.3229 -0.8901 -0.5549
 4941TIP3    H236239   2.900   4.222  13.984 -0.6552 -0.5451  1.8121
 4942TIP3   OH236240   3.498   1.512   6.020  0.7856 -0.1097  0.2810
 4942TIP3    H136241   3.457   1.503   5.934  3.3149  0.0688 -1.0097
 4942TIP3    H236242   3.483   1.603   6.045 -1.5302 -0.5905  0.9708
 4943TIP3   OH236243   2.439   3.727   1.677 -0.0019 -0.1249 -0.4103
 4943TIP3    H136244   2.454   3.780   1.756 -0.1336 -1.0550  0.2571
 4943TIP3    H236245   2.523   3.687   1.658 -0.2538 -0.8649 -0.0101
 4944TIP3   OH236246   2.264   5.030  15.088  0.4124  0.2847 -0.3155
 4944TIP3    H136247   2.210   5.100  15.050 -0.0927  0.0941  0.0431
 4944TIP3    H236248   2.304   4.987  15.013  0.5202  0.7976 -0.5551
 4945TIP3   OH236249   0.780   3.878   1.152 -0.6090 -0.2304 -0.5698
 4945TIP3    H136250   0.839   3.817   1.197 -2.8086  0.2446  3.3769
 4945TIP3    H236251   0.836   3.951   1.126  1.1508 -1.4923 -0.4858
 4946TIP3   OH236252   3.091   2.237   6.029  0.3610 -0.3038  0.5067
 4946TIP3    H136253   3.154   2.166   6.037  0.1823 -0.6165 -0.6735
 4946TIP3    H236254   3.019   2.200   5.978 -0.3251  0.3494  0.9625
 4947TIP3   OH236255   5.481   2.141  12.964 -0.0920  0.3826  0.7406
 4947TIP3    H136256   5.540   2.082  13.011 -0.4029  0.7891  1.6616
 4947TIP3    H236257   5.435   2.085  12.902  1.6436  0.1423 -0.4018
 4948TIP3   OH236258   0.937   3.239  12.818  1.1275 -0.4324  0.2470
 4948TIP3    H136259   0.988   3.291  12.881  0.5739 -0.1653  0.4807
 4948TIP3    H236260   0.973   3.151  12.825  2.4088 -0.0026 -0.4982
 4949TIP3   OH236261   4.766   2.730  13.699  0.3965 -0.4940  0.2655
 4949TIP3    H136262   4.835   2.702  13.638  1.3668  0.1879  1.0271
 4949TIP3    H236263   4.785   2.822  13.716 -1.5933  0.1317 -0.6534
 4950TIP3   OH236264   0.618   2.900  14.244  0.2136 -0.2285 -0.2844
 4950TIP3    H136265   0.589   2.859  14.326  1.7748 -0.8720 -0.0190
 4950TIP3    H236266   0.662   2.830  14.196  0.7059  0.5311 -0.9731
 4951TIP3   OH236267   5.685   6.092  14.823 -0.5727 -0.4781  0.2807
 4951TIP3    H136268   5.737   6.023  14.783 -1.3079 -0.4996 -0.6621
 4951TIP3    H236269   5.617   6.112  14.759  1.2084  3.0719 -0.7937
 4952TIP3   OH236270   5.048   4.621   2.560 -0.1693  0.2811  0.2240
 4952TIP3    H136271   4.965   4.640   2.515  0.2127  0.9764 -0.1924
 4952TIP3    H236272   5.115   4.636   2.494  0.4729  2.2223  1.2563
 4953TIP3   OH236273   3.158   1.900   1.437 -0.0275 -0.6237  0.1826
 4953TIP3    H136274   3.176   1.927   1.527 -0.9708 -4.7977  1.8253
 4953TIP3    H236275   3.154   1.805   1.440  0.6722 -1.0419 -4.5039
 4954TIP3   OH236276   6.783   2.913   2.980 -0.1753  0.1492  0.2756
 4954TIP3    H136277   6.832   2.857   2.920 -0.1243 -0.2768  0.7111
 4954TIP3    H236278   6.838   2.991   2.990  1.0258 -0.8257  1.7115
 4955TIP3   OH236279   3.451   4.334   1.924  0.1800 -0.1193 -0.0559
 4955TIP3    H136280   3.395   4.327   1.846  0.3871 -1.1854 -0.1212
 4955TIP3    H236281   3.520   4.396   1.898 -1.0307  1.3365  0.0812
 4956TIP3   OH236282   1.601   0.709  13.679  0.5893 -0.0742 -0.0586
 4956TIP3    H136283   1.538   0.767  13.722  1.7869 -0.1417  1.8911
 4956TIP3    H236284   1.553   0.674  13.604 -0.1681  3.4622 -1.4204
 4957TIP3   OH236285   6.641   1.963   0.862  0.0100  0.2521  0.0263
 4957TIP3    H136286   6.664   2.055   0.871 -1.5823  0.7842 -0.9066
 4957TIP3    H236287   6.635   1.949   0.767 -1.6060 -0.2905  0.1780
 4958TIP3   OH236288   5.888   1.401   3.732  0.1188  0.3157 -0.3129
 4958TIP3    H136289   5.816   1.460   3.756  0.3331  0.4959 -0.1109
 4958TIP3    H236290   5.931   1.381   3.815 -1.5482 -2.2547  0.0169
 4959TIP3   OH236291   5.854   1.698   5.597  0.2974 -0.1269  1.4447
 4959TIP3    H136292   5.899   1.672   5.516 -0.8935  4.5165 -1.0841
 4959TIP3    H236293   5.766   1.659   5.589 -0.3987  1.6796 -0.5445
 4960TIP3   OH236294   6.331   4.141   1.007 -0.2358 -0.1581 -0.1988
 4960TIP3    H136295   6.268   4.160   1.076 -0.5966  1.5939 -0.9336
 4960TIP3    H236296   6.416   4.167   1.044 -0.1420 -1.0735  0.2516
 4961TIP3   OH236297   6.688   0.548   2.560 -0.2999 -0.4466 -0.2368
 4961TIP3    H136298   6.615   0.486   2.554  0.3729 -1.2124 -0.6058
 4961TIP3    H236299   6.727   0.548   2.473 -1.0167  1.4292 -0.6216
 4962TIP3   OH236300   5.824   1.126   0.199  0.0780  0.1413 -1.2529
 4962TIP3    H136301   5.899   1.126   0.140  0.7848  1.7991 -0.4398
 4962TIP3    H236302   5.771   1.051   0.172  2.4424 -1.6310 -1.2934
 4963TIP3   OH236303   6.619   4.027   6.244  0.1249 -0.0847  0.3414
 4963TIP3    H136304   6.589   3.945   6.282 -0.4911 -0.6193 -1.2270
 4963TIP3    H236305   6.548   4.089   6.261  0.4748  0.0701  1.2903
 4964TIP3   OH236306   1.269   1.257  15.417  0.1723 -0.0247 -0.2263
 4964TIP3    H136307   1.316   1.296  15.343  1.6440  0.5185  0.9554
 4964TIP3    H236308   1.177   1.258  15.390  0.6699  0.1039 -2.0655
 4965TIP3   OH236309   2.194   2.241   0.800  0.0653 -0.3054  0.4213
 4965TIP3    H136310   2.229   2.178   0.738 -2.0090 -1.6580  0.5371
 4965TIP3    H236311   2.172   2.318   0.747  2.1410  0.1971  0.2032
 4966TIP3   OH236312   0.133   4.753   5.139 -1.1425  0.1263  0.4402
 4966TIP3    H136313   0.198   4.736   5.207 -0.4744  0.1970 -0.1802
 4966TIP3    H236314   0.050   4.760   5.187 -0.8637 -1.0220  1.1192
 4967TIP3   OH236315   0.455   3.778   2.693 -0.5066  0.1869  0.0108
 4967TIP3    H136316   0.398   3.854   2.681  0.2053  1.1699  2.2532
 4967TIP3    H236317   0.415   3.730   2.766  1.4901  0.9378  1.6889
 4968TIP3   OH236318   1.145   1.648  11.801 -0.1012  0.5068  0.3054
 4968TIP3    H136319   1.181   1.693  11.724 -0.0388 -0.4642 -0.2481
 4968TIP3    H236320   1.117   1.719  11.859 -1.0007  1.2641 -1.0151
 4969TIP3   OH236321   6.525   4.537   2.338 -0.2716  0.6164 -0.0857
 4969TIP3    H136322   6.518   4.443   2.354  0.5299  0.6984  0.9048
 4969TIP3    H236323   6.614   4.549   2.304 -0.1112  1.0806  0.4742
 4970TIP3   OH236324   0.420   3.789   3.592  0.1021  0.0218 -0.1402
 4970TIP3    H136325   0.462   3.766   3.509  1.9065 -1.6623  1.1376
 4970TIP3    H236326   0.350   3.724   3.602 -0.0973  0.2076 -0.3207
 4971TIP3   OH236327   3.697   5.494  10.893 -0.0604  0.7313 -0.3987
 4971TIP3    H136328   3.716   5.522  10.804  0.1721 -3.0132 -1.6815
 4971TIP3    H236329   3.775   5.445  10.920 -0.7778  0.4394  1.2734
 4972TIP3   OH236330   2.628   4.977   1.819  0.0707 -0.6322  0.2343
 4972TIP3    H136331   2.560   4.983   1.885  0.1103 -1.9046  0.4173
 4972TIP3    H236332   2.599   4.906   1.761  0.2939  0.1116 -0.8105
 4973TIP3   OH236333   2.877   1.546  11.120 -0.1115  0.0025  0.4887
 4973TIP3    H136334   2.919   1.621  11.162 -0.6869  0.0762  0.9534
 4973TIP3    H236335   2.949   1.492  11.089  0.3155  1.0351 -0.3817
 4974TIP3   OH236336   1.223   3.107  11.654 -0.3138  0.1687 -0.2139
 4974TIP3    H136337   1.189   3.045  11.719 -1.5682  0.2050 -0.8102
 4974TIP3    H236338   1.159   3.179  11.654  0.2613  0.6944 -0.6974
 4975TIP3   OH236339   5.633   6.142  16.013  0.0896  0.0586 -0.2512
 4975TIP3    H136340   5.676   6.213  16.061  0.7816 -0.4984 -0.0381
 4975TIP3    H236341   5.543   6.141  16.047 -0.0753  1.1451 -0.6073
 4976TIP3   OH236342   6.197   0.998   4.584 -0.7090 -0.3722 -0.8579
 4976TIP3    H136343   6.218   0.973   4.494  0.8046 -1.5671 -0.2180
 4976TIP3    H236344   6.272   0.968   4.636 -0.8283  1.6714  0.6046
 4977TIP3   OH236345   1.047   3.593  15.880  0.0093 -0.1607  0.6327
 4977TIP3    H136346   1.052   3.617  15.973 -1.2821 -0.2137  0.7317
 4977TIP3    H236347   1.024   3.675  15.836  1.3671  0.0321  0.2539
 4978TIP3   OH236348   0.771   4.112  11.010  0.4540  0.5684  0.2971
 4978TIP3    H136349   0.721   4.179  10.963 -0.9851 -0.7713 -0.1577
 4978TIP3    H236350   0.829   4.075  10.944 -0.4879 -0.2680 -0.0938
 4979TIP3   OH236351   0.673   4.714  14.361  0.6098 -0.2090  0.1267
 4979TIP3    H136352   0.590   4.700  14.407  0.8142 -0.8883  0.2879
 4979TIP3    H236353   0.667   4.804  14.329  0.0626 -0.0510  0.6569
 4980TIP3   OH236354   0.192   5.778  14.789  0.5520 -0.2977 -0.4783
 4980TIP3    H136355   0.127   5.791  14.858 -0.4918  0.0727 -1.5057
 4980TIP3    H236356   0.266   5.737  14.834  0.3082  0.8373  1.0625
 4981TIP3   OH236357   0.320   0.278   4.928 -0.4283 -0.3687  0.5540
 4981TIP3    H136358   0.309   0.292   5.022 -1.3476  1.0562  0.2585
 4981TIP3    H236359   0.240   0.313   4.889  0.1918 -0.4199 -0.8153
 4982TIP3   OH236360   2.779   1.124   0.647 -0.1018 -0.0851  0.4789
 4982TIP3    H136361   2.706   1.073   0.610  0.8594  0.5108 -2.5085
 4982TIP3    H236362   2.772   1.209   0.604  0.4601  1.1239  2.6760
 4983TIP3   OH236363   1.844   0.748   5.918  0.0502 -0.3296 -0.2270
 4983TIP3    H136364   1.912   0.734   5.852  0.4623 -0.8294  0.2957
 4983TIP3    H236365   1.873   0.825   5.966  0.9610 -1.3187  0.8637
 4984TIP3   OH236366   4.842   3.070  10.920 -0.1227  0.0298 -0.3403
 4984TIP3    H136367   4.914   3.041  10.864  0.1143 -0.0657  0.0086
 4984TIP3    H236368   4.812   3.152  10.880 -0.2228 -0.2428 -0.8365
 4985TIP3   OH236369   4.204   6.488   1.249  0.2370 -0.1636 -0.0544
 4985TIP3    H136370   4.142   6.418   1.232 -1.9312  1.3616  1.0326
 4985TIP3    H236371   4.224   6.524   1.163 -0.3457 -0.7409 -0.4417
 4986TIP3   OH236372   0.243   6.767   5.086  0.0975 -0.1990  0.4756
 4986TIP3    H136373   0.279   6.828   5.150 -0.6738  1.9938 -1.0921
 4986TIP3    H236374   0.150   6.760   5.108  0.3307 -1.5463  1.1618
 4987TIP3   OH236375   3.434   3.651   5.155  0.4083  0.1651  0.3437
 4987TIP3    H136376   3.484   3.639   5.074 -0.9689  0.2567 -0.5762
 4987TIP3    H236377   3.381   3.729   5.138  0.2682  0.3230  1.4395
 4988TIP3   OH236378   2.514   4.220  16.516  0.3174 -0.1654  0.4089
 4988TIP3    H136379   2.437   4.193  16.467  0.9778 -2.1363  0.3501
 4988TIP3    H236380   2.522   4.155  16.586  0.2673  1.7113  2.2456
 4989TIP3   OH236381   6.336   6.014  15.769  0.1135 -0.4451  0.6414
 4989TIP3    H136382   6.336   6.007  15.674 -1.0944  1.9122  0.3819
 4989TIP3    H236383   6.397   6.085  15.788  0.6304 -1.1342  1.6815
 4990TIP3   OH236384   6.161   4.659   2.121  0.0163 -0.1183  0.1784
 4990TIP3    H136385   6.248   4.638   2.087 -0.7676 -3.2777 -0.2552
 4990TIP3    H236386   6.168   4.642   2.215 -0.0159  0.0982  0.2198
 4991TIP3   OH236387   5.676   2.389  16.614  0.2519 -0.3370 -0.4245
 4991TIP3    H136388   5.697   2.439  16.694 -1.7824  3.2153 -1.8690
 4991TIP3    H236389   5.584   2.411  16.596  0.0810 -2.5447 -2.7794
 4992TIP3   OH236390   6.032   2.059   3.565  0.2972 -0.5419  0.0010
 4992TIP3    H136391   6.080   2.029   3.642 -0.0350 -1.0846 -0.0001
 4992TIP3    H236392   5.960   1.996   3.556 -0.5619  0.3959  0.1498
 4993TIP3   OH236393   1.777   2.838  11.970  0.1129 -0.5546 -0.1188
 4993TIP3    H136394   1.844   2.884  12.022  0.1390 -1.3076  0.5301
 4993TIP3    H236395   1.803   2.853  11.879  0.1449  0.6698  0.0731
 4994TIP3   OH236396   6.443   5.483   3.317  0.5223 -0.1821  0.3633
 4994TIP3    H136397   6.348   5.471   3.320  0.6150 -1.5324 -0.9224
 4994TIP3    H236398   6.460   5.517   3.229  1.3507 -1.3847  0.0381
 4995TIP3   OH236399   6.213   3.958  10.239  0.2112 -0.1456  0.7898
 4995TIP3    H136400   6.189   3.867  10.260  0.3254 -0.5869 -0.8295
 4995TIP3    H236401   6.133   3.996  10.203 -0.1953  0.8172  2.5965
 4996TIP3   OH236402   2.441   5.207   0.712 -0.3845 -0.1787 -0.3414
 4996TIP3    H136403   2.422   5.136   0.772  1.0074 -2.0934 -2.0112
 4996TIP3    H236404   2.527   5.240   0.739  0.3564 -1.2047 -1.3315
 4997TIP3   OH236405   0.058   6.090   2.278 -0.1196 -0.2416  0.1789
 4997TIP3    H136406   0.049   6.174   2.232 -0.3396  0.4027  1.3368
 4997TIP3    H236407   0.145   6.095   2.319 -0.8911  0.2742  1.8275
 4998TIP3   OH236408   4.823   1.745  15.834 -0.1562  0.6615 -0.0976
 4998TIP3    H136409   4.903   1.796  15.817  1.1924 -1.5043 -0.5812
 4998TIP3    H236410   4.836   1.708  15.921 -0.1926 -0.4641 -0.5596
 4999TIP3   OH236411   5.802   2.174  11.550  0.3971 -0.9175 -0.4939
 4999TIP3    H136412   5.829   2.218  11.469 -0.0849  0.6381  0.1444
 4999TIP3    H236413   5.877   2.120  11.574  1.6867  0.7449 -0.5301
 5000TIP3   OH236414   2.323   4.563   5.256  0.4735  0.1029 -1.0911
 5000TIP3    H136415   2.270   4.607   5.322 -0.6023  0.2169 -2.0113
 5000TIP3    H236416   2.412   4.566   5.291 -0.1846 -0.6117  0.7651
 5001TIP3   OH236417   3.097   2.365   3.608 -0.2883  0.1992  0.2233
 5001TIP3    H136418   3.106   2.293   3.546 -0.0267 -0.0141  0.5059
 5001TIP3    H236419   3.105   2.444   3.555 -2.2763  0.0476 -0.3506
 5002TIP3   OH236420   0.617   5.524   3.751 -0.1408  0.4526  0.8944
 5002TIP3    H136421   0.650   5.488   3.668 -0.1125  0.3711  0.9413
 5002TIP3    H236422   0.522   5.515   3.745 -0.2293  1.4612  0.3936
 5003TIP3   OH236423   4.019   5.350  16.163  0.3660  0.1391 -0.3555
 5003TIP3    H136424   4.111   5.355  16.139  0.3317  0.8816 -0.3630
 5003TIP3    H236425   4.017   5.367  16.257  0.2056  0.4582 -0.4169
 5004TIP3   OH236426   5.184   0.350   0.466  0.2570 -0.1777 -0.6228
 5004TIP3    H136427   5.210   0.278   0.409  0.8966  0.1868 -0.8095
 5004TIP3    H236428   5.265   0.375   0.511  0.1303  0.6699 -0.8424
 5005TIP3   OH236429   6.539   4.953  11.502  0.0831 -0.1224  0.2510
 5005TIP3    H136430   6.504   4.865  11.494 -0.1180  0.0012 -0.2584
 5005TIP3    H236431   6.477   5.008  11.455  1.6478 -0.0600 -1.8777
 5006TIP3   OH236432   1.747   3.375   2.607  0.1822 -0.1354 -0.6091
 5006TIP3    H136433   1.727   3.415   2.691  0.7267 -0.1998 -0.4434
 5006TIP3    H236434   1.668   3.326   2.584 -0.1782  0.3436 -0.4100
 5007TIP3   OH236435   4.281   4.755  13.705 -0.2141  0.3948 -0.2718
 5007TIP3    H136436   4.215   4.822  13.687  0.3410  1.3666  1.1146
 5007TIP3    H236437   4.232   4.672  13.704 -1.4783  1.0921  0.7065
 5008TIP3   OH236438   1.525   1.988  15.093  0.4493  0.1406  0.1688
 5008TIP3    H136439   1.488   1.977  15.005 -0.8449  0.1333  0.6799
 5008TIP3    H236440   1.592   2.056  15.083  0.4760 -0.0236 -0.8602
 5009TIP3   OH236441   2.479   1.489   4.010  0.4561  0.1760  0.4224
 5009TIP3    H136442   2.449   1.423   4.072 -0.3371 -0.5624 -0.7291
 5009TIP3    H236443   2.401   1.513   3.961  0.9185  1.3238  0.2164
 5010TIP3   OH236444   1.318   3.803  15.212  0.7698  0.7049  0.0634
 5010TIP3    H136445   1.412   3.790  15.205  0.6402 -0.0352 -0.3612
 5010TIP3    H236446   1.293   3.846  15.130  0.8087  1.3452  0.3822
 5011TIP3   OH236447   2.050   4.403   4.854  0.1764 -0.2764  0.0715
 5011TIP3    H136448   2.059   4.326   4.909 -1.0734  1.1270  2.3622
 5011TIP3    H236449   2.140   4.424   4.827  0.8992 -0.7815  1.9463
 5012TIP3   OH236450   5.945   6.113  12.593  0.1408 -0.4950  0.1603
 5012TIP3    H136451   5.939   6.108  12.498  2.1628  0.4165 -0.0709
 5012TIP3    H236452   5.992   6.195  12.609 -1.6295  0.2319  2.0273
 5013TIP3   OH236453   4.907   4.624   0.612  0.1648 -0.3666  0.7676
 5013TIP3    H136454   4.856   4.695   0.650  0.0919  0.5321 -0.9078
 5013TIP3    H236455   4.916   4.647   0.520  1.2167 -1.9157  0.4309
 5014TIP3   OH236456   0.408   0.634   1.055 -0.2959 -0.4408 -0.0351
 5014TIP3    H136457   0.480   0.646   1.118 -0.2000 -1.4727  0.0802
 5014TIP3    H236458   0.361   0.557   1.088 -0.2730 -0.9677 -1.2047
 5015TIP3   OH236459   2.605   6.535   5.047 -0.4535 -0.6874  0.6396
 5015TIP3    H136460   2.532   6.539   5.109 -0.1738  1.7028  0.8872
 5015TIP3    H236461   2.678   6.501   5.098 -0.0183  1.9947  1.9198
 5016TIP3   OH236462   3.186   2.885   4.088 -0.1914 -0.1167  0.3345
 5016TIP3    H136463   3.114   2.824   4.107 -1.0210  1.3256  2.0643
 5016TIP3    H236464   3.146   2.971   4.090  1.3953  0.6583  0.2671
 5017TIP3   OH236465   3.670   2.343  11.157 -0.1892  0.3512 -0.0648
 5017TIP3    H136466   3.708   2.317  11.073 -1.8660  1.2411 -1.1516
 5017TIP3    H236467   3.576   2.352  11.139 -0.6746  0.0808  2.0360
 5018TIP3   OH236468   1.502   1.419  15.674  0.9491 -0.5000 -0.1612
 5018TIP3    H136469   1.497   1.510  15.647  0.8307 -0.5205 -0.2104
 5018TIP3    H236470   1.416   1.382  15.651  0.7176 -0.4294  0.5616
 5019TIP3   OH236471   1.122   4.237  17.037 -0.2390 -0.9742 -0.2092
 5019TIP3    H136472   1.030   4.246  17.016 -0.1419  1.0637  0.0384
 5019TIP3    H236473   1.165   4.219  16.953 -0.6071  0.4315 -0.7136
 5020TIP3   OH236474   3.571   0.337  15.029 -0.0547 -0.2726 -0.0314
 5020TIP3    H136475   3.519   0.318  15.106  0.6677  0.4771  0.6608
 5020TIP3    H236476   3.524   0.408  14.985 -1.5199 -1.9956 -1.3781
 5021TIP3   OH236477   3.777   2.989   6.395  0.3233 -0.1932  0.1535
 5021TIP3    H136478   3.766   2.898   6.421 -0.5326 -0.4008 -0.8586
 5021TIP3    H236479   3.871   2.999   6.382  0.5422 -0.6317  1.2819
 5022TIP3   OH236480   6.273   1.134   0.664  0.3927 -0.7319 -0.0571
 5022TIP3    H136481   6.234   1.142   0.577  2.9866 -1.2364 -1.3714
 5022TIP3    H236482   6.293   1.224   0.690 -0.1214 -0.6016 -0.1019
 5023TIP3   OH236483   0.594   5.513   4.258 -0.2381  0.1612 -0.1394
 5023TIP3    H136484   0.543   5.591   4.239  1.0772  0.4626 -3.0517
 5023TIP3    H236485   0.546   5.442   4.215 -0.1502 -0.2042  0.3595
 5024TIP3   OH236486   5.285   5.255  13.152 -0.3445  0.2502  0.2427
 5024TIP3    H136487   5.222   5.186  13.131  1.1978 -0.6692 -1.6705
 5024TIP3    H236488   5.308   5.294  13.068  2.3502 -0.1063  0.7274
 5025TIP3   OH236489   1.321   5.860   4.009 -0.2019  0.3135  0.4383
 5025TIP3    H136490   1.319   5.773   4.049  3.9453 -0.2050  0.0219
 5025TIP3    H236491   1.284   5.847   3.922 -0.4835 -0.8420  0.7128
 5026TIP3   OH236492   3.940   1.336  14.640  1.0282  0.0127  0.0826
 5026TIP3    H136493   3.918   1.249  14.606  1.5575 -0.2993  0.5215
 5026TIP3    H236494   3.887   1.396  14.588 -0.6841 -0.6917  0.9178
 5027TIP3   OH236495   6.777   2.063   2.575  0.5490  0.9155 -1.2072
 5027TIP3    H136496   6.742   2.016   2.500 -1.8094  0.0611  0.3187
 5027TIP3    H236497   6.846   2.006   2.609 -1.0388 -0.6502 -0.4676
 5028TIP3   OH236498   5.907   3.568  11.052  0.5184  0.1637  0.0048
 5028TIP3    H136499   5.986   3.522  11.025 -0.3450 -0.1588 -2.1760
 5028TIP3    H236500   5.843   3.547  10.984 -0.7887  2.1787  0.5416
 5029TIP3   OH236501   6.006   2.211   4.978 -0.1725  0.3291  0.3986
 5029TIP3    H136502   5.919   2.175   4.994  0.4751 -1.0575  0.9548
 5029TIP3    H236503   6.018   2.203   4.883 -0.6319  0.5076  0.3229
 5030TIP3   OH236504   1.942   3.784   1.773 -0.6503  0.0694 -0.0047
 5030TIP3    H136505   1.951   3.689   1.781 -0.9537  0.0156 -0.3014
 5030TIP3    H236506   1.870   3.806   1.831 -0.0105  0.2356  0.7462
 5031TIP3   OH236507   0.297   3.387   5.887 -0.3613 -0.0795  0.1592
 5031TIP3    H136508   0.333   3.473   5.906  0.3995 -0.7559  1.9322
 5031TIP3    H236509   0.205   3.393   5.914 -0.7821  0.6507 -1.3158
 5032TIP3   OH236510   1.019   6.573  14.201  0.2940 -0.0669  0.3842
 5032TIP3    H136511   1.014   6.667  14.221 -0.3931 -0.2782  1.2695
 5032TIP3    H236512   0.927   6.546  14.191  0.4733 -0.7080  0.4420
 5033TIP3   OH236513   3.359   0.697  16.496  0.0689 -0.1415 -0.0512
 5033TIP3    H136514   3.435   0.746  16.464 -0.2266  1.2198  1.2590
 5033TIP3    H236515   3.375   0.687  16.590 -2.3353  2.0647  0.6976
 5034TIP3   OH236516   6.160   3.449  12.786 -0.5699 -0.2826  0.0641
 5034TIP3    H136517   6.169   3.486  12.874 -0.3042 -1.5729  0.6113
 5034TIP3    H236518   6.162   3.354  12.800  0.5675 -0.5199 -1.4382
 5035TIP3   OH236519   0.482   6.182   4.835  0.4371 -0.0951 -0.4728
 5035TIP3    H136520   0.574   6.180   4.862 -0.1003 -0.3007  1.4267
 5035TIP3    H236521   0.464   6.275   4.819  1.2831 -0.1695 -2.1490
 5036TIP3   OH236522   0.102   4.468  16.808  0.1538 -0.8036 -0.0050
 5036TIP3    H136523   0.190   4.461  16.770  0.8320 -1.0117  1.5404
 5036TIP3    H236524   0.108   4.544  16.866 -0.3806 -1.4113  0.8661
 5037TIP3   OH236525   6.637   4.957   4.035  0.1797  0.3035 -0.4166
 5037TIP3    H136526   6.714   4.902   4.019  1.1256  1.4511  0.0181
 5037TIP3    H236527   6.665   5.017   4.104 -0.5135  1.9130 -1.4835
 5038TIP3   OH236528   2.687   0.180   1.693 -0.1437 -0.0423  0.0193
 5038TIP3    H136529   2.703   0.091   1.662 -0.9094 -0.3362  0.4509
 5038TIP3    H236530   2.711   0.236   1.619  0.7504 -0.5722 -0.1113
 5039TIP3   OH236531   2.110   1.074   1.410 -0.0946 -0.3474 -0.2425
 5039TIP3    H136532   2.051   1.143   1.379 -1.2124 -1.1698 -0.0199
 5039TIP3    H236533   2.057   1.025   1.474  1.0444 -0.7411  0.4189
 5040TIP3   OH236534   6.067   4.733  14.703 -0.3552 -0.5853 -0.5272
 5040TIP3    H136535   6.062   4.731  14.607  0.7811 -1.7253 -0.5943
 5040TIP3    H236536   6.139   4.793  14.722 -0.9151  0.0404 -0.3585
 5041TIP3   OH236537   3.241   6.456  13.043  0.0905  0.2773  0.3001
 5041TIP3    H136538   3.236   6.547  13.013 -0.0877  0.6639  1.4476
 5041TIP3    H236539   3.171   6.448  13.107 -0.1728 -0.8057 -0.1005
 5042TIP3   OH236540   0.265   6.104  16.236 -0.2826  0.0194 -0.1885
 5042TIP3    H136541   0.274   6.062  16.322 -0.4191  2.7215  1.2598
 5042TIP3    H236542   0.278   6.033  16.173 -0.0962 -2.0559  2.0439
 5043TIP3   OH236543   2.848   6.377   5.963 -0.0996  0.1792 -0.2770
 5043TIP3    H136544   2.803   6.418   6.037  0.8867  1.3588 -0.3140
 5043TIP3    H236545   2.883   6.295   5.999 -1.9298 -0.6043 -0.1603
 5044TIP3   OH236546   3.924   4.885  13.477 -0.0955 -0.5343  0.5626
 5044TIP3    H136547   3.965   4.823  13.417  0.0724 -0.6883  0.8368
 5044TIP3    H236548   3.897   4.958  13.421  2.8161  0.7761  0.6766
 5045TIP3   OH236549   0.845   2.544  13.777 -0.0383  0.0177  0.1388
 5045TIP3    H136550   0.923   2.596  13.756  0.2955  0.2247  1.7049
 5045TIP3    H236551   0.796   2.599  13.839 -0.3037 -1.0061  0.8673
 5046TIP3   OH236552   6.660   1.648   5.324 -0.5759  0.5036 -0.0869
 5046TIP3    H136553   6.731   1.611   5.377 -1.5125 -1.3896 -0.0644
 5046TIP3    H236554   6.628   1.722   5.375 -0.0424  0.0396  0.9526
 5047TIP3   OH236555   3.207   2.933   0.719 -0.4678  0.0294  0.3112
 5047TIP3    H136556   3.252   3.005   0.764 -0.6421  0.8988 -0.8780
 5047TIP3    H236557   3.278   2.872   0.695 -0.1109  0.5945 -0.0977
 5048TIP3   OH236558   2.570   0.187   2.226 -0.1701 -0.6428 -0.2116
 5048TIP3    H136559   2.593   0.275   2.197 -0.3665 -0.8660 -1.0545
 5048TIP3    H236560   2.611   0.179   2.313  2.1252 -0.6803 -1.2373
 5049TIP3   OH236561   3.244   4.689  10.711  0.2501 -0.2373 -0.3177
 5049TIP3    H136562   3.229   4.774  10.752  2.8994 -0.3111  1.0484
 5049TIP3    H236563   3.305   4.708  10.639  0.6522 -0.9026 -0.1621
 5050TIP3   OH236564   4.333   1.204   2.845  0.2293 -0.0890  0.6729
 5050TIP3    H136565   4.351   1.146   2.920 -1.3626 -0.7100  0.6098
 5050TIP3    H236566   4.383   1.166   2.773  0.4650 -0.4460  1.0202
 5051TIP3   OH236567   6.695   6.351   1.624  1.0426  0.9013  0.4180
 5051TIP3    H136568   6.651   6.293   1.686  3.6810 -0.6776  0.9591
 5051TIP3    H236569   6.644   6.341   1.543  0.4823 -0.9646  0.9430
 5052TIP3   OH236570   3.063   1.903  13.263  0.1124 -0.2058  0.3017
 5052TIP3    H136571   3.130   1.870  13.203 -0.1522 -0.5381  0.1878
 5052TIP3    H236572   2.980   1.873  13.226 -0.0276 -0.7674  1.0569
 5053TIP3   OH236573   6.075   4.824   3.803  0.7734  0.8888 -0.1698
 5053TIP3    H136574   6.117   4.845   3.720  2.6106  2.3041  1.0423
 5053TIP3    H236575   6.111   4.739   3.828  0.5759  0.6795 -0.5967
 5054TIP3   OH236576   6.481   2.741  12.031 -0.1694 -0.0855 -0.1202
 5054TIP3    H136577   6.390   2.756  12.056 -0.6694  1.5859 -2.5701
 5054TIP3    H236578   6.529   2.818  12.062  0.2591 -0.5231  0.3407
 5055TIP3   OH236579   4.318   3.781  13.326  0.6082  0.5913  0.1965
 5055TIP3    H136580   4.228   3.791  13.297  0.6414  1.3007  0.3392
 5055TIP3    H236581   4.328   3.844  13.397  1.3411  0.8171 -0.0991
 5056TIP3   OH236582   2.896   6.570  17.106  0.4848 -0.3231 -0.5236
 5056TIP3    H136583   2.880   6.497  17.166  0.0510 -0.4261 -0.7573
 5056TIP3    H236584   2.878   6.534  17.019  2.4588 -0.5779 -0.8746
 5057TIP3   OH236585   4.072   3.571   2.417  0.3021 -0.1474 -0.4533
 5057TIP3    H136586   4.090   3.595   2.508  0.7352  2.1243 -1.0534
 5057TIP3    H236587   4.150   3.599   2.369 -0.1111 -0.8723 -1.5855
 5058TIP3   OH236588   0.764   6.443   2.465  0.4121  0.4141 -0.2034
 5058TIP3    H136589   0.796   6.416   2.552  1.9094  2.2263 -0.1259
 5058TIP3    H236590   0.669   6.441   2.473  0.5157 -0.1496  1.2541
 5059TIP3   OH236591   0.846   5.267   2.266 -0.6842 -0.3841 -0.5260
 5059TIP3    H136592   0.824   5.274   2.359 -1.7375  0.8214 -0.8245
 5059TIP3    H236593   0.814   5.349   2.229 -0.6485 -1.0292 -2.0301
 5060TIP3   OH236594   5.161   6.422  10.788 -0.3935 -0.4579 -0.2998
 5060TIP3    H136595   5.155   6.516  10.807  0.2699 -0.2026 -1.2764
 5060TIP3    H236596   5.220   6.388  10.856 -1.7828 -0.4674  0.9550
 5061TIP3   OH236597   4.611   3.721  11.218 -0.4459  0.1995  0.1829
 5061TIP3    H136598   4.538   3.781  11.230  0.8041  2.3239 -1.8418
 5061TIP3    H236599   4.675   3.749  11.283 -1.0896 -1.1212  1.4096
 5062TIP3   OH236600   6.239   4.964   0.103  0.5604 -0.6134  0.3211
 5062TIP3    H136601   6.156   4.977   0.149  0.5747 -0.0976  0.2029
 5062TIP3    H236602   6.296   5.032   0.137  0.6316 -0.3472 -0.3197
 5063TIP3   OH236603   4.577   4.829  16.148  0.1042  0.7280  0.5299
 5063TIP3    H136604   4.658   4.788  16.118 -1.0400 -1.7916  0.6518
 5063TIP3    H236605   4.588   4.838  16.243 -0.0702 -0.4080  0.6670
 5064TIP3   OH236606   1.631   3.564   5.398  0.7958 -0.0560  0.0544
 5064TIP3    H136607   1.552   3.518   5.427 -0.1740  1.7353  0.4507
 5064TIP3    H236608   1.598   3.648   5.364  2.2617 -0.4769 -2.6514
 5065TIP3   OH236609   5.896   3.177   3.327 -0.0770  0.4951 -0.3826
 5065TIP3    H136610   5.932   3.134   3.249  0.2674 -0.1618  0.1203
 5065TIP3    H236611   5.904   3.111   3.396 -0.2241  1.1245  0.2488
 5066TIP3   OH236612   4.122   3.007   4.824 -0.3235  0.5226 -0.4017
 5066TIP3    H136613   4.148   3.073   4.761  1.2517  0.1801 -0.1524
 5066TIP3    H236614   4.143   3.045   4.909 -0.5281  0.1752 -0.1925
 5067TIP3   OH236615   4.997   0.183  12.766  0.3431  0.0192 -0.3531
 5067TIP3    H136616   4.902   0.195  12.769  0.5561  2.3038 -1.2303
 5067TIP3    H236617   5.028   0.217  12.850  0.4648  0.1077 -0.4341
 5068TIP3   OH236618   0.687   2.569   3.192 -0.3305 -0.3111  1.1122
 5068TIP3    H136619   0.762   2.626   3.210 -0.3977  0.3090 -0.3908
 5068TIP3    H236620   0.624   2.625   3.147 -0.7131 -1.3899  0.2456
 5069TIP3   OH236621   6.016   0.991  11.690 -0.0702 -0.5969 -0.8004
 5069TIP3    H136622   6.003   0.897  11.677  0.1497 -0.8871  0.8870
 5069TIP3    H236623   6.010   1.004  11.785  1.0860  0.9113 -0.8895
 5070TIP3   OH236624   0.639   6.614   0.084  0.3675 -0.4803  0.8578
 5070TIP3    H136625   0.606   6.650   0.002  1.7306 -2.2316 -0.5448
 5070TIP3    H236626   0.719   6.664   0.102  1.8428 -2.1794 -0.6792
 5071TIP3   OH236627   3.688   5.762   4.905 -0.1446  0.3740 -0.6362
 5071TIP3    H136628   3.775   5.779   4.869 -0.0471  0.1497 -0.5123
 5071TIP3    H236629   3.660   5.846   4.940  0.0854  0.4177 -0.5521
 5072TIP3   OH236630   4.898   3.983  13.896  0.1125 -0.3758 -0.2111
 5072TIP3    H136631   4.976   3.961  13.845  0.7177  1.0611  0.0411
 5072TIP3    H236632   4.841   4.030  13.835  0.6213  0.9065  0.2687
 5073TIP3   OH236633   0.665   1.531   1.775  0.5336 -0.5563 -0.3850
 5073TIP3    H136634   0.594   1.594   1.778  0.8156 -0.2542  0.0005
 5073TIP3    H236635   0.624   1.450   1.744  0.1649 -0.1963 -0.8478
 5074TIP3   OH236636   2.146   4.199   5.852  0.2537 -0.0122  0.6034
 5074TIP3    H136637   2.071   4.168   5.903 -0.4632  0.3180 -0.2307
 5074TIP3    H236638   2.112   4.275   5.803  1.2420  0.3980  0.5329
 5075TIP3   OH236639   0.213   5.324  12.718 -0.2149 -0.5314  0.3387
 5075TIP3    H136640   0.192   5.265  12.646  0.4859 -1.0688  0.5683
 5075TIP3    H236641   0.306   5.344  12.708 -0.3677  0.2957  0.4429
 5076TIP3   OH236642   1.451   1.358   4.296 -0.2080 -0.1073 -0.5742
 5076TIP3    H136643   1.445   1.367   4.201 -0.1991  0.2084 -0.5446
 5076TIP3    H236644   1.544   1.367   4.315 -0.3669  1.3252 -0.3870
 5077TIP3   OH236645   1.930   3.014  12.128 -0.3981  0.7986  0.4984
 5077TIP3    H136646   2.017   2.975  12.137 -1.0670 -1.2501 -1.1487
 5077TIP3    H236647   1.939   3.076  12.055 -0.0838  1.4153  1.0502
 5078TIP3   OH236648   5.367   5.842  16.974 -0.1610  0.3125 -0.4862
 5078TIP3    H136649   5.460   5.845  16.951  0.2752  1.0972  1.2403
 5078TIP3    H236650   5.326   5.911  16.922  0.5105  1.0400 -0.0473
 5079TIP3   OH236651   1.965   3.638   2.038 -0.1076 -0.1131  0.2026
 5079TIP3    H136652   2.060   3.634   2.025  0.0791 -0.6961  1.6271
 5079TIP3    H236653   1.953   3.707   2.104 -0.6182 -0.4868  0.5037
 5080TIP3   OH236654   0.252   5.907  11.546  0.3872  0.0157 -0.3779
 5080TIP3    H136655   0.317   5.849  11.586  1.4573  1.2191 -0.3382
 5080TIP3    H236656   0.297   5.943  11.469 -1.2528 -1.4224 -2.1138
 5081TIP3   OH236657   1.188   4.304  11.796 -0.1875  0.6798  0.5741
 5081TIP3    H136658   1.183   4.261  11.881  1.1284  0.4835  0.5708
 5081TIP3    H236659   1.263   4.263  11.753 -0.4071  1.2762 -0.4006
 5082TIP3   OH236660   3.396   6.770  14.299  0.1331  0.2923 -0.1673
 5082TIP3    H136661   3.369   6.709  14.368  1.4520 -0.2909 -0.1395
 5082TIP3    H236662   3.323   6.832  14.292  0.3501  0.9372  2.4060
 5083TIP3   OH236663   2.712   4.126   5.570  0.3990 -0.3618  0.0663
 5083TIP3    H136664   2.764   4.205   5.561 -0.6673  0.6156  1.8161
 5083TIP3    H236665   2.624   4.152   5.541  0.0650 -0.8999  0.5605
 5084TIP3   OH236666   4.249   2.681  15.066  0.0690 -0.4304 -0.0897
 5084TIP3    H136667   4.283   2.599  15.030 -1.8947 -2.3289  1.9491
 5084TIP3    H236668   4.164   2.693  15.023 -0.1092 -0.0342  0.3593
 5085TIP3   OH236669   3.714   4.313  14.302  0.1283  0.2863  0.3507
 5085TIP3    H136670   3.689   4.272  14.219 -0.6307  1.9010 -0.2685
 5085TIP3    H236671   3.634   4.310  14.355  0.2063  0.5279  0.4840
 5086TIP3   OH236672   6.115   0.982  14.777 -0.8026 -0.0348  0.0288
 5086TIP3    H136673   6.209   0.971  14.762 -0.8110 -0.7808  0.4654
 5086TIP3    H236674   6.091   1.058  14.724  0.1280  0.4379  0.2544
 5087TIP3   OH236675   1.695   6.020   4.927  0.3796  0.0572 -1.2703
 5087TIP3    H136676   1.775   5.977   4.897  0.7749 -0.2713  0.1536
 5087TIP3    H236677   1.724   6.106   4.958  0.5949 -0.7910  1.1118
 5088TIP3   OH236678   6.736   0.783  16.122 -0.4541 -0.0063  0.0449
 5088TIP3    H136679   6.785   0.837  16.060 -0.1364 -1.0950 -0.6799
 5088TIP3    H236680   6.645   0.788  16.092 -1.0825  2.8304  1.9751
 5089TIP3   OH236681   4.279   1.228   0.805  0.0310  0.0953 -0.2337
 5089TIP3    H136682   4.220   1.154   0.790  0.7199 -0.6329  0.4841
 5089TIP3    H236683   4.348   1.192   0.861 -0.0019  1.4853  0.7582
 5090TIP3   OH236684   4.734   6.344   3.946 -0.3183  0.2197  0.0334
 5090TIP3    H136685   4.738   6.381   3.858 -1.8532  0.8512  0.2092
 5090TIP3    H236686   4.641   6.335   3.965 -0.0081 -0.3338  1.4268
 5091TIP3   OH236687   1.634   5.662  11.748  0.2055 -0.8471 -0.2687
 5091TIP3    H136688   1.602   5.747  11.776  1.7440 -0.1544 -0.5236
 5091TIP3    H236689   1.571   5.599  11.783 -0.6567  0.3510  0.3703
 5092TIP3   OH236690   3.036   6.757   5.185  0.4557  0.4067  0.0483
 5092TIP3    H136691   3.063   6.845   5.161 -2.6901  1.7281  0.8092
 5092TIP3    H236692   3.034   6.758   5.281 -0.3336 -0.2404  0.0491
 5093TIP3   OH236693   2.492   6.326   0.026 -0.0493  0.5357 -0.6856
 5093TIP3    H136694   2.486   6.290   0.115 -0.4889  2.7960  0.2464
 5093TIP3    H236695   2.451   6.259  -0.029  0.1395 -0.8756  0.7948
 5094TIP3   OH236696   1.808   1.089  13.056 -0.1896 -0.0545 -0.4863
 5094TIP3    H136697   1.873   1.061  13.121  0.3805 -0.1183 -1.0648
 5094TIP3    H236698   1.731   1.034  13.073 -0.6312  1.0155  1.1356
 5095TIP3   OH236699   2.647   0.425  13.215 -0.2345 -0.3281 -0.2741
 5095TIP3    H136700   2.598   0.449  13.294  1.7033  1.3669  0.4988
 5095TIP3    H236701   2.680   0.508  13.182  1.0373 -1.2687 -1.4714
 5096TIP3   OH236702   2.809   1.368   4.466 -0.2012  0.0493  0.3877
 5096TIP3    H136703   2.904   1.374   4.476 -0.2748  2.2165  0.3328
 5096TIP3    H236704   2.790   1.275   4.475  2.1397 -0.7453 -1.6245
 5097TIP3   OH236705   3.534   1.576   4.587 -0.2535 -0.0758  0.1226
 5097TIP3    H136706   3.457   1.626   4.614 -0.8051 -1.0156  0.3456
 5097TIP3    H236707   3.594   1.582   4.662 -0.2307  0.3994  0.0707
 5098TIP3   OH236708   4.933   3.843  14.583 -0.3486  0.3449  0.0612
 5098TIP3    H136709   4.955   3.800  14.501 -0.4161  1.1450 -0.3892
 5098TIP3    H236710   4.838   3.854  14.580 -0.5494 -0.9141  0.9080
 5099TIP3   OH236711   0.603   5.180   5.208 -0.8668  0.3098  0.2224
 5099TIP3    H136712   0.589   5.220   5.293  1.8995  0.7066  0.5840
 5099TIP3    H236713   0.515   5.174   5.169 -2.5174 -1.6739  3.8023
 5100TIP3   OH236714   6.692   0.397  17.119  0.2873  0.4731 -0.3562
 5100TIP3    H136715   6.702   0.306  17.093 -2.5980 -0.3028  0.8824
 5100TIP3    H236716   6.767   0.442  17.079  1.2675 -2.2327 -1.7921
 5101TIP3   OH236717   1.614   4.092  11.255  0.1301  0.1507 -0.9853
 5101TIP3    H136718   1.547   4.159  11.249  0.2044  0.1834 -1.5569
 5101TIP3    H236719   1.692   4.133  11.217  0.3711 -0.0137 -0.6752
 5102TIP3   OH236720   5.183   5.538  16.794 -0.1033  0.0316 -0.2358
 5102TIP3    H136721   5.175   5.470  16.860  2.1658  0.3872  0.4913
 5102TIP3    H236722   5.155   5.496  16.713 -1.9076 -0.7350  0.7328
 5103TIP3   OH236723   3.504   4.829  10.822  0.5265  0.0712 -0.6769
 5103TIP3    H136724   3.495   4.773  10.746 -1.2614  0.6844 -0.9499
 5103TIP3    H236725   3.503   4.918  10.787 -1.5909  0.4105  0.1221
 5104TIP3   OH236726   4.092   5.653  13.218 -0.2205 -0.4710 -0.3349
 5104TIP3    H136727   4.085   5.744  13.189  1.6282  0.1163  0.8585
 5104TIP3    H236728   4.070   5.602  13.141 -1.2857  0.9748 -1.0407
 5105TIP3   OH236729   4.909   1.158   5.966  0.7255  0.1810  0.0423
 5105TIP3    H136730   4.820   1.163   6.001  0.1795  0.0941 -1.2900
 5105TIP3    H236731   4.965   1.181   6.040 -0.2860 -1.4337  1.3922
 5106TIP3   OH236732   6.370   0.797   4.744  0.2622  0.2112 -0.6936
 5106TIP3    H136733   6.446   0.805   4.802 -0.4855 -2.5076  0.8817
 5106TIP3    H236734   6.296   0.823   4.798 -0.4080 -2.0279 -0.4116
 5107TIP3   OH236735   0.971   0.708   1.137 -0.1495  0.0238  0.1754
 5107TIP3    H136736   0.989   0.621   1.174  0.3194 -0.2986 -0.7858
 5107TIP3    H236737   1.014   0.707   1.052  1.5357  1.9054  0.9335
 5108TIP3   OH236738   1.052   3.018  13.836 -0.5717  0.6932  0.2677
 5108TIP3    H136739   0.966   3.057  13.855 -0.6937 -0.1083  1.4654
 5108TIP3    H236740   1.107   3.092  13.812 -1.4297  1.3009  0.1220
 5109TIP3   OH236741   4.515   3.269   5.506 -0.9329  0.0786 -0.3695
 5109TIP3    H136742   4.591   3.309   5.464 -0.7169 -2.0069 -2.1135
 5109TIP3    H236743   4.513   3.308   5.594  1.4901  0.9953 -0.6576
 5110TIP3   OH236744   1.537   5.328   0.786  0.8618  0.3528  0.5054
 5110TIP3    H136745   1.600   5.269   0.746  0.6066 -0.8984  1.8565
 5110TIP3    H236746   1.571   5.416   0.769  2.5898 -0.2715  0.6013
 5111TIP3   OH236747   4.305   0.922   4.008  0.1654 -0.2347 -0.0600
 5111TIP3    H136748   4.297   1.017   4.008 -1.4960 -0.3242  1.0343
 5111TIP3    H236749   4.367   0.903   4.079  0.2218  0.0291 -0.0386
 5112TIP3   OH236750   4.135   5.335   5.237 -0.1744 -0.2313 -0.3473
 5112TIP3    H136751   4.079   5.413   5.241 -1.3821 -0.6173 -4.6861
 5112TIP3    H236752   4.081   5.265   5.274 -0.5128  0.2742  0.1453
 5113TIP3   OH236753   0.547   4.144   4.016  0.1630 -0.4725  0.3452
 5113TIP3    H136754   0.491   4.198   3.961  0.5925 -1.3133 -0.9567
 5113TIP3    H236755   0.520   4.054   3.997  1.1221 -0.8310  0.6162
 5114TIP3   OH236756   0.731   6.304   5.166  0.4186 -0.1937 -0.4967
 5114TIP3    H136757   0.718   6.209   5.168  2.1704 -0.5019 -1.3834
 5114TIP3    H236758   0.768   6.321   5.080  2.4750  0.9033  0.5144
 5115TIP3   OH236759   1.237   1.894   6.888 -0.0950 -0.0075 -0.2730
 5115TIP3    H136760   1.249   1.801   6.869  0.0693 -0.0075 -0.1627
 5115TIP3    H236761   1.324   1.932   6.882 -0.0454  0.0009  0.4536
 5116TIP3   OH236762   5.080   1.542   2.270  0.0250  0.3009 -0.0566
 5116TIP3    H136763   5.094   1.539   2.176  1.3953  2.5302  0.0128
 5116TIP3    H236764   5.160   1.581   2.306 -1.1661  1.1864  1.8266
 5117TIP3   OH236765   3.990   3.895  16.896 -0.5330 -0.3046 -0.1046
 5117TIP3    H136766   3.985   3.815  16.949  1.3906 -0.9823 -0.8668
 5117TIP3    H236767   3.972   3.966  16.958 -1.4860 -1.2594  0.7505
 5118TIP3   OH236768   0.289   6.186   0.967 -0.5049 -0.1380  0.6980
 5118TIP3    H136769   0.257   6.181   0.877  0.9854 -0.6579  0.1651
 5118TIP3    H236770   0.221   6.234   1.014 -1.4520 -0.1176 -0.6321
 5119TIP3   OH236771   6.089   5.613  12.199 -0.1425  0.3231  0.2319
 5119TIP3    H136772   6.034   5.560  12.142 -1.3740  0.5095  1.1976
 5119TIP3    H236773   6.155   5.651  12.141  0.6447 -2.0218 -0.5263
 5120TIP3   OH236774   4.090   0.277  13.284  0.0574  0.0810 -0.5544
 5120TIP3    H136775   4.067   0.226  13.361 -0.2660 -0.4520 -0.9938
 5120TIP3    H236776   4.118   0.362  13.318 -1.1283  0.2296  0.0895
 5121TIP3   OH236777   4.832   1.064   4.635  0.7977  0.5720  0.9327
 5121TIP3    H136778   4.796   1.034   4.719  1.6277  0.5654  1.2969
 5121TIP3    H236779   4.766   1.125   4.601  0.0088 -0.1619  1.1260
 5122TIP3   OH236780   0.945   0.011   4.540  0.0897  0.0687 -0.2370
 5122TIP3    H136781   1.021   0.061   4.511  0.3899  0.1333  0.6273
 5122TIP3    H236782   0.981  -0.073   4.570 -0.3500 -0.4737 -1.1658
 5123TIP3   OH236783   0.242   5.501  15.410  0.2572  0.3306  0.6773
 5123TIP3    H136784   0.161   5.515  15.362  0.8804  0.8004 -0.2790
 5123TIP3    H236785   0.307   5.482  15.342  1.6433  3.1136  1.0865
 5124TIP3   OH236786   2.244   5.405   4.171  0.2687 -0.2769  0.0314
 5124TIP3    H136787   2.265   5.434   4.083 -1.1265  1.0819  0.1030
 5124TIP3    H236788   2.325   5.368   4.205  1.2572  0.6754 -1.2424
 5125TIP3   OH236789   3.035   4.358  15.788 -0.3018 -0.0485  0.2861
 5125TIP3    H136790   3.117   4.405  15.797 -1.7270  3.0303 -1.3987
 5125TIP3    H236791   3.059   4.266  15.798  2.7685  0.8765  3.1740
 5126TIP3   OH236792   3.876   0.778  16.597  0.1180 -0.1037 -0.3566
 5126TIP3    H136793   3.857   0.870  16.614 -0.1455  0.1531 -1.8670
 5126TIP3    H236794   3.929   0.780  16.517  1.7929 -1.1533  0.6562
 5127TIP3   OH236795   2.423   5.580   2.364 -0.3750  0.6087  0.3245
 5127TIP3    H136796   2.502   5.571   2.417 -0.7815  0.4588  0.9121
 5127TIP3    H236797   2.361   5.626   2.420 -0.4696  1.3816 -0.3939
 5128TIP3   OH236798   6.064   1.475  13.186 -0.1367 -0.2997  0.2924
 5128TIP3    H136799   6.154   1.473  13.156 -0.1030 -1.1545  0.4281
 5128TIP3    H236800   6.070   1.461  13.281 -0.4752 -1.7169  0.1257
 5129TIP3   OH236801   2.420   2.128  15.609  0.3507 -0.0334  0.0386
 5129TIP3    H136802   2.514   2.109  15.611 -0.1395 -3.7725 -2.4870
 5129TIP3    H236803   2.390   2.114  15.698  2.1061  1.2430  0.8924
 5130TIP3   OH236804   5.883   0.584   1.881 -0.1952  0.8060  0.7872
 5130TIP3    H136805   5.820   0.541   1.939  0.7184 -0.4957  0.8597
 5130TIP3    H236806   5.879   0.533   1.800  0.8118  0.6450  0.8254
 5131TIP3   OH236807   2.067   1.630  14.281 -0.8015  0.2510 -0.2319
 5131TIP3    H136808   2.130   1.561  14.259 -0.1786  0.7130  0.0807
 5131TIP3    H236809   2.042   1.667  14.197 -0.5111  0.1917 -0.3445
 5132TIP3   OH236810   0.985   1.625   5.343 -0.4536  0.0262  0.1577
 5132TIP3    H136811   0.918   1.565   5.374  0.7368 -1.4211  0.0518
 5132TIP3    H236812   1.001   1.684   5.417 -2.3917  0.9427 -0.1058
 5133TIP3   OH236813   0.855   4.337   4.575 -0.3399 -0.1016 -0.1526
 5133TIP3    H136814   0.761   4.353   4.583 -0.4329 -1.1172  0.9848
 5133TIP3    H236815   0.870   4.255   4.621  1.1473  0.1638 -0.1011
 5134TIP3   OH236816   1.611   2.573   1.062 -0.2773  0.1143  0.3374
 5134TIP3    H136817   1.627   2.666   1.048 -0.8362  0.0662 -0.7264
 5134TIP3    H236818   1.694   2.531   1.040 -0.9353  0.1008 -2.4836
 5135TIP3   OH236819   2.220   0.763  13.669 -0.1123  1.0832 -0.6236
 5135TIP3    H136820   2.290   0.827  13.680  0.3845  0.2104  1.9127
 5135TIP3    H236821   2.163   0.776  13.744 -1.3340  0.1314 -1.3437
 5136TIP3   OH236822   1.536   2.792   1.590 -0.6926  0.0166 -0.5934
 5136TIP3    H136823   1.471   2.798   1.660 -2.3303  1.5472 -2.1396
 5136TIP3    H236824   1.546   2.882   1.559  1.0052 -0.4293 -1.4520
 5137TIP3   OH236825   4.405   1.309   4.987 -0.2636  0.0848  0.1497
 5137TIP3    H136826   4.483   1.294   4.934  0.8208 -0.9656  1.9370
 5137TIP3    H236827   4.359   1.380   4.943  0.7104 -0.5294 -1.9995
 5138TIP3   OH236828   6.097   1.648  11.491 -0.5396  0.0944 -0.2245
 5138TIP3    H136829   6.110   1.638  11.585 -2.5548  0.8370  0.1673
 5138TIP3    H236830   6.136   1.733  11.470  3.1399 -1.5060 -0.8274
 5139TIP3   OH236831   0.346   5.290  16.724  0.5374 -0.0441 -0.1344
 5139TIP3    H136832   0.432   5.314  16.760 -0.3585  0.0080  2.0993
 5139TIP3    H236833   0.352   5.196  16.711  1.2707  0.1075 -0.9989
 5140TIP3   OH236834   1.801   4.721   1.180  0.1415 -0.3658 -0.1500
 5140TIP3    H136835   1.814   4.810   1.145  0.3974 -0.4382 -0.2343
 5140TIP3    H236836   1.818   4.730   1.273  0.1955 -0.3314 -0.1627
 5141TIP3   OH236837   4.387   3.978   4.642  0.5530  0.4540 -0.0851
 5141TIP3    H136838   4.422   4.058   4.602 -1.4875  1.6163  0.3330
 5141TIP3    H236839   4.323   4.009   4.706 -0.0948 -1.5245  0.2944
 5142TIP3   OH236840   6.478   5.525  13.937 -0.6351 -0.0509  0.5818
 5142TIP3    H136841   6.539   5.550  14.006 -1.1821  2.1239  0.3353
 5142TIP3    H236842   6.463   5.431  13.951  1.6392 -0.3322  1.4901
 5143TIP3   OH236843   2.319   5.529   1.388 -0.6020 -0.2869  0.2190
 5143TIP3    H136844   2.383   5.592   1.420  0.2316 -0.8255 -0.3419
 5143TIP3    H236845   2.258   5.517   1.461 -2.5381  3.3381 -0.5727
 5144TIP3   OH236846   2.019   4.932   0.084  0.7066  0.3773  0.0148
 5144TIP3    H136847   2.111   4.933   0.110  0.8453 -0.7148 -0.3852
 5144TIP3    H236848   2.015   4.874   0.008 -0.4660 -0.5323  0.7104
 5145TIP3   OH236849   5.296   3.609  10.611 -0.1503 -0.2605  0.0808
 5145TIP3    H136850   5.280   3.684  10.669 -0.9729 -0.5385  0.2197
 5145TIP3    H236851   5.391   3.595  10.616  0.1280  1.2376 -0.5350
 5146TIP3   OH236852   2.121   2.506  11.247 -0.0570  0.6908 -0.2115
 5146TIP3    H136853   2.094   2.507  11.156 -1.7076  0.1172  0.2332
 5146TIP3    H236854   2.101   2.417  11.277 -0.5269  1.1697  0.9682
 5147TIP3   OH236855   1.826   2.064   1.966 -0.0115 -0.1692  0.1896
 5147TIP3    H136856   1.775   2.073   2.046 -1.3014 -0.4481 -0.5740
 5147TIP3    H236857   1.814   1.972   1.939  0.4505 -0.0960 -0.2977
 5148TIP3   OH236858   1.422   2.673   2.441 -0.1065  0.2818  0.1734
 5148TIP3    H136859   1.403   2.659   2.349  0.3387  0.7005  0.0144
 5148TIP3    H236860   1.371   2.751   2.464  0.0197  0.3563  0.2021
 5149TIP3   OH236861   2.037   2.040   1.794 -0.1082  0.0279 -0.4678
 5149TIP3    H136862   1.966   2.077   1.847 -1.1655  0.4810 -2.1167
 5149TIP3    H236863   2.067   1.963   1.843 -0.6866  0.7127  1.0056
 5150TIP3   OH236864   6.384   2.380  12.612  0.3617 -0.0166 -0.0937
 5150TIP3    H136865   6.294   2.411  12.603  0.7458  0.5877 -2.7230
 5150TIP3    H236866   6.380   2.315  12.683 -1.6114  1.7372  1.5419
 5151TIP3   OH236867   4.543   0.846  13.516 -0.6137 -0.2002  0.3031
 5151TIP3    H136868   4.539   0.821  13.424 -2.4547  2.6524 -0.5218
 5151TIP3    H236869   4.454   0.875  13.537  0.2371  1.1558  2.3820
 5152TIP3   OH236870   2.662   2.767  12.446 -0.1210  0.4333  0.6948
 5152TIP3    H136871   2.747   2.763  12.491  0.9436 -0.4459 -1.2506
 5152TIP3    H236872   2.669   2.845  12.391 -1.0632  1.0253  1.4029
 5153TIP3   OH236873   5.682   1.806  15.894  0.0404  0.3590  0.2097
 5153TIP3    H136874   5.771   1.823  15.924  0.0492  2.4387 -0.8525
 5153TIP3    H236875   5.693   1.772  15.805 -0.2151  3.5281 -1.1596
 5154TIP3   OH236876   1.327   0.979   0.868  0.2227  0.4482 -0.0420
 5154TIP3    H136877   1.373   0.895   0.869  1.3840  1.0760  0.3252
 5154TIP3    H236878   1.235   0.955   0.880  0.7581 -0.6546  2.5040
 5155TIP3   OH236879   2.857   6.232   4.611 -0.5236  0.1056  0.1209
 5155TIP3    H136880   2.803   6.310   4.599  0.6630  1.3072  2.1647
 5155TIP3    H236881   2.940   6.253   4.569 -0.7980 -0.8773 -1.0150
 5156TIP3   OH236882   2.762   6.779  10.972 -0.2338 -0.0929 -0.5113
 5156TIP3    H136883   2.789   6.766  10.881 -3.4245  1.8521 -1.9215
 5156TIP3    H236884   2.677   6.736  10.978 -1.8103  2.8312  0.3431
 5157TIP3   OH236885   3.976   3.472  11.093 -0.3663 -0.1773  0.1478
 5157TIP3    H136886   3.960   3.566  11.082 -1.3505 -0.2856  0.6193
 5157TIP3    H236887   3.890   3.432  11.092  0.1249 -1.3723 -2.3761
 5158TIP3   OH236888   6.180   5.368   1.647 -0.3064 -0.6482 -0.2090
 5158TIP3    H136889   6.088   5.389   1.635  0.0769  1.4598  0.1269
 5158TIP3    H236890   6.212   5.433   1.709  1.2354 -1.8397  0.3089
 5159TIP3   OH236891   1.656   3.471  16.061  0.9075 -0.7687  0.6721
 5159TIP3    H136892   1.699   3.387  16.073  1.2702 -1.1782 -2.6566
 5159TIP3    H236893   1.676   3.496  15.971  0.7356  2.8751  1.4805
 5160TIP3   OH236894   3.794   5.119   2.106  0.7340  0.0174 -0.4562
 5160TIP3    H136895   3.774   5.195   2.161 -1.4339 -0.7615 -0.0583
 5160TIP3    H236896   3.867   5.076   2.150 -0.2935 -0.0233  1.3086
 5161TIP3   OH236897   0.868   2.169  11.216 -0.1648  0.1529  0.0329
 5161TIP3    H136898   0.943   2.163  11.157  1.4695  0.4944  1.9353
 5161TIP3    H236899   0.839   2.079  11.228 -0.7165  0.1059 -1.4664
 5162TIP3   OH236900   3.918   4.427  14.705 -0.4986 -0.1235  0.2521
 5162TIP3    H136901   3.986   4.441  14.639 -0.8733 -0.4658 -0.2158
 5162TIP3    H236902   3.836   4.434  14.657 -0.8162  0.8294  0.9208
 5163TIP3   OH236903   0.791   0.234   4.424 -0.5359 -0.4397 -0.2116
 5163TIP3    H136904   0.710   0.224   4.474 -1.8794 -0.4679 -2.2640
 5163TIP3    H236905   0.847   0.164   4.455 -1.5370 -0.8183  0.8126
 5164TIP3   OH236906   6.224   4.184   3.325  0.2250  0.5907 -0.0184
 5164TIP3    H136907   6.192   4.148   3.242  1.9743 -0.5432 -0.2509
 5164TIP3    H236908   6.300   4.236   3.301  1.5615 -0.8231  0.9536
 5165TIP3   OH236909   4.549   1.972   3.073 -0.6516 -0.2805  0.1287
 5165TIP3    H136910   4.498   2.049   3.097 -2.0896 -1.3562  0.7002
 5165TIP3    H236911   4.507   1.900   3.121  1.9026 -1.1197  1.2394
 5166TIP3   OH236912   0.831   5.947  11.458  0.6443 -0.7517 -0.0882
 5166TIP3    H136913   0.853   5.971  11.368 -1.4981 -0.6998 -0.6770
 5166TIP3    H236914   0.862   6.021  11.511 -0.2421  0.4077 -1.1115
 5167TIP3   OH236915   4.192   0.658   6.584 -0.2177 -0.3785 -0.2873
 5167TIP3    H136916   4.197   0.562   6.585  0.4397 -0.3467 -0.0077
 5167TIP3    H236917   4.268   0.686   6.635 -1.3821  0.2640  1.1812
 5168TIP3   OH236918   5.547   4.923  12.581  0.1914 -0.2353 -0.1681
 5168TIP3    H136919   5.472   4.977  12.559  1.5240  1.0028 -1.9887
 5168TIP3    H236920   5.618   4.957  12.526  1.5766 -2.6383 -0.0073
 5169TIP3   OH236921   0.619   4.756   4.269  0.0354 -0.2872  0.4210
 5169TIP3    H136922   0.642   4.706   4.190  0.5997  0.6446 -0.0192
 5169TIP3    H236923   0.699   4.753   4.322  0.2806  0.6591  0.1150
 5170TIP3   OH236924   3.141   1.077   1.624 -0.0545 -0.5012  0.4721
 5170TIP3    H136925   3.162   0.984   1.611 -0.3986 -0.7780  1.7396
 5170TIP3    H236926   3.152   1.116   1.538 -0.0991 -1.7616 -0.1331
 5171TIP3   OH236927   3.296   1.686   3.978  0.2362 -0.1451 -0.1558
 5171TIP3    H136928   3.221   1.694   3.919 -1.2181 -3.1023  1.1027
 5171TIP3    H236929   3.297   1.768   4.028 -1.3341  0.4748 -1.1027
 5172TIP3   OH236930   5.412   4.025   3.073 -0.3855 -0.3405  0.1659
 5172TIP3    H136931   5.386   3.955   3.132  1.3536  0.2356  1.7286
 5172TIP3    H236932   5.502   4.002   3.048 -0.0864  0.8994  0.0525
 5173TIP3   OH236933   6.114   5.050   5.189  0.3093 -0.0294 -0.0599
 5173TIP3    H136934   6.167   5.128   5.172  1.1881 -0.5428  0.2924
 5173TIP3    H236935   6.045   5.053   5.122  1.0158  0.4214 -0.7777
 5174TIP3   OH236936   2.094   3.550  15.207  0.1143  0.3020  0.0534
 5174TIP3    H136937   2.137   3.499  15.276  1.0309 -0.0325 -0.7427
 5174TIP3    H236938   2.023   3.596  15.252  0.4651 -0.1909  1.1470
 5175TIP3   OH236939   4.939   3.478  16.240 -0.5942 -0.4492 -0.5789
 5175TIP3    H136940   4.847   3.494  16.262  0.0027 -0.5589  2.4314
 5175TIP3    H236941   4.962   3.399  16.289  1.4357  0.3309 -0.1575
 5176TIP3   OH236942   5.543   3.017  12.414 -0.1212 -0.8550 -0.2567
 5176TIP3    H136943   5.550   3.077  12.488 -1.5814  0.5479 -1.1796
 5176TIP3    H236944   5.632   3.009  12.381  0.1573  0.6518  0.0435
 5177TIP3   OH236945   0.340   4.199   5.591 -0.7338 -0.1081  0.4534
 5177TIP3    H136946   0.287   4.277   5.607  1.6049  1.4409  1.0374
 5177TIP3    H236947   0.419   4.213   5.643  0.1104 -2.5153 -0.0871
 5178TIP3   OH236948   1.770   1.962   4.758  0.2668  0.0109 -0.2465
 5178TIP3    H136949   1.751   1.881   4.806 -1.7390  0.3368 -0.4172
 5178TIP3    H236950   1.779   2.029   4.826 -3.5143  0.6666 -0.1665
 5179TIP3   OH236951   2.569   3.285  12.536 -0.0066  0.3213  0.0086
 5179TIP3    H136952   2.581   3.195  12.507 -3.5819 -0.2258 -0.2144
 5179TIP3    H236953   2.587   3.338  12.459  2.0235 -0.1113  0.1129
 5180TIP3   OH236954   1.181   6.566   5.159  0.5282  0.0496  0.5079
 5180TIP3    H136955   1.158   6.492   5.103  2.6769  1.1112 -1.9872
 5180TIP3    H236956   1.133   6.640   5.121  0.7064  0.4723  1.1010
 5181TIP3   OH236957   3.012   6.309  12.797 -0.6414 -0.2230  0.0275
 5181TIP3    H136958   3.096   6.297  12.751  0.1390  0.2612  1.2773
 5181TIP3    H236959   2.992   6.222  12.832 -1.0091 -0.4902 -0.8269
 5182TIP3   OH236960   5.987   6.001   3.187 -0.1818  0.2900  0.1558
 5182TIP3    H136961   5.925   5.948   3.136  0.0501  0.9676 -0.8612
 5182TIP3    H236962   5.964   6.092   3.165  1.1946  0.5490 -0.2665
 5183TIP3   OH236963   0.671   0.805   1.038 -0.0517 -0.3246 -0.2402
 5183TIP3    H136964   0.618   0.799   1.118  0.0827  0.2793 -0.1017
 5183TIP3    H236965   0.759   0.824   1.070  0.3470 -1.7419 -0.4426
 5184TIP3   OH236966   2.887   5.722   4.788 -0.2226 -0.0632 -0.2202
 5184TIP3    H136967   2.891   5.722   4.884 -1.3406 -0.2690 -0.1543
 5184TIP3    H236968   2.963   5.671   4.761  0.6310  0.7853  0.5199
 5185TIP3   OH236969   4.738   3.666   3.492 -0.4734  0.1477 -0.2463
 5185TIP3    H136970   4.736   3.759   3.469 -3.7432  0.3201  0.2415
 5185TIP3    H236971   4.691   3.622   3.420 -2.5884 -0.5100  1.4332
 5186TIP3   OH236972   1.098   2.619   1.599 -0.8165 -0.1132 -0.4205
 5186TIP3    H136973   1.063   2.708   1.605  1.1337  0.6575  0.5917
 5186TIP3    H236974   1.046   2.577   1.531 -2.1875  1.6035 -0.5076
 5187TIP3   OH236975   0.345   3.980   2.090 -0.0745 -0.0080 -0.6619
 5187TIP3    H136976   0.250   3.990   2.084 -0.0385 -0.3127 -2.2549
 5187TIP3    H236977   0.380   4.065   2.065  0.0793  0.1729  0.1482
 5188TIP3   OH236978   0.678   4.067   2.525 -0.2179  0.3302  0.0196
 5188TIP3    H136979   0.742   4.131   2.556 -0.2803  0.2367  0.3391
 5188TIP3    H236980   0.594   4.112   2.533 -0.3085  0.0424  0.6790
 5189TIP3   OH236981   0.129   2.880   1.120  0.3669  0.7047  0.2293
 5189TIP3    H136982   0.207   2.828   1.140 -0.0032 -0.0654 -0.2804
 5189TIP3    H236983   0.063   2.815   1.097  0.1689  1.4368 -1.3680
 5190TIP3   OH236984   1.782   1.859  14.912 -0.9744 -0.1443  0.2622
 5190TIP3    H136985   1.785   1.952  14.889 -1.4023 -0.3334 -0.5794
 5190TIP3    H236986   1.775   1.814  14.828 -2.0094 -0.8829  0.7331
 5191TIP3   OH236987   3.584   1.176  15.223 -0.1898 -0.2714 -0.7051
 5191TIP3    H136988   3.562   1.104  15.165  0.0599 -0.6465 -0.3433
 5191TIP3    H236989   3.512   1.239  15.212 -0.8969 -0.9947 -0.3264
 5192TIP3   OH236990   4.455   6.497  11.519  0.6315  0.9238 -0.2223
 5192TIP3    H136991   4.513   6.566  11.486 -0.0650  1.6208  0.0093
 5192TIP3    H236992   4.376   6.542  11.548  0.6934  0.1797  1.1930
 5193TIP3   OH236993   0.646   5.093  13.525  0.5999  0.0038 -0.3279
 5193TIP3    H136994   0.582   5.021  13.522  0.0041  0.4382  1.1297
 5193TIP3    H236995   0.663   5.113  13.433 -0.4438 -0.9373 -0.7507
 5194TIP3   OH236996   4.221   2.094   1.866 -0.5023 -0.1801  0.3568
 5194TIP3    H136997   4.184   2.139   1.790 -1.6174 -0.3952  0.7641
 5194TIP3    H236998   4.316   2.097   1.851 -0.6987 -0.1918 -1.0205
 5195TIP3   OH236999   4.671   1.660  11.930  0.1315  0.1790 -0.2526
 5195TIP3    H137000   4.621   1.667  11.849 -0.0993  0.4914 -0.0836
 5195TIP3    H237001   4.609   1.681  11.999  0.5018  0.5957 -0.0404
 5196TIP3   OH237002   5.627   3.033  13.109  0.4173 -0.1041  0.6587
 5196TIP3    H137003   5.620   2.954  13.055 -1.0043  0.4964 -0.0979
 5196TIP3    H237004   5.608   3.003  13.198  0.9969 -0.8013  0.5511
 5197TIP3   OH237005   5.319   1.467   6.054  0.1140 -0.0015  0.0456
 5197TIP3    H137006   5.345   1.376   6.066  0.9633  0.2166 -0.0634
 5197TIP3    H237007   5.318   1.504   6.142 -0.9438 -0.2967  0.1637
 5198TIP3   OH237008   6.786   0.393  13.167  0.1555 -0.9134 -0.0936
 5198TIP3    H137009   6.712   0.380  13.108  1.4692 -0.4452 -1.9466
 5198TIP3    H237010   6.804   0.487  13.162  0.6380 -0.9644  0.6351
 5199TIP3   OH237011   2.711   3.536   0.825  0.1349  0.2337  0.2473
 5199TIP3    H137012   2.642   3.585   0.780 -0.0448  0.1869  0.4753
 5199TIP3    H237013   2.716   3.453   0.778  0.6217  0.5624 -0.3127
 5200TIP3   OH237014   3.860   5.691  15.599 -0.1332 -0.2354  0.0811
 5200TIP3    H137015   3.788   5.633  15.573 -0.7277  1.3118 -1.9717
 5200TIP3    H237016   3.902   5.716  15.516 -0.2922  2.7060  0.7697
 5201TIP3   OH237017   1.343   5.105   1.973 -0.6931  0.4301  0.3351
 5201TIP3    H137018   1.312   5.151   2.051  0.9837  0.9270  0.7515
 5201TIP3    H237019   1.438   5.109   1.979 -0.4812  1.2015 -2.1338
 5202TIP3   OH237020   1.939   5.310   5.527  0.0008  0.0389  0.2832
 5202TIP3    H137021   1.985   5.383   5.568  0.1889 -0.1707  0.4481
 5202TIP3    H237022   1.941   5.240   5.592 -0.6135  0.0471  0.3167
 5203TIP3   OH237023   3.146   3.760   3.095 -0.2985  0.4721  0.0854
 5203TIP3    H137024   3.065   3.781   3.141 -1.1415 -0.7942 -0.7745
 5203TIP3    H237025   3.203   3.835   3.112 -2.4023  2.4713 -1.1306
 5204TIP3   OH237026   4.847   4.475   1.327  0.3303 -0.4919 -0.1098
 5204TIP3    H137027   4.794   4.521   1.263  0.4596  1.2744  0.9807
 5204TIP3    H237028   4.920   4.439   1.276  0.7885  1.4278 -0.9104
 5205TIP3   OH237029   5.839   3.652  14.972  0.0171 -0.3817  0.6626
 5205TIP3    H137030   5.930   3.669  14.949 -0.3578  0.1851 -0.4708
 5205TIP3    H237031   5.830   3.557  14.965  0.3663 -0.3829  0.1682
 5206TIP3   OH237032   1.633   5.491   4.012 -0.4300  0.0596  1.2141
 5206TIP3    H137033   1.707   5.437   3.983  0.1810  1.4774 -0.0267
 5206TIP3    H237034   1.601   5.532   3.931 -0.8121  1.5886  2.0999
 5207TIP3   OH237035   2.333   4.132  11.088  0.4771  0.2090  0.5795
 5207TIP3    H137036   2.325   4.125  10.993  0.1869  0.5074  0.5775
 5207TIP3    H237037   2.246   4.108  11.121 -0.1922  2.4932  0.6291
 5208TIP3   OH237038   0.745   6.157  12.900 -0.3442  0.5943  0.4121
 5208TIP3    H137039   0.733   6.143  12.806  3.5203  1.2854 -0.3742
 5208TIP3    H237040   0.781   6.075  12.933 -1.1365  0.5447  1.1978
 5209TIP3   OH237041   4.539   1.116  16.785 -0.4951  0.1544 -0.3746
 5209TIP3    H137042   4.533   1.039  16.728  0.3417  0.5713 -1.0363
 5209TIP3    H237043   4.448   1.142  16.797 -0.7646 -0.6799 -0.4990
 5210TIP3   OH237044   6.763   0.424  14.986  0.2679 -0.2041  0.3617
 5210TIP3    H137045   6.761   0.351  14.925 -0.3073  0.1210 -0.0125
 5210TIP3    H237046   6.699   0.402  15.053 -1.4749  0.9052 -0.8706
 5211TIP3   OH237047   3.959   3.961  10.859 -0.2870 -0.2379 -0.2207
 5211TIP3    H137048   3.914   4.023  10.802 -0.7207 -0.2302  0.1233
 5211TIP3    H237049   4.048   3.995  10.867 -0.8412  1.0355  0.9683
 5212TIP3   OH237050   6.270   0.188  16.510  0.0529  0.0607 -0.2852
 5212TIP3    H137051   6.312   0.235  16.582  1.2086  0.5196 -1.2251
 5212TIP3    H237052   6.245   0.104  16.548  0.8340  0.2083  0.6018
 5213TIP3   OH237053   5.502   3.261   1.649  0.7215 -0.0876  0.1381
 5213TIP3    H137054   5.582   3.237   1.695  0.4752  1.3868  1.3868
 5213TIP3    H237055   5.444   3.295   1.717 -1.1215 -1.4257 -0.6716
 5214TIP3   OH237056   0.546   3.777   6.204  0.0873  0.1783 -0.1595
 5214TIP3    H137057   0.612   3.717   6.238 -0.3084  1.4773  3.3928
 5214TIP3    H237058   0.463   3.730   6.216  0.0341  0.1250 -0.7076
 5215TIP3   OH237059   0.103   0.021  13.076  0.2566 -0.0227 -0.0530
 5215TIP3    H137060   0.013   0.009  13.108  0.1343  1.3553  0.2006
 5215TIP3    H237061   0.154  -0.047  13.120 -0.4442 -0.0413  0.7545
 5216TIP3   OH237062   3.453   4.789  16.455  0.1024 -0.3475 -0.1804
 5216TIP3    H137063   3.362   4.807  16.431  0.1066 -0.7259 -0.4849
 5216TIP3    H237064   3.464   4.695  16.442  0.0296 -0.6386  1.5912
 5217TIP3   OH237065   1.746   2.627   0.399  0.0660 -0.2418  0.0817
 5217TIP3    H137066   1.724   2.552   0.454 -0.4487  0.1924  0.4781
 5217TIP3    H237067   1.800   2.590   0.329  0.5755 -0.8366  0.7683
 5218TIP3   OH237068   5.920   5.287  12.401 -0.3410  0.4373 -0.6473
 5218TIP3    H137069   5.900   5.197  12.373 -4.7628  0.7590  0.7022
 5218TIP3    H237070   5.905   5.340  12.323  3.3667  0.1184 -1.7684
 5219TIP3   OH237071   1.378   4.953  17.064  0.1837  0.8041  0.1837
 5219TIP3    H137072   1.330   5.003  16.998 -1.4917 -0.1724  0.6104
 5219TIP3    H237073   1.471   4.967  17.043 -0.2573  2.8169 -0.6230
 5220TIP3   OH237074   3.176   3.235  15.520 -0.2615 -0.1050  0.1511
 5220TIP3    H137075   3.184   3.142  15.540  0.5622  0.0285  0.5064
 5220TIP3    H237076   3.096   3.262  15.564 -0.4534 -0.6254  0.1304
 5221TIP3   OH237077   4.966   1.312  15.227 -0.4401 -0.3108 -0.3470
 5221TIP3    H137078   5.039   1.340  15.282  0.1574 -1.3884 -0.5623
 5221TIP3    H237079   4.923   1.393  15.201 -0.0363  0.2803  0.7580
 5222TIP3   OH237080   5.112   6.333   4.135 -0.3193  0.2549  0.3721
 5222TIP3    H137081   5.083   6.403   4.076  1.0207 -0.2743 -0.9897
 5222TIP3    H237082   5.199   6.361   4.164 -0.4484 -0.0998  1.1275
 5223TIP3   OH237083   0.306   2.024  12.637 -0.6902 -0.2979  0.2399
 5223TIP3    H137084   0.280   1.933  12.623 -1.0042 -0.3585  1.1434
 5223TIP3    H237085   0.224   2.073  12.638 -0.5419 -0.0415  0.0264
 5224TIP3   OH237086   6.491   3.126  11.294 -0.9094 -0.0442  0.3831
 5224TIP3    H137087   6.587   3.124  11.298 -0.9014  0.3393  0.3829
 5224TIP3    H237088   6.464   3.053  11.351 -0.6282  0.2169  0.8646
 5225TIP3   OH237089   6.144   0.580  12.096  0.1473 -0.9072  0.2927
 5225TIP3    H137090   6.091   0.531  12.159  1.5536 -1.1453  1.3308
 5225TIP3    H237091   6.094   0.576  12.015 -1.6467 -0.7238  1.3309
 5226TIP3   OH237092   3.030   1.092  15.587 -0.6233  0.4956 -0.0889
 5226TIP3    H137093   2.997   1.003  15.578  0.4555  0.0419  0.3266
 5226TIP3    H237094   3.078   1.109  15.506 -0.9363  0.7463 -0.2229
 5227TIP3   OH237095   4.392   3.605  13.007 -0.5018 -0.7534 -0.9108
 5227TIP3    H137096   4.426   3.518  13.025 -0.2217 -0.7476 -1.3919
 5227TIP3    H237097   4.331   3.593  12.934  0.7185 -0.3301 -2.0365
 5228TIP3   OH237098   6.296   5.156   1.958 -0.3120 -0.2021 -0.1005
 5228TIP3    H137099   6.276   5.067   1.984  2.9358 -1.1546 -0.4307
 5228TIP3    H237100   6.337   5.147   1.871 -0.7889  1.7239 -0.5805
 5229TIP3   OH237101   5.399   1.057  12.356  0.0355  0.5530  0.1615
 5229TIP3    H137102   5.433   1.002  12.285  1.4277  1.6422 -0.0793
 5229TIP3    H237103   5.332   1.004  12.398  0.6167 -0.9224 -0.6875
 5230TIP3   OH237104   2.774   5.777  16.198  0.4954  0.2688 -0.0623
 5230TIP3    H137105   2.850   5.736  16.156 -1.1206 -1.7831 -1.1699
 5230TIP3    H237106   2.698   5.735  16.157 -1.2768  2.4816  0.7508
 5231TIP3   OH237107   3.325   3.134   3.858 -0.5621 -0.7799  0.8327
 5231TIP3    H137108   3.291   3.061   3.806 -1.0648  0.5155 -0.6964
 5231TIP3    H237109   3.379   3.184   3.797 -0.3098  0.2092  1.8409
 5232TIP3   OH237110   1.528   1.813  16.761  0.6766 -0.2945 -0.4294
 5232TIP3    H137111   1.511   1.789  16.670  1.9498 -0.7335 -0.5691
 5232TIP3    H237112   1.447   1.791  16.807  0.2111 -0.5673 -1.3607
 5233TIP3   OH237113   3.634   6.131  13.132  0.0310  0.1301 -0.0361
 5233TIP3    H137114   3.547   6.091  13.119 -0.0362  0.9436 -2.6236
 5233TIP3    H237115   3.618   6.202  13.194 -0.2894 -2.1934  2.7704
 5234TIP3   OH237116   3.755   2.058  17.078 -0.4802 -0.3727  0.0852
 5234TIP3    H137117   3.748   2.051  17.173  1.0964 -3.4172  0.0916
 5234TIP3    H237118   3.670   2.028  17.045 -0.8413  0.1894  0.4822
 5235TIP3   OH237119   6.464   0.945   5.701 -0.0919 -0.2453  0.5190
 5235TIP3    H137120   6.383   0.981   5.738 -0.3439  0.4273 -0.6329
 5235TIP3    H237121   6.533   1.000   5.738 -0.0671 -1.1937  1.9793
 5236TIP3   OH237122   3.247   2.943   3.672  0.3791 -0.3671  0.1929
 5236TIP3    H137123   3.301   2.909   3.601  2.1759  1.6500  0.4796
 5236TIP3    H237124   3.179   2.995   3.628  3.4142  3.6884 -0.2326
 5237TIP3   OH237125   6.587   0.584  13.927 -0.6106  0.1948 -0.0626
 5237TIP3    H137126   6.599   0.551  14.016 -1.7258 -1.0949 -0.3451
 5237TIP3    H237127   6.654   0.540  13.876 -0.7736 -0.0459 -0.0717
 5238TIP3   OH237128   2.678   0.660  11.918  0.2117 -0.2907 -0.0112
 5238TIP3    H137129   2.688   0.641  12.011  1.1928  2.2553  0.4914
 5238TIP3    H237130   2.609   0.726  11.914 -0.0208 -0.5712 -1.1379
 5239TIP3   OH237131   2.072   2.726   0.009  0.5075 -0.5373  0.2158
 5239TIP3    H137132   2.080   2.816   0.041  1.6589 -0.9794  1.2706
 5239TIP3    H237133   2.007   2.730  -0.061  1.0806  1.2421 -0.2584
 5240TIP3   OH237134   5.138   2.311   3.898  0.1655  0.2384 -0.5916
 5240TIP3    H137135   5.206   2.342   3.958  1.0468  0.7158 -1.7959
 5240TIP3    H237136   5.112   2.225   3.933  0.9611  0.3099  0.2055
 5241TIP3   OH237137   6.375   2.708  11.411 -0.0057  0.5147 -0.0419
 5241TIP3    H137138   6.420   2.726  11.328 -0.4446 -0.6946 -0.5768
 5241TIP3    H237139   6.375   2.612  11.418  0.6395  0.6066  1.7218
 5242TIP3   OH237140   0.434   4.550   0.205 -0.6301  0.1541 -0.7942
 5242TIP3    H137141   0.407   4.464   0.172  1.3927 -0.7057 -0.3444
 5242TIP3    H237142   0.431   4.607   0.128  0.2964 -0.8934 -1.6328
 5243TIP3   OH237143   5.244   6.687   2.122  0.1254  0.0606  0.2041
 5243TIP3    H137144   5.159   6.642   2.117  0.2087  0.0346 -1.7166
 5243TIP3    H237145   5.308   6.617   2.125  0.1974  0.0078 -1.5861
 5244TIP3   OH237146   5.200   3.806   4.862 -0.6423 -0.0814 -0.3324
 5244TIP3    H137147   5.255   3.763   4.929  0.6460 -1.8121 -2.3821
 5244TIP3    H237148   5.199   3.898   4.888 -0.2519 -0.6862  2.0831
 5245TIP3   OH237149   4.862   2.273   6.378 -0.2920  0.0551 -0.0620
 5245TIP3    H137150   4.801   2.229   6.320  0.7374 -0.1495 -1.0269
 5245TIP3    H237151   4.937   2.295   6.323 -0.1696  1.7600  0.7095
 5246TIP3   OH237152   0.651   1.901   2.833 -0.0277  0.4429 -0.2789
 5246TIP3    H137153   0.586   1.918   2.901  0.7840  0.9134  0.3960
 5246TIP3    H237154   0.710   1.836   2.872  0.3045  0.5323 -0.6299
 5247TIP3   OH237155   5.140   5.575  15.947  0.3641 -0.2404 -0.6675
 5247TIP3    H137156   5.209   5.514  15.920  0.2383 -0.4235 -0.5749
 5247TIP3    H237157   5.136   5.639  15.876  1.6303  0.6073 -0.0047
 5248TIP3   OH237158   5.161   5.445   2.023  0.2017  0.2671  0.6122
 5248TIP3    H137159   5.198   5.387   2.089 -0.7348 -0.4061  0.5800
 5248TIP3    H237160   5.236   5.481   1.976  0.8558 -2.8240 -0.9804
 5249TIP3   OH237161   5.407   1.200  12.678  0.3301  0.6047 -0.6704
 5249TIP3    H137162   5.502   1.196  12.692  0.5006  2.4359 -1.0249
 5249TIP3    H237163   5.397   1.254  12.600 -1.0566  1.8454  0.3093
 5250TIP3   OH237164   5.723   1.998   0.955 -0.5649 -0.3627 -0.6523
 5250TIP3    H137165   5.685   2.062   1.015  1.3559  0.5412 -0.3076
 5250TIP3    H237166   5.707   1.913   0.997 -0.9761  0.1011  0.1522
 5251TIP3   OH237167   3.702   4.242   1.361  0.5802  0.1741  0.0089
 5251TIP3    H137168   3.658   4.286   1.288 -0.8847 -1.1388  0.0490
 5251TIP3    H237169   3.685   4.149   1.346  0.7775 -0.1558  1.6841
 5252TIP3   OH237170   2.183   1.097  15.158 -0.0851  0.3826  0.1865
 5252TIP3    H137171   2.190   1.127  15.248 -1.0659 -0.2645  0.4938
 5252TIP3    H237172   2.252   1.145  15.111  0.8065  0.3128  1.3776
 5253TIP3   OH237173   6.215   5.513  12.411 -0.2436  0.0185 -0.0581
 5253TIP3    H137174   6.150   5.549  12.350 -1.0792 -1.2178  0.0816
 5253TIP3    H237175   6.298   5.525  12.365 -1.0523 -3.6484 -2.9802
 5254TIP3   OH237176   4.114   6.680   1.561  0.5674  0.1043  0.7157
 5254TIP3    H137177   4.194   6.728   1.583  0.2569  0.8494  0.2760
 5254TIP3    H237178   4.089   6.636   1.642  0.0876  1.8430  1.5495
 5255TIP3   OH237179   0.312   3.744  11.198  0.9542  0.6144  0.6751
 5255TIP3    H137180   0.370   3.676  11.163  1.3715  1.1751  0.2721
 5255TIP3    H237181   0.224   3.713  11.178  1.1131 -0.1266  1.0783
 5256TIP3   OH237182   5.678   3.894   3.823 -0.3399  0.1881 -0.1218
 5256TIP3    H137183   5.737   3.857   3.758 -0.8489  1.1335 -1.1699
 5256TIP3    H237184   5.735   3.934   3.888  0.2549 -2.7121  1.3216
 5257TIP3   OH237185   3.394   5.735  16.271  0.0126  0.1702 -0.3877
 5257TIP3    H137186   3.464   5.795  16.296  0.7207 -1.2030  1.0498
 5257TIP3    H237187   3.317   5.768  16.317  1.0505 -1.6671  2.9857
 5258TIP3   OH237188   6.426   0.491  16.061  0.2413 -0.0791  0.4764
 5258TIP3    H137189   6.464   0.579  16.057  0.0253  0.0401  0.9457
 5258TIP3    H237190   6.364   0.489  15.988  2.2129 -0.8123 -1.2891
 5259TIP3   OH237191   1.764   6.714  16.278 -0.0947 -0.4866 -0.0069
 5259TIP3    H137192   1.814   6.756  16.208 -1.4812  1.7072  0.2017
 5259TIP3    H237193   1.823   6.712  16.353  0.6663 -0.7798 -0.6051
 5260TIP3   OH237194   1.250   1.105   1.218  0.1008  0.1018  0.7157
 5260TIP3    H137195   1.221   1.015   1.203 -0.4813  0.6579 -2.1127
 5260TIP3    H237196   1.333   1.096   1.264  0.7535 -1.9771 -0.7145
 5261TIP3   OH237197   1.891   1.060   4.768  0.0650 -0.8966  0.3457
 5261TIP3    H137198   1.854   1.134   4.720  0.6772 -0.0866  1.0898
 5261TIP3    H237199   1.964   1.098   4.818  0.1994 -1.9428  0.9703
 5262TIP3   OH237200   2.564   1.259   0.331  0.3161  0.2760  0.2264
 5262TIP3    H137201   2.490   1.201   0.314 -0.8964  1.7435  0.3132
 5262TIP3    H237202   2.614   1.258   0.249  0.9507 -1.7039  0.5831
 5263TIP3   OH237203   3.984   0.630   5.763 -0.3204  0.4847 -0.1971
 5263TIP3    H137204   4.039   0.572   5.814  0.2205  0.0168 -1.2868
 5263TIP3    H237205   4.045   0.693   5.724 -0.6155  0.3053 -0.9572
 5264TIP3   OH237206   6.409   4.406   1.476 -0.0985  0.6174 -0.2686
 5264TIP3    H137207   6.368   4.321   1.458  0.7660 -0.0255  0.6844
 5264TIP3    H237208   6.483   4.385   1.533  1.1629  1.8267 -1.3913
 5265TIP3   OH237209   5.529   6.609  16.307 -0.1527  0.6277  0.1735
 5265TIP3    H137210   5.516   6.704  16.306 -0.4976  0.5905 -1.7845
 5265TIP3    H237211   5.616   6.597  16.347  0.0187  1.7836  0.1770
 5266TIP3   OH237212   1.009   4.400   4.885 -0.5638  0.5357  0.0699
 5266TIP3    H137213   0.932   4.345   4.898  0.7810 -1.8787 -1.5535
 5266TIP3    H237214   1.074   4.367   4.948  0.4281 -0.1299 -1.2679
 5267TIP3   OH237215   3.060   0.404   3.772 -0.4002 -0.3112 -0.2134
 5267TIP3    H137216   3.082   0.411   3.679  0.0457  1.9560 -0.0072
 5267TIP3    H237217   3.046   0.311   3.787  1.1959 -0.9312 -2.1672
 5268TIP3   OH237218   3.156   5.306   2.893 -0.1237 -0.0407  0.3138
 5268TIP3    H137219   3.131   5.344   2.977  0.6132 -1.0133  0.9946
 5268TIP3    H237220   3.126   5.215   2.898  0.9936 -0.4404  0.0221
 5269TIP3   OH237221   0.561   2.043   1.238 -0.1946 -0.0848  0.2976
 5269TIP3    H137222   0.652   2.050   1.209 -0.1408 -0.3692  0.4041
 5269TIP3    H237223   0.561   1.976   1.306 -0.5981 -0.5801 -0.1778
 5270TIP3   OH237224   4.408   0.790  14.604 -0.5640 -0.0756 -0.0515
 5270TIP3    H137225   4.336   0.852  14.595  0.3518  0.9627 -0.4440
 5270TIP3    H237226   4.366   0.704  14.603 -2.0377  0.5307  2.2105
 5271TIP3   OH237227   3.223   6.386  15.060 -0.0955  0.0880  0.4954
 5271TIP3    H137228   3.257   6.394  14.971  0.1850 -1.8855  0.3680
 5271TIP3    H237229   3.296   6.411  15.116  0.1082  0.2163  0.1750
 5272TIP3   OH237230   0.621   2.480  13.048 -0.4385 -0.4132 -0.1571
 5272TIP3    H137231   0.584   2.460  13.134  0.8629  0.2488  0.5860
 5272TIP3    H237232   0.708   2.441  13.049  0.0113  0.5302 -0.7535
 5273TIP3   OH237233   0.974   1.865   3.456  0.5336 -0.2555 -0.1280
 5273TIP3    H137234   0.887   1.884   3.489  0.5502  0.9342 -0.7278
 5273TIP3    H237235   1.029   1.861   3.534  0.3977  1.5794  0.1031
 5274TIP3   OH237236   2.894   5.700   4.141  0.1077 -0.2719 -0.4090
 5274TIP3    H137237   2.977   5.684   4.097 -0.4521  0.8573 -1.9917
 5274TIP3    H237238   2.862   5.781   4.102 -0.3598  0.9561  2.2558
 5275TIP3   OH237239   3.992   1.239  11.852  0.8462 -0.4071 -0.0187
 5275TIP3    H137240   3.949   1.275  11.930  0.9149 -0.3120 -0.0247
 5275TIP3    H237241   3.945   1.158  11.834  0.5434 -0.2074 -0.1359
 5276TIP3   OH237242   5.295   4.664  14.298 -0.0591 -0.4047  0.5901
 5276TIP3    H137243   5.249   4.696  14.221  1.3609  1.7973  0.5859
 5276TIP3    H237244   5.238   4.594  14.332 -2.5002  0.9909 -0.3715
 5277TIP3   OH237245   1.927   0.770   1.951  0.4877 -0.3942 -0.0833
 5277TIP3    H137246   2.012   0.809   1.932 -0.0571  0.9044  0.0272
 5277TIP3    H237247   1.932   0.743   2.043  0.2570  1.1688  0.4160
 5278TIP3   OH237248   3.684   6.335  14.809  0.0993 -0.3908  0.2792
 5278TIP3    H137249   3.684   6.277  14.733  0.4449 -2.1656  1.5674
 5278TIP3    H237250   3.670   6.277  14.884  0.7176  1.1572  1.6678
 5279TIP3   OH237251   2.836   0.958   0.849 -0.0403  0.0846  0.2486
 5279TIP3    H137252   2.862   1.000   0.931  1.0039  0.9012 -0.4903
 5279TIP3    H237253   2.807   1.030   0.793 -2.9561 -0.6406  0.6156
 5280TIP3   OH237254   5.173   3.266   4.639  0.1681  0.4252 -0.2253
 5280TIP3    H137255   5.235   3.307   4.699  0.3700  1.9285 -1.3999
 5280TIP3    H237256   5.171   3.174   4.666  0.7875  0.8927  1.5928
 5281TIP3   OH237257   4.472   2.039   5.879  0.0250  0.5304 -0.3836
 5281TIP3    H137258   4.508   2.101   5.815 -0.7901  0.5994 -0.7919
 5281TIP3    H237259   4.416   2.093   5.936 -1.0584  0.1222 -1.0229
 5282TIP3   OH237260   3.738   6.375  15.305 -0.0659  0.0517  0.3812
 5282TIP3    H137261   3.751   6.286  15.336  0.9514 -0.2848 -0.9205
 5282TIP3    H237262   3.821   6.420  15.322  0.4454 -0.0816 -1.5255
 5283TIP3   OH237263   5.724   3.872  11.118  0.5029  0.1222 -0.4458
 5283TIP3    H137264   5.704   3.965  11.109 -1.6309  0.0050  2.1787
 5283TIP3    H237265   5.657   3.828  11.066 -0.6981 -0.0115  1.1701
 5284TIP3   OH237266   0.173   6.178   0.730  0.5683  0.2135 -0.7720
 5284TIP3    H137267   0.190   6.265   0.695  0.0685  0.0910 -1.3264
 5284TIP3    H237268   0.106   6.141   0.673 -0.2052 -0.0207  0.2611
 5285TIP3   OH237269   1.732   4.766   1.719  0.3227 -0.9276  0.0636
 5285TIP3    H137270   1.784   4.811   1.786 -0.0254 -1.0550  0.4202
 5285TIP3    H237271   1.641   4.786   1.741  0.1519 -1.8883  0.2958
 5286TIP3   OH237272   0.022   5.907   5.022  0.0196  0.2200  0.1016
 5286TIP3    H137273   0.098   5.873   5.068 -0.6874 -0.6176  0.6710
 5286TIP3    H237274   0.010   5.995   5.057  0.7051  0.3505  0.0215
 5287TIP3   OH237275   4.438   1.774   2.514  0.1116 -0.5867 -0.4416
 5287TIP3    H137276   4.394   1.802   2.594 -0.2364  2.9696 -1.6783
 5287TIP3    H237277   4.404   1.686   2.497 -0.9187 -0.8606  2.4584
 5288TIP3   OH237278   0.703   1.506  15.652 -0.2425 -0.6098 -0.0583
 5288TIP3    H137279   0.622   1.509  15.600  0.5246 -0.0254 -1.2538
 5288TIP3    H237280   0.758   1.575  15.614  0.7145 -0.8184  0.9246
 5289TIP3   OH237281   5.617   6.252  16.441  0.3623  0.0464  0.3594
 5289TIP3    H137282   5.569   6.266  16.359  0.2892 -0.6349  0.2773
 5289TIP3    H237283   5.616   6.337  16.484 -0.5898  0.1411  0.1767
 5290TIP3   OH237284   6.407   6.722  16.976 -0.0465 -0.0175  0.0456
 5290TIP3    H137285   6.375   6.711  17.066  0.8929  1.0199  0.5326
 5290TIP3    H237286   6.378   6.643  16.930 -0.7830 -0.4336  1.1839
 5291TIP3   OH237287   2.147   3.572   6.486  0.0112  0.3474 -0.4727
 5291TIP3    H137288   2.223   3.625   6.461  0.6446 -1.1738 -1.9201
 5291TIP3    H237289   2.072   3.620   6.450  0.5511  0.3877 -1.5961
 5292TIP3   OH237290   3.254   4.529  12.224  0.1020 -0.2635 -0.0308
 5292TIP3    H137291   3.259   4.577  12.141 -1.0076 -0.6636 -0.3482
 5292TIP3    H237292   3.200   4.585  12.280  0.4121 -0.2438  0.2481
 5293TIP3   OH237293   2.305   6.544  14.113  0.3298 -0.8850  0.0636
 5293TIP3    H137294   2.378   6.497  14.154  1.6442  0.5338 -0.5477
 5293TIP3    H237295   2.237   6.545  14.180  1.5879 -0.5910  1.3964
 5294TIP3   OH237296   0.338   6.680   0.121 -0.1755  0.0116 -0.4929
 5294TIP3    H137297   0.245   6.660   0.115 -0.5063  1.1368  0.5912
 5294TIP3    H237298   0.368   6.682   0.030 -1.5284  1.0756 -0.9378
 5295TIP3   OH237299   1.076   6.242  15.762 -0.3877  0.9150 -0.1819
 5295TIP3    H137300   1.134   6.166  15.765 -0.6289  0.6578 -1.3663
 5295TIP3    H237301   1.000   6.211  15.712 -1.3269  1.3874  0.9281
 5296TIP3   OH237302   5.305   3.048   1.362 -0.0789  0.3377 -0.0121
 5296TIP3    H137303   5.281   2.961   1.330  2.2343 -0.5086  0.3629
 5296TIP3    H237304   5.238   3.069   1.427  0.3707 -2.0830  1.3485
 5297TIP3   OH237305   0.687   0.350  11.660  0.1143 -0.0597  0.1504
 5297TIP3    H137306   0.697   0.388  11.573 -0.3811  1.2552  0.6445
 5297TIP3    H237307   0.654   0.422  11.714  0.8703 -0.7169  1.5367
 5298TIP3   OH237308   6.678   6.507   5.915  0.0550  0.0360  0.3435
 5298TIP3    H137309   6.616   6.579   5.905 -0.3872 -0.3933 -0.0554
 5298TIP3    H237310   6.764   6.549   5.921 -0.3170  0.6789  1.5597
 5299TIP3   OH237311   5.968   0.022  12.904 -0.1459 -0.1205 -0.2182
 5299TIP3    H137312   6.027  -0.045  12.869 -0.9829 -0.7139 -0.5001
 5299TIP3    H237313   5.990   0.026  12.998  0.3096 -0.3658 -0.3103
 5300TIP3   OH237314   4.029   1.807  15.799  0.2323  0.2164  0.1188
 5300TIP3    H137315   4.022   1.811  15.894  1.3010 -1.3873  0.2968
 5300TIP3    H237316   4.075   1.725  15.781 -1.3221 -0.3325 -1.8474
 5301TIP3   OH237317   1.318   3.137  13.489  0.7711  0.3605 -0.1080
 5301TIP3    H137318   1.290   3.148  13.398 -1.2511  1.6380  0.5751
 5301TIP3    H237319   1.382   3.207  13.503  0.8166  0.3920 -0.4697
 5302TIP3   OH237320   4.035   3.468  15.977 -0.3562  0.3522  0.2958
 5302TIP3    H137321   4.074   3.408  15.914  0.5110 -0.3558  1.4704
 5302TIP3    H237322   3.975   3.414  16.028  0.9341  0.2578  1.8142
 5303TIP3   OH237323   1.335   2.711  14.971  0.3156 -0.1613 -0.5930
 5303TIP3    H137324   1.301   2.643  14.914  2.4976 -0.5916 -1.4561
 5303TIP3    H237325   1.375   2.664  15.044  1.8550  0.1491 -1.2038
 5304TIP3   OH237326   6.419   3.457   5.397  1.1815 -0.3882  0.7894
 5304TIP3    H137327   6.504   3.450   5.354  1.8247  0.6879  1.8282
 5304TIP3    H237328   6.364   3.506   5.336  2.1791  1.3995  1.2586
 5305TIP3   OH237329   3.757   1.458   4.272 -0.3912 -0.0879 -0.3403
 5305TIP3    H137330   3.768   1.511   4.193  2.0307 -0.5083 -0.3711
 5305TIP3    H237331   3.734   1.371   4.240  2.2768 -0.7088 -0.7823
 5306TIP3   OH237332   3.095   2.492   5.941 -0.4241 -0.2523 -0.1830
 5306TIP3    H137333   3.113   2.402   5.967 -1.8237 -0.1749  1.1737
 5306TIP3    H237334   3.157   2.545   5.992 -2.1967 -0.2086  2.0675
 5307TIP3   OH237335   0.534   0.215  16.163 -0.4054  0.3771  0.4483
 5307TIP3    H137336   0.440   0.229  16.147 -0.8231 -1.7500  0.7368
 5307TIP3    H237337   0.540   0.123  16.189  1.5646  0.8805  2.0487
 5308TIP3   OH237338   1.265   5.321   0.765 -0.0458 -0.2757  0.1260
 5308TIP3    H137339   1.246   5.266   0.689  0.5515 -0.3987  0.0541
 5308TIP3    H237340   1.357   5.302   0.785 -0.2741 -0.4489  1.0458
 5309TIP3   OH237341   6.493   0.913  13.338  0.5600  0.3084  0.5649
 5309TIP3    H137342   6.522   0.930  13.427 -1.0945 -2.4484  1.7794
 5309TIP3    H237343   6.398   0.902  13.345  0.2249  1.0676 -1.7605
 5310TIP3   OH237344   6.654   1.411  13.496 -0.0792  0.3319  0.5723
 5310TIP3    H137345   6.589   1.346  13.523  2.1606 -1.4903  1.9149
 5310TIP3    H237346   6.735   1.362  13.486  1.4559  2.7259  0.4411
 5311TIP3   OH237347   1.865   5.892  16.133  0.3393  0.4643  0.4110
 5311TIP3    H137348   1.791   5.836  16.154  1.2599 -0.2442  1.8941
 5311TIP3    H237349   1.829   5.956  16.071 -1.7739  0.7569  1.8090
 5312TIP3   OH237350   5.482   4.447   3.431  0.0285 -0.2652 -0.1269
 5312TIP3    H137351   5.458   4.506   3.359 -1.0564 -1.1183 -0.4876
 5312TIP3    H237352   5.559   4.401   3.400  1.1657  1.2224  0.3266
 5313TIP3   OH237353   6.611   3.549  10.249 -0.5045 -0.2087  0.6122
 5313TIP3    H137354   6.565   3.495  10.185  0.5869  0.7938 -1.0682
 5313TIP3    H237355   6.646   3.485  10.312 -1.3833 -1.2292  0.1017
 5314TIP3   OH237356   4.932   4.152  13.667 -0.0185  0.5235 -0.2057
 5314TIP3    H137357   5.023   4.130  13.686 -0.6243 -0.6735  1.6395
 5314TIP3    H237358   4.904   4.086  13.603  0.1686  0.3713 -0.1315
 5315TIP3   OH237359   2.568   4.390  14.706 -0.8721  0.1128  0.6677
 5315TIP3    H137360   2.610   4.305  14.691 -1.8415 -0.0035 -2.0813
 5315TIP3    H237361   2.556   4.395  14.801 -1.5475 -3.2373  0.8852
 5316TIP3   OH237362   2.165   1.006  17.200  0.0231  0.4094 -0.2425
 5316TIP3    H137363   2.202   0.933  17.151  3.1498  1.4035  0.4059
 5316TIP3    H237364   2.123   0.965  17.276  3.0264 -0.7645  0.9222
 5317TIP3   OH237365   3.874   6.627  11.969  0.4908 -0.9632 -0.2025
 5317TIP3    H137366   3.941   6.614  12.036 -0.2437 -0.2022  0.6938
 5317TIP3    H237367   3.874   6.722  11.952 -0.5239 -0.9174 -0.0130
 5318TIP3   OH237368   0.398   3.578   4.868 -0.1851  0.0254 -0.5549
 5318TIP3    H137369   0.471   3.533   4.825 -0.7936 -1.3262 -0.2195
 5318TIP3    H237370   0.409   3.670   4.844  0.1154 -0.5228 -2.7012
 5319TIP3   OH237371   6.265   3.699  16.578 -0.0433  0.1512 -0.1804
 5319TIP3    H137372   6.340   3.702  16.518 -0.4537 -0.7562 -0.7554
 5319TIP3    H237373   6.216   3.779  16.559  1.4092  1.4107  1.0713
 5320TIP3   OH237374   5.805   4.245  12.907 -0.3609 -0.3941  0.3204
 5320TIP3    H137375   5.724   4.195  12.911  0.6400 -2.1773 -0.8082
 5320TIP3    H237376   5.801   4.290  12.823  0.2701 -1.3231 -0.2185
 5321TIP3   OH237377   1.563   3.289  13.857 -0.4535 -0.0682 -0.1781
 5321TIP3    H137378   1.656   3.296  13.838 -0.4311 -0.3305 -0.1704
 5321TIP3    H237379   1.521   3.350  13.796 -0.1632  1.2376  0.8733
 5322TIP3   OH237380   5.754   5.828   3.786  0.8279  0.4172  0.5636
 5322TIP3    H137381   5.770   5.890   3.857 -2.8547  1.3765  0.7534
 5322TIP3    H237382   5.695   5.763   3.824 -0.6985  0.5807 -1.4019
 5323TIP3   OH237383   5.371   1.483  14.509  0.3402  0.0181 -0.0426
 5323TIP3    H137384   5.401   1.393  14.506  0.3378  0.0346 -0.7222
 5323TIP3    H237385   5.448   1.535  14.485  0.3005  0.1891  0.1910
 5324TIP3   OH237386   4.556   2.998  14.193 -0.0703 -0.0104  0.1309
 5324TIP3    H137387   4.596   2.923  14.237 -2.0606 -2.0190 -1.2726
 5324TIP3    H237388   4.568   3.071  14.254  2.3033 -1.3161  1.3802
 5325TIP3   OH237389   1.141   4.211  12.904 -0.4512 -0.4182 -0.1529
 5325TIP3    H137390   1.179   4.163  12.978  0.2357 -0.7382 -0.7003
 5325TIP3    H237391   1.184   4.174  12.827 -0.9522  0.1064 -0.6911
 5326TIP3   OH237392   3.631   3.517  14.164  0.1071 -0.4888  0.4256
 5326TIP3    H137393   3.695   3.588  14.173  0.0578 -0.2754 -0.7595
 5326TIP3    H237394   3.683   3.437  14.171  0.3685 -0.3229  0.3924
 5327TIP3   OH237395   3.197   4.458   6.391  0.3387  0.4667  0.1349
 5327TIP3    H137396   3.205   4.509   6.310  0.9098 -0.2723 -0.2972
 5327TIP3    H237397   3.164   4.373   6.361 -1.0481  0.7097  0.8957
 5328TIP3   OH237398   4.406   2.999  13.100 -0.3155 -0.0626  0.5658
 5328TIP3    H137399   4.320   2.975  13.134 -0.9668 -0.9011 -1.5417
 5328TIP3    H237400   4.388   3.055  13.025  0.7997 -2.1580 -1.4101
 5329TIP3   OH237401   4.515   5.052  11.955  0.1129 -0.1644 -0.3584
 5329TIP3    H137402   4.489   5.104  12.031  1.5914  1.4540 -0.8783
 5329TIP3    H237403   4.444   5.063  11.892 -0.4971 -0.4093  0.2783
 5330TIP3   OH237404   4.280   0.920   2.167 -0.8612 -0.0142 -0.3656
 5330TIP3    H137405   4.365   0.887   2.136 -0.5285 -2.6757  2.8890
 5330TIP3    H237406   4.220   0.848   2.154 -1.1163 -0.5721  3.0495
 5331TIP3   OH237407   4.201   2.977  14.221  0.2983  0.7192 -0.5970
 5331TIP3    H137408   4.252   2.896  14.226  0.3787  0.7379 -1.0927
 5331TIP3    H237409   4.220   3.022  14.304 -2.7030 -1.4863  1.5339
 5332TIP3   OH237410   6.492   1.315  16.732  0.1407  0.7143  0.1803
 5332TIP3    H137411   6.430   1.387  16.721 -1.5116 -0.8383 -1.2662
 5332TIP3    H237412   6.542   1.313  16.650 -0.0813  0.0233  0.0513
 5333TIP3   OH237413   5.915   1.042   5.799  0.2822 -0.0271 -0.2611
 5333TIP3    H137414   5.961   1.075   5.722 -0.2653 -0.2496 -0.6943
 5333TIP3    H237415   5.826   1.027   5.768 -0.2178  0.8555  0.6806
 5334TIP3   OH237416   6.761   2.654   5.600  0.3222  0.1252 -0.1624
 5334TIP3    H137417   6.703   2.580   5.582 -2.6293  1.7392  1.9862
 5334TIP3    H237418   6.832   2.616   5.652  1.2724 -1.8659 -2.6752
 5335TIP3   OH237419   3.772   6.617   3.182  0.3419 -0.1376 -0.0321
 5335TIP3    H137420   3.726   6.668   3.249 -2.8698 -3.1007  0.3132
 5335TIP3    H237421   3.713   6.615   3.107  0.9785 -2.0743 -0.5647
 5336TIP3   OH237422   5.217   1.692   1.944  0.2266  0.1417  0.4785
 5336TIP3    H137423   5.168   1.640   1.881  2.2763 -1.0819 -0.1766
 5336TIP3    H237424   5.150   1.744   1.990 -1.8826 -2.7773  0.9326
 5337TIP3   OH237425   4.335   5.090   3.968 -1.1245  0.1436 -0.2168
 5337TIP3    H137426   4.404   5.138   3.922 -1.1865 -1.2626 -1.9106
 5337TIP3    H237427   4.371   5.071   4.054  2.1508 -3.4884 -2.0887
 5338TIP3   OH237428   0.096   1.199   4.033 -0.2768 -0.5815  0.0662
 5338TIP3    H137429   0.049   1.156   4.105  1.9556 -1.4964  1.0893
 5338TIP3    H237430   0.148   1.267   4.076 -0.4269  0.2032 -0.9688
 5339TIP3   OH237431   5.591   6.488  11.791 -0.3558 -0.4788 -0.2076
 5339TIP3    H137432   5.598   6.516  11.882  1.6649 -2.0214  0.1790
 5339TIP3    H237433   5.514   6.430  11.789 -2.3977  2.0725 -0.2701
 5340TIP3   OH237434   1.700   0.391   5.064 -0.4620  0.1217  0.0076
 5340TIP3    H137435   1.652   0.321   5.107  0.0515 -1.2150 -1.4800
 5340TIP3    H237436   1.664   0.394   4.975 -1.7539  3.0410  0.5327
 5341TIP3   OH237437   0.720   1.679   5.052  0.0823  0.4072  0.1365
 5341TIP3    H137438   0.736   1.755   5.108  0.4567  0.2462  0.2480
 5341TIP3    H237439   0.807   1.647   5.029 -0.0637 -0.5193  0.8162
 5342TIP3   OH237440   3.199   0.502  13.272  0.1942  0.2914 -0.2762
 5342TIP3    H137441   3.268   0.449  13.232  1.3727  1.7700 -0.2639
 5342TIP3    H237442   3.151   0.441  13.328  0.8384 -0.9866 -1.0791
 5343TIP3   OH237443   4.181   3.325  12.574 -0.2946  0.4354  0.0036
 5343TIP3    H137444   4.240   3.331  12.499  0.1768  2.4773  0.4644
 5343TIP3    H237445   4.105   3.277  12.541  1.1211 -1.2574 -0.9096
 5344TIP3   OH237446   4.422   6.664  13.723 -0.6742 -0.4422 -0.0780
 5344TIP3    H137447   4.507   6.694  13.756  0.2165 -2.0847 -0.7445
 5344TIP3    H237448   4.358   6.702  13.783  0.5984  0.0800  1.0030
 5345TIP3   OH237449   2.326   5.330  16.806 -0.1191  0.0984  0.9352
 5345TIP3    H137450   2.235   5.356  16.819 -0.8906 -2.2428  0.6175
 5345TIP3    H237451   2.358   5.390  16.738 -2.6962 -1.4906 -1.9615
 5346TIP3   OH237452   6.337   6.513  16.473 -0.0505  0.5091  0.7531
 5346TIP3    H137453   6.388   6.573  16.527  0.5466  1.1764 -0.5088
 5346TIP3    H237454   6.401   6.452  16.436 -0.5804 -0.6034  1.5789
 5347TIP3   OH237455   4.176   2.912  12.651 -0.0948 -0.1648  0.3929
 5347TIP3    H137456   4.091   2.923  12.609 -0.6719  1.6315  1.8706
 5347TIP3    H237457   4.190   2.817  12.654 -1.1746 -0.4149 -1.4916
 5348TIP3   OH237458   3.546   5.450   1.902  0.6376 -0.1299 -0.4334
 5348TIP3    H137459   3.538   5.385   1.972 -0.1305  0.7495  0.3301
 5348TIP3    H237460   3.465   5.500   1.907  1.3046  1.0290 -0.8589
 5349TIP3   OH237461   2.627   5.053   6.224 -0.0058  0.2366  0.2549
 5349TIP3    H137462   2.648   5.037   6.132 -0.6752  2.0546 -0.2560
 5349TIP3    H237463   2.554   5.114   6.222 -1.1189 -0.9404  2.0219
 5350TIP3   OH237464   6.602   3.112   0.979 -0.2967 -0.0387  0.0709
 5350TIP3    H137465   6.573   3.079   0.894  1.9003 -0.7838 -0.4523
 5350TIP3    H237466   6.615   3.206   0.965  0.0814 -0.1629 -0.4230
 5351TIP3   OH237467   5.668   4.654  12.588  0.4888  0.2737  0.0554
 5351TIP3    H137468   5.629   4.633  12.503  2.0697 -0.6322 -0.5017
 5351TIP3    H237469   5.748   4.703  12.565  0.0114  1.6004  1.1131
 5352TIP3   OH237470   4.586   6.653  15.591  0.3120 -0.1282 -0.3730
 5352TIP3    H137471   4.534   6.584  15.549 -0.7129  0.1868  0.3505
 5352TIP3    H237472   4.606   6.618  15.678 -0.1221  0.4293 -0.0421
 5353TIP3   OH237473   4.877   2.915   0.337  0.4042  0.5872 -0.1353
 5353TIP3    H137474   4.939   2.895   0.408  1.3642 -0.2476 -1.1656
 5353TIP3    H237475   4.924   2.977   0.281  0.5524 -0.4303 -1.1950
 5354TIP3   OH237476   5.268   1.762   3.852 -0.0649  0.1428 -0.0032
 5354TIP3    H137477   5.331   1.740   3.920 -0.5689 -1.4997 -0.0298
 5354TIP3    H237478   5.189   1.712   3.876 -0.3662 -0.1811 -1.5924
 5355TIP3   OH237479   2.463   3.376  11.696  0.0152 -0.2765 -0.3125
 5355TIP3    H137480   2.424   3.374  11.608 -1.0134  0.5269  0.1077
 5355TIP3    H237481   2.506   3.461  11.700 -0.1436 -0.2130  0.0427
 5356TIP3   OH237482   2.933   2.775  13.668  0.4500 -0.3883  0.1796
 5356TIP3    H137483   2.971   2.853  13.627 -0.5639  0.2419  0.3790
 5356TIP3    H237484   2.901   2.722  13.595  1.7407 -0.9558  0.0094
 5357TIP3   OH237485   2.053   4.236  11.671 -0.0948  0.3140 -0.2491
 5357TIP3    H137486   2.148   4.230  11.662 -0.0560  0.8720 -0.2914
 5357TIP3    H237487   2.033   4.327  11.646 -0.3629  0.9419  2.0048
 5358TIP3   OH237488   3.726   2.603   3.877  0.0377  0.5626 -0.4373
 5358TIP3    H137489   3.689   2.622   3.964 -1.1594  2.4377 -1.3021
 5358TIP3    H237490   3.820   2.621   3.887  0.2614 -1.0746  0.9221
 5359TIP3   OH237491   3.970   2.921  13.437 -0.3226 -0.6238  0.2333
 5359TIP3    H137492   4.022   2.976  13.378  0.0258 -0.5042  0.6424
 5359TIP3    H237493   3.949   2.843  13.385  1.0544 -1.0994  0.3371
 5360TIP3   OH237494   2.301   5.207   2.064  0.4799 -0.0307  0.2964
 5360TIP3    H137495   2.254   5.199   1.980  1.8088 -2.0086 -0.3337
 5360TIP3    H237496   2.233   5.199   2.130 -0.5319  0.9961 -0.5786
 5361TIP3   OH237497   4.781   5.476  13.091 -0.0914 -0.1332 -0.0135
 5361TIP3    H137498   4.805   5.422  13.166 -0.8116  0.0144  0.3349
 5361TIP3    H237499   4.864   5.509  13.057  0.2393 -0.2147  0.7014
 5362TIP3   OH237500   3.901   4.471   1.432  0.0981 -0.5153 -0.2234
 5362TIP3    H137501   3.987   4.461   1.473 -0.2169  1.0949  0.8930
 5362TIP3    H237502   3.877   4.382   1.407  1.3393 -1.2392  1.0014
 5363TIP3   OH237503   5.377   1.461  15.144  0.1581  0.2173 -0.3984
 5363TIP3    H137504   5.289   1.489  15.169  0.5809 -0.4319  2.1396
 5363TIP3    H237505   5.368   1.368  15.125  0.3095  0.1050  0.0603
 5364TIP3   OH237506   3.801   6.309   4.914 -0.4234  0.2264 -0.0132
 5364TIP3    H137507   3.789   6.247   4.842 -0.6823 -0.0255  0.2515
 5364TIP3    H237508   3.850   6.382   4.874 -0.3341 -0.0322 -0.3797
 5365TIP3   OH237509   2.724   0.817  14.727  0.6633  0.1103 -0.4340
 5365TIP3    H137510   2.766   0.829  14.642 -2.3093  1.3150 -1.8613
 5365TIP3    H237511   2.693   0.904  14.751  0.6166 -0.3834  1.4386
 5366TIP3   OH237512   0.057   3.189   2.488 -0.0270 -0.1746 -0.0962
 5366TIP3    H137513   0.099   3.104   2.470 -0.5140 -1.1395  2.8222
 5366TIP3    H237514   0.100   3.249   2.427  1.0502 -2.3001 -1.5977
 5367TIP3   OH237515   0.623   2.111   2.163 -0.1787  0.1542  0.2778
 5367TIP3    H137516   0.549   2.124   2.104 -0.3764 -1.7634  0.0497
 5367TIP3    H237517   0.587   2.062   2.237  0.7691 -0.4432  0.3587
 5368TIP3   OH237518   5.617   4.015  14.943  0.2807  0.1542 -0.1348
 5368TIP3    H137519   5.655   4.085  14.996 -0.1248  1.3615 -1.4062
 5368TIP3    H237520   5.653   4.028  14.856 -0.2788 -0.8502 -0.5323
 5369TIP3   OH237521   1.634   0.036  13.810  0.2003 -0.3242  0.3646
 5369TIP3    H137522   1.675   0.109  13.765  0.4802 -1.3646 -1.1097
 5369TIP3    H237523   1.669  -0.042  13.768 -2.1979 -1.2838 -0.0305
 5370TIP3   OH237524   4.696   0.127   2.499 -0.5036  0.1338 -0.3227
 5370TIP3    H137525   4.761   0.152   2.433 -0.8755 -0.1346 -0.7932
 5370TIP3    H237526   4.726   0.170   2.579 -0.3382  0.8866 -0.7795
 5371TIP3   OH237527   5.246   0.184   4.440 -0.5277 -0.5090  0.2545
 5371TIP3    H137528   5.248   0.089   4.450 -0.9819 -1.2734 -4.6503
 5371TIP3    H237529   5.338   0.210   4.441 -0.3490 -1.1267  0.5585
 5372TIP3   OH237530   2.999   2.169  15.811 -0.2872 -0.2734 -0.3978
 5372TIP3    H137531   2.932   2.231  15.840  0.2815  0.8254 -1.3554
 5372TIP3    H237532   2.955   2.084  15.814 -1.7769  0.4238 -1.0697
 5373TIP3   OH237533   3.176   1.218  16.586 -0.3743 -0.2038 -0.0856
 5373TIP3    H137534   3.132   1.149  16.536 -0.8986  1.9552 -2.8196
 5373TIP3    H237535   3.264   1.220  16.550  0.1745 -0.4814  1.1705
 5374TIP3   OH237536   4.041   0.432   4.537  0.1860  0.2468  0.2853
 5374TIP3    H137537   4.029   0.339   4.557  0.0064  0.5344  1.5754
 5374TIP3    H237538   4.121   0.435   4.483  0.3760 -0.6205  0.5102
 5375TIP3   OH237539   5.009   1.118  15.502  0.0061  0.0919  0.4968
 5375TIP3    H137540   5.069   1.117  15.427  2.7937 -1.3043  2.5539
 5375TIP3    H237541   5.022   1.204  15.542  1.4425 -0.5115  1.4293
 5376TIP3   OH237542   5.969   4.206  14.850  0.3762 -0.1662 -0.0601
 5376TIP3    H137543   5.925   4.265  14.911  0.6554  1.1177 -1.0428
 5376TIP3    H237544   5.920   4.217  14.768  0.2751 -1.5279 -0.1947
 5377TIP3   OH237545   3.016   4.632   5.998 -0.1184 -0.1438 -0.4488
 5377TIP3    H137546   3.037   4.639   5.905  0.6611 -0.6588 -0.3206
 5377TIP3    H237547   2.932   4.585   5.999 -2.4716  3.6592 -1.0399
 5378TIP3   OH237548   6.569   2.419   2.277 -0.0041  0.0138  0.4899
 5378TIP3    H137549   6.587   2.502   2.322  1.9053 -0.4155  0.5832
 5378TIP3    H237550   6.558   2.443   2.185 -1.2148  0.5489  0.7415
 5379TIP3   OH237551   5.942   5.672   4.007 -0.5887  0.4085 -0.0754
 5379TIP3    H137552   5.913   5.581   3.998 -0.2219  0.2797 -0.0142
 5379TIP3    H237553   5.891   5.707   4.080 -2.1011  0.8410 -1.3029
 5380TIP3   OH237554   5.110   5.424  10.823  0.2012 -0.2119  0.1565
 5380TIP3    H137555   5.094   5.519  10.826 -1.6114 -0.5076  1.5333
 5380TIP3    H237556   5.042   5.390  10.765  0.9127 -0.6750 -0.4202
 5381TIP3   OH237557   1.606   1.251   2.827 -0.0569  0.2306  0.3119
 5381TIP3    H137558   1.514   1.274   2.836 -0.0189  0.6658 -0.3311
 5381TIP3    H237559   1.646   1.278   2.910 -0.2676  1.2671  0.0921
 5382TIP3   OH237560   4.762   6.266  11.342  0.0616 -0.5876  0.4883
 5382TIP3    H137561   4.816   6.225  11.275 -0.2645  0.9007 -0.7253
 5382TIP3    H237562   4.682   6.213  11.344 -0.9530  0.6934 -2.0645
 5383TIP3   OH237563   4.526   1.509   4.194 -0.4089 -0.1837 -0.1861
 5383TIP3    H137564   4.500   1.591   4.152 -2.0485  0.3393  1.6943
 5383TIP3    H237565   4.554   1.535   4.282  1.0251 -1.4412 -0.2347
 5384TIP3   OH237566   0.592   4.871  16.987 -0.3856 -0.6537  0.1366
 5384TIP3    H137567   0.625   4.783  16.971 -0.8700 -0.7992 -0.0910
 5384TIP3    H237568   0.661   4.929  16.958 -0.0367 -0.9603  0.3477
 5385TIP3   OH237569   5.434   4.164   2.851 -0.1861  0.2552  0.5749
 5385TIP3    H137570   5.424   4.107   2.927 -1.3779  1.3327  1.2747
 5385TIP3    H237571   5.496   4.231   2.880 -0.6247  0.6545  0.6023
 5386TIP3   OH237572   5.688   0.750  16.985  0.0724 -0.1898 -0.1272
 5386TIP3    H137573   5.624   0.815  17.014 -0.5376 -0.4803 -0.8109
 5386TIP3    H237574   5.744   0.737  17.062 -0.0609  0.8104  0.1596
 5387TIP3   OH237575   1.707   4.954  15.591  0.5126 -0.2530  0.0148
 5387TIP3    H137576   1.794   4.975  15.557  1.4722 -0.8509  1.9637
 5387TIP3    H237577   1.693   4.863  15.563 -0.5043  0.4959 -2.1749
 5388TIP3   OH237578   5.105   0.040   0.120  0.6026 -0.2047  0.1854
 5388TIP3    H137579   5.024   0.068   0.077  0.2822 -0.8477  0.3590
 5388TIP3    H237580   5.076  -0.003   0.200  0.9392 -2.8181 -0.9846
 5389TIP3   OH237581   5.015   5.357   5.541  0.6015 -0.1174 -0.3288
 5389TIP3    H137582   5.039   5.352   5.449  1.2729 -1.2520 -0.1092
 5389TIP3    H237583   5.023   5.450   5.563  5.2784 -0.2902 -0.2139
 5390TIP3   OH237584   5.774   2.441   3.310 -0.3317  0.0247  0.1187
 5390TIP3    H137585   5.781   2.379   3.383 -1.5665 -0.0814  0.1783
 5390TIP3    H237586   5.713   2.398   3.249 -1.2891  1.2066  0.2059
 5391TIP3   OH237587   3.698   4.076  11.120  0.3786  0.2836 -0.0996
 5391TIP3    H137588   3.723   4.144  11.057  1.3371 -0.4842 -0.5584
 5391TIP3    H237589   3.659   4.007  11.067 -1.1199  0.6861  0.4242
 5392TIP3   OH237590   5.560   6.567   2.704  0.8057  0.1155 -0.0160
 5392TIP3    H137591   5.568   6.639   2.641  1.0161 -0.4102 -0.6005
 5392TIP3    H237592   5.466   6.549   2.708  0.7963  0.1163 -0.2189
 5393TIP3   OH237593   0.952   5.198   5.262  0.6969  0.3843 -0.0287
 5393TIP3    H137594   1.025   5.142   5.286  1.5465  1.5511  0.2074
 5393TIP3    H237595   0.877   5.162   5.309  0.9714 -1.1802 -0.7262
 5394TIP3   OH237596   0.745   6.640  11.556 -0.2973  0.3707 -0.2906
 5394TIP3    H137597   0.731   6.729  11.589  2.3222  1.6981 -2.3348
 5394TIP3    H237598   0.734   6.648  11.461 -0.1111 -1.5233 -0.5183
 5395TIP3   OH237599   4.976   4.723  12.428 -0.1248  0.1656 -0.2253
 5395TIP3    H137600   4.891   4.701  12.391 -0.8360 -0.0055  1.4111
 5395TIP3    H237601   5.016   4.638  12.448  0.3117  0.2493 -0.7447
 5396TIP3   OH237602   6.674   4.195   3.698 -0.3281 -1.2165  0.1706
 5396TIP3    H137603   6.600   4.254   3.711  0.7409 -0.3477  2.9467
 5396TIP3    H237604   6.739   4.248   3.652  0.6879 -0.0214  2.7856
 5397TIP3   OH237605   4.227   3.656  12.369  0.8507  0.2001 -0.6889
 5397TIP3    H137606   4.183   3.571  12.366  0.0706  0.6205 -1.8785
 5397TIP3    H237607   4.314   3.637  12.405 -0.6875 -0.4552  3.1663
 5398TIP3   OH237608   1.300   5.409   4.393 -0.1834 -0.2330  0.0805
 5398TIP3    H137609   1.261   5.363   4.318  1.4281  0.3069 -1.1335
 5398TIP3    H237610   1.245   5.384   4.467 -1.1227 -1.7433 -1.0640
 5399TIP3   OH237611   5.199   6.709  13.404 -0.3506  0.2297 -0.3413
 5399TIP3    H137612   5.278   6.747  13.366  0.0381  0.9934  1.1430
 5399TIP3    H237613   5.229   6.625  13.440  0.2101  1.1546  1.5290
 5400TIP3   OH237614   1.307   3.996   2.312  0.1381  0.0976  0.0087
 5400TIP3    H137615   1.391   4.006   2.357  0.3421  1.4630 -0.6306
 5400TIP3    H237616   1.265   3.921   2.356  2.2121 -1.4564 -0.5248
 5401TIP3   OH237617   2.759   3.667   4.267  0.0605 -0.1436 -0.4475
 5401TIP3    H137618   2.715   3.725   4.204 -1.2150  1.7999  2.0340
 5401TIP3    H237619   2.691   3.607   4.297 -0.2508  0.9545  1.2322
 5402TIP3   OH237620   3.127   4.577  16.132 -0.2345 -0.9749  0.2026
 5402TIP3    H137621   3.062   4.545  16.194 -0.0525  2.0849  2.1870
 5402TIP3    H237622   3.096   4.545  16.047 -2.3395 -2.5811  1.4613
 5403TIP3   OH237623   0.934   6.042   5.377 -0.5281  0.2419 -0.3356
 5403TIP3    H137624   0.920   6.039   5.472 -1.9310 -0.4252 -0.5319
 5403TIP3    H237625   0.907   5.955   5.347 -0.6565  0.6457 -1.4093
 5404TIP3   OH237626   2.951   1.765   2.969 -0.3183 -0.4636  0.0312
 5404TIP3    H137627   2.968   1.829   2.900 -2.1404  0.0193 -0.0004
 5404TIP3    H237628   2.946   1.681   2.923  4.4293 -1.1854  0.3128
 5405TIP3   OH237629   6.733   1.578  13.786  0.3749  0.2343 -0.0870
 5405TIP3    H137630   6.742   1.612  13.696  0.6492  0.8131  0.1499
 5405TIP3    H237631   6.765   1.650  13.841  3.0700 -1.1668  0.3502
 5406TIP3   OH237632   1.310   4.787   6.427  0.1120 -0.0883  0.0561
 5406TIP3    H137633   1.238   4.775   6.488  0.1812 -0.3145  0.0924
 5406TIP3    H237634   1.378   4.727   6.457  0.1252 -0.2409 -0.2748
 5407TIP3   OH237635   3.951   0.431   5.502 -0.4094  0.4906 -0.4424
 5407TIP3    H137636   3.873   0.423   5.446 -0.7147 -1.1542  0.1507
 5407TIP3    H237637   3.960   0.525   5.517 -1.2380  0.8592 -1.9539
 5408TIP3   OH237638   1.278   6.347   4.651  0.2152  0.0646 -0.0302
 5408TIP3    H137639   1.333   6.271   4.670 -0.6775 -0.2955  1.2047
 5408TIP3    H237640   1.340   6.414   4.622  1.0259 -1.0922 -1.0687
 5409TIP3   OH237641   1.318   5.779  15.762  0.4270  0.1309 -0.3117
 5409TIP3    H137642   1.273   5.762  15.844  1.2505 -0.5636  0.0123
 5409TIP3    H237643   1.280   5.861  15.730 -0.5854 -0.1023  0.2644
 5410TIP3   OH237644   0.551   4.190   0.099 -0.0034  0.8426  0.0269
 5410TIP3    H137645   0.472   4.229   0.061 -0.4341  0.4830  0.5303
 5410TIP3    H237646   0.526   4.100   0.120  1.0612  0.1943 -1.3618
 5411TIP3   OH237647   1.633   1.568   1.087  0.3655 -0.2565  0.1779
 5411TIP3    H137648   1.540   1.563   1.106  0.4468 -0.3791  0.5579
 5411TIP3    H237649   1.651   1.491   1.034  0.5545 -1.1207  1.4433
 5412TIP3   OH237650   4.116   5.436   0.909 -0.1919 -0.4933 -0.3444
 5412TIP3    H137651   4.061   5.498   0.861 -1.5378 -0.2386  1.4510
 5412TIP3    H237652   4.169   5.491   0.967  0.2692 -0.8974 -0.3747
 5413TIP3   OH237653   1.922   0.999   1.634  0.1919  0.2487  0.4888
 5413TIP3    H137654   1.834   0.974   1.661 -0.5128  1.6376 -0.3947
 5413TIP3    H237655   1.920   1.094   1.627  1.1617  0.1993 -1.4549
 5414TIP3   OH237656   1.786   2.384  13.371  0.0412  0.1302  0.7999
 5414TIP3    H137657   1.694   2.404  13.387 -0.6440 -2.2047  0.2112
 5414TIP3    H237658   1.804   2.310  13.429  1.4195  0.2499  0.5471
 5415TIP3   OH237659   4.739   3.765  14.980 -0.4203 -0.0109 -0.0015
 5415TIP3    H137660   4.804   3.835  14.989 -0.7390  0.2501  0.3277
 5415TIP3    H237661   4.656   3.808  15.000 -0.5880 -0.5535  0.4783
 5416TIP3   OH237662   3.469   4.420   4.153 -0.4548 -0.2875 -0.0874
 5416TIP3    H137663   3.464   4.379   4.239 -1.4598  1.0637  0.5237
 5416TIP3    H237664   3.423   4.359   4.095 -0.7934 -0.6482  0.5505
 5417TIP3   OH237665   4.914   2.062  15.335  0.3584  0.0525  0.4087
 5417TIP3    H137666   4.917   2.090  15.426  0.2983 -0.5205  0.5936
 5417TIP3    H237667   4.860   1.983  15.336 -0.6735  0.7252 -0.3078
 5418TIP3   OH237668   4.684   2.222  16.424 -0.4587  0.4258  0.3205
 5418TIP3    H137669   4.621   2.198  16.357 -0.7913  1.7837  0.1196
 5418TIP3    H237670   4.753   2.155  16.418 -1.8595 -1.0978  0.5609
 5419TIP3   OH237671   6.422   6.472   3.402  0.2195 -0.0226  0.1815
 5419TIP3    H137672   6.485   6.494   3.333  0.7364 -1.3236  0.2119
 5419TIP3    H237673   6.344   6.441   3.355 -0.2088  1.0579  0.1559
 5420TIP3   OH237674   3.646   3.283  16.727 -0.0526 -0.0755  0.0189
 5420TIP3    H137675   3.691   3.239  16.799  0.3230 -0.3089 -0.3517
 5420TIP3    H237676   3.667   3.230  16.649  0.6197  0.8832 -0.4777
 5421TIP3   OH237677   2.551   2.150   2.499  0.1056  0.0331 -0.4620
 5421TIP3    H137678   2.464   2.184   2.478 -0.1459 -0.9924 -1.1417
 5421TIP3    H237679   2.605   2.173   2.424  0.5616  1.1332  0.1936
 5422TIP3   OH237680   5.982   2.811   1.362 -0.6208 -0.0270  0.7024
 5422TIP3    H137681   5.937   2.875   1.418 -0.9177  0.1081  0.3162
 5422TIP3    H237682   5.960   2.839   1.272  0.3152  0.0990  0.5056
 5423TIP3   OH237683   3.632   1.732   3.000  0.5166  0.3264  0.0765
 5423TIP3    H137684   3.715   1.700   3.036 -0.4126 -0.6078  1.5091
 5423TIP3    H237685   3.565   1.695   3.058 -0.8687  1.6657 -0.5956
 5424TIP3   OH237686   5.453   3.759   5.701 -0.2252  0.1538  0.0477
 5424TIP3    H137687   5.424   3.846   5.727 -0.5763 -0.0839  0.4668
 5424TIP3    H237688   5.447   3.706   5.781  0.0649 -0.2343 -0.1819
 5425TIP3   OH237689   2.787   5.008   3.306  0.2647  0.3223 -0.7461
 5425TIP3    H137690   2.811   5.086   3.257 -1.2864  0.6933 -0.9670
 5425TIP3    H237691   2.711   4.973   3.259 -0.7273  0.2062  0.8822
 5426TIP3   OH237692   2.149   3.761  11.592  0.2504 -0.0007 -0.1472
 5426TIP3    H137693   2.118   3.822  11.525  0.2773 -1.5155 -1.5879
 5426TIP3    H237694   2.193   3.692  11.544  3.6235  0.6531  1.6156
 5427TIP3   OH237695   3.104   6.028  15.882  0.4422  0.0274  0.1286
 5427TIP3    H137696   3.057   6.068  15.809  0.6465 -1.6150 -0.9411
 5427TIP3    H237697   3.036   6.009  15.947 -0.2994 -1.5605 -1.0537
 5428TIP3   OH237698   2.463   0.383   4.629 -0.4019  0.0422  0.2620
 5428TIP3    H137699   2.525   0.414   4.562  0.7080  1.7670  1.9628
 5428TIP3    H237700   2.396   0.452   4.632 -0.7294 -0.2895  0.5781
 5429TIP3   OH237701   2.265   5.980  13.156 -0.2476 -0.5062 -0.0606
 5429TIP3    H137702   2.252   6.066  13.195 -0.1391 -0.7415  0.5016
 5429TIP3    H237703   2.301   5.998  13.069  0.6692 -0.0099  0.4140
 5430TIP3   OH237704   4.459   6.079   0.091 -0.3053 -0.3079  0.0686
 5430TIP3    H137705   4.408   6.128   0.027 -1.2269 -2.0877 -0.6426
 5430TIP3    H237706   4.499   6.008   0.041  1.6894  0.1450  0.8960
 5431TIP3   OH237707   4.457   3.592   0.549  0.0372 -0.9968  0.5693
 5431TIP3    H137708   4.411   3.586   0.465 -0.6105  2.6287  0.4824
 5431TIP3    H237709   4.550   3.590   0.526 -0.0795  1.9392 -0.6643
 5432TIP3   OH237710   6.182   6.241   4.982  0.3435  0.5467 -0.1718
 5432TIP3    H137711   6.103   6.283   5.017  1.1606  2.1181 -0.1196
 5432TIP3    H237712   6.237   6.314   4.953  1.6004 -0.5342 -0.6091
 5433TIP3   OH237713   3.647   5.133  14.794 -0.4505  0.4291  0.1613
 5433TIP3    H137714   3.605   5.141  14.879 -0.9532 -0.3183 -0.0110
 5433TIP3    H237715   3.729   5.182  14.803 -0.6185  0.5699  0.9907
 5434TIP3   OH237716   4.498   2.382   0.378  0.6660 -0.1100  0.0135
 5434TIP3    H137717   4.415   2.363   0.422  1.0213  0.9048  1.1789
 5434TIP3    H237718   4.529   2.463   0.419  3.2915 -1.5760  1.1899
 5435TIP3   OH237719   5.456   0.299   1.823  0.7686  0.4438 -0.1830
 5435TIP3    H137720   5.389   0.359   1.791  0.2207 -0.8635 -1.6451
 5435TIP3    H237721   5.426   0.275   1.911 -0.8738 -0.3187 -0.9126
 5436TIP3   OH237722   4.258   3.573  16.644  0.5519  0.6149  0.0759
 5436TIP3    H137723   4.248   3.611  16.557  2.3388  0.9949  0.0111
 5436TIP3    H237724   4.256   3.648  16.704 -0.8157  0.3447  0.4129
 5437TIP3   OH237725   3.948   1.113   5.751 -0.6664  0.5995 -0.5118
 5437TIP3    H137726   4.004   1.182   5.786  1.2293 -0.5508 -1.1355
 5437TIP3    H237727   3.918   1.066   5.828 -1.4340  1.6764 -0.1250
 5438TIP3   OH237728   3.414   3.377  14.214 -0.3951  0.2374  0.0287
 5438TIP3    H137729   3.476   3.434  14.170 -1.9486  1.2649 -0.9204
 5438TIP3    H237730   3.440   3.380  14.306  2.5257 -1.4632 -0.5972
 5439TIP3   OH237731   1.683   3.106   6.482  0.3360 -0.1396 -0.4475
 5439TIP3    H137732   1.598   3.079   6.449  0.1026  1.1432 -0.9824
 5439TIP3    H237733   1.680   3.087   6.576  0.0999 -1.6185 -0.7303
 5440TIP3   OH237734   6.029   0.179  15.965  0.9496  0.5290  0.0458
 5440TIP3    H137735   6.069   0.159  15.881 -0.1423 -0.1555 -0.3328
 5440TIP3    H237736   5.938   0.151  15.956  0.8192  0.4043  1.4668
 5441TIP3   OH237737   2.847   2.520  17.122 -0.0602 -0.2214  0.4499
 5441TIP3    H137738   2.921   2.512  17.062  0.9198 -0.2076  1.6153
 5441TIP3    H237739   2.786   2.452  17.094  0.3619 -0.1987 -0.5695
 5442TIP3   OH237740   6.312   1.708   0.489  0.3705 -0.4087 -0.7547
 5442TIP3    H137741   6.248   1.638   0.477  0.6467 -0.7393 -0.3182
 5442TIP3    H237742   6.295   1.743   0.576  0.6003 -0.3047 -0.7495
 5443TIP3   OH237743   0.875   1.897   2.376  0.0343  0.0365  0.0266
 5443TIP3    H137744   0.847   1.901   2.285  3.3922  1.8954 -1.1001
 5443TIP3    H237745   0.881   1.803   2.395 -0.8521 -0.3802 -1.5995
 5444TIP3   OH237746   6.388   0.426   1.202  0.3233  0.6502  0.0891
 5444TIP3    H137747   6.326   0.362   1.237  1.6899 -2.8688 -3.2134
 5444TIP3    H237748   6.451   0.373   1.153  2.8891  4.4587 -1.1154
 5445TIP3   OH237749   6.207   6.389  15.519  0.4079 -0.0866  0.5109
 5445TIP3    H137750   6.136   6.346  15.566  0.6841 -0.5358  0.5236
 5445TIP3    H237751   6.212   6.477  15.559 -0.5552  0.1797  0.0687
 5446TIP3   OH237752   3.615   2.200   5.129 -0.3939  0.4414  0.1019
 5446TIP3    H137753   3.529   2.200   5.088 -0.6715  2.0133  0.6392
 5446TIP3    H237754   3.606   2.256   5.206  0.8491 -0.2053  0.7479
 5447TIP3   OH237755   3.968   6.623   2.758  0.1298  0.7674 -0.0946
 5447TIP3    H137756   4.006   6.711   2.756  0.3736  0.7423  1.9160
 5447TIP3    H237757   3.906   6.622   2.685  2.5837  1.4179 -2.3630
 5448TIP3   OH237758   4.529   4.313  12.858 -0.4155  0.3123 -0.0082
 5448TIP3    H137759   4.531   4.337  12.765 -0.0142  0.7058  0.1041
 5448TIP3    H237760   4.478   4.232  12.859  1.2769 -0.8289 -0.8387
 5449TIP3   OH237761   0.728   3.974  12.265 -0.1579  0.2264  0.4467
 5449TIP3    H137762   0.683   3.920  12.199 -1.1032 -0.4045  1.5657
 5449TIP3    H237763   0.703   4.064  12.244 -2.0711 -0.1058  1.0667
 5450TIP3   OH237764   4.323   4.538  11.798 -0.3297 -0.3142 -0.5717
 5450TIP3    H137765   4.367   4.597  11.860 -1.6783  0.4199 -0.2592
 5450TIP3    H237766   4.369   4.455  11.806  1.0741  0.4475 -0.3798
 5451TIP3   OH237767   3.200   3.567  10.705  0.1580  0.4140 -0.4627
 5451TIP3    H137768   3.145   3.642  10.683  0.8506  1.1730  0.3149
 5451TIP3    H237769   3.141   3.491  10.700 -0.2258  0.8061 -2.6440
 5452TIP3   OH237770   5.285   1.258  15.427  0.1213 -0.1622 -0.1890
 5452TIP3    H137771   5.312   1.346  15.456  1.4852 -0.0585 -1.6474
 5452TIP3    H237772   5.357   1.228  15.373 -0.8650 -1.7224 -0.6909
 5453TIP3   OH237773   2.460   1.146  12.639 -0.1352 -0.2188 -0.1414
 5453TIP3    H137774   2.493   1.174  12.725  2.1373  0.5115 -1.1665
 5453TIP3    H237775   2.367   1.169  12.641 -0.4450 -1.3264  2.5293
 5454TIP3   OH237776   3.922   1.858   5.654  0.7016 -0.5272  0.2703
 5454TIP3    H137777   3.839   1.874   5.608  0.2798 -0.3841  1.0581
 5454TIP3    H237778   3.926   1.763   5.664 -0.0440 -0.4650  1.4056
 5455TIP3   OH237779   6.161   0.927  13.665  0.6527  0.2947  0.4346
 5455TIP3    H137780   6.215   0.941  13.742  1.6110  3.7688 -0.7025
 5455TIP3    H237781   6.071   0.940  13.697  0.8631 -0.2304  1.2886
 5456TIP3   OH237782   6.600   4.724  15.461  0.1143  0.6121  0.1625
 5456TIP3    H137783   6.665   4.770  15.409 -0.2372  0.5857 -0.3083
 5456TIP3    H237784   6.646   4.646  15.494  1.0991  1.9161  2.0385
 5457TIP3   OH237785   1.539   1.867  13.573  0.5939 -0.1179  0.2486
 5457TIP3    H137786   1.523   1.895  13.663  0.5226 -1.6839  0.7581
 5457TIP3    H237787   1.452   1.852  13.536  0.6186  0.6713 -0.1365
 5458TIP3   OH237788   3.550   2.902   3.762 -0.3853  0.1801  0.2739
 5458TIP3    H137789   3.574   2.946   3.843 -1.4211 -0.0394  0.7113
 5458TIP3    H237790   3.456   2.886   3.769 -0.6587  0.8559 -1.3084
 5459TIP3   OH237791   3.563   4.994   5.856 -0.0144 -0.5726  0.8714
 5459TIP3    H137792   3.602   4.951   5.933  1.1146  0.2791  0.7991
 5459TIP3    H237793   3.569   4.928   5.787 -0.4117 -1.1036  1.3231
 5460TIP3   OH237794   4.920   1.787   5.987  0.0908 -0.2904 -0.2216
 5460TIP3    H137795   4.865   1.830   6.052  0.7361 -0.5975  0.5488
 5460TIP3    H237796   4.897   1.828   5.904 -0.1527  0.6964  0.3214
 5461TIP3   OH237797   2.245   2.577   1.553 -0.0685 -0.5919  0.2290
 5461TIP3    H137798   2.318   2.566   1.493  1.1015  0.6277  1.3592
 5461TIP3    H237799   2.286   2.597   1.637 -1.7085 -0.0346  0.9347
 5462TIP3   OH237800   4.559   2.843  16.052 -0.1628 -0.0086  0.0739
 5462TIP3    H137801   4.561   2.796  16.135 -1.6317 -0.2917 -0.0351
 5462TIP3    H237802   4.599   2.782  15.989 -2.3954 -1.3352 -0.1446
 5463TIP3   OH237803   6.014   3.911   3.397  0.1158 -0.3721  0.3183
 5463TIP3    H137804   6.074   3.968   3.444  1.3439 -1.5511  0.2316
 5463TIP3    H237805   5.977   3.966   3.328 -0.9038  1.0843  1.9371
 5464TIP3   OH237806   2.181   1.153  11.828 -0.3058  0.3648  0.1429
 5464TIP3    H137807   2.144   1.138  11.915 -0.7297  1.5900  0.1874
 5464TIP3    H237808   2.215   1.242  11.831  1.8730 -0.4001 -0.1902
 5465TIP3   OH237809   0.007   6.173  13.211 -0.3784 -0.1289  0.3822
 5465TIP3    H137810   0.075   6.231  13.177 -0.5070  0.2465  0.7582
 5465TIP3    H237811   0.051   6.117  13.275 -0.4757  0.2894  0.8148
 5466TIP3   OH237812   1.602   4.300  16.850 -0.2983 -0.1317  0.1077
 5466TIP3    H137813   1.678   4.316  16.906  0.5584  1.2270 -1.3621
 5466TIP3    H237814   1.548   4.378  16.859 -0.5796 -0.2768 -0.2719
 5467TIP3   OH237815   0.476   3.127  14.162 -0.1845 -0.2967  0.1362
 5467TIP3    H137816   0.509   3.049  14.205 -2.9291 -1.1142  0.9424
 5467TIP3    H237817   0.426   3.173  14.229 -0.7472  0.8278 -0.9961
 5468TIP3   OH237818   0.832   6.444   0.915  0.6248  0.3371  0.1569
 5468TIP3    H137819   0.758   6.400   0.874 -0.3055 -0.5730  2.6646
 5468TIP3    H237820   0.826   6.535   0.883 -0.6508 -0.0693 -0.8520
 5469TIP3   OH237821   6.045   3.464  15.793  0.1018 -0.0937  0.2018
 5469TIP3    H137822   5.987   3.514  15.851  1.1606  1.1333  0.2540
 5469TIP3    H237823   6.127   3.456  15.843  0.1851 -1.3058 -0.0947
 5470TIP3   OH237824   1.692   1.489   2.665  0.0887  0.0955  0.2081
 5470TIP3    H137825   1.635   1.427   2.711  0.9789  0.5398  1.9715
 5470TIP3    H237826   1.768   1.437   2.638 -1.1430 -0.5608 -2.3819
 5471TIP3   OH237827   6.637   3.411   3.693 -0.6769  0.4450  0.3056
 5471TIP3    H137828   6.591   3.340   3.739 -0.6165  0.0655 -0.2102
 5471TIP3    H237829   6.677   3.462   3.763 -1.3616  0.4157  0.7285
 5472TIP3   OH237830   5.091   5.972  14.797  0.2562 -0.1164 -0.2194
 5472TIP3    H137831   5.006   5.983  14.754 -0.4242  1.1111  1.3537
 5472TIP3    H237832   5.080   5.894  14.851  0.4313 -0.4478 -0.6509
 5473TIP3   OH237833   3.135   5.875   1.191  0.3685 -0.5288  0.0002
 5473TIP3    H137834   3.059   5.889   1.247  0.2754 -1.4215  0.1184
 5473TIP3    H237835   3.102   5.888   1.102  0.3343  0.1371  0.1091
 5474TIP3   OH237836   0.915   2.916   3.932  0.3925 -0.6739 -0.0345
 5474TIP3    H137837   0.826   2.949   3.924  0.1662 -0.4897  2.3378
 5474TIP3    H237838   0.932   2.870   3.850 -0.2262  2.9858 -2.4565
 5475TIP3   OH237839   0.981   2.556   2.500 -0.4547  0.0461  0.7586
 5475TIP3    H137840   1.031   2.628   2.461 -0.5362  0.0358  0.6368
 5475TIP3    H237841   1.031   2.478   2.478  1.2146  0.2671  3.2689
 5476TIP3   OH237842   4.530   5.416  16.667  0.1116  0.3020  0.3527
 5476TIP3    H137843   4.545   5.407  16.762  0.9682 -0.8743  0.1221
 5476TIP3    H237844   4.617   5.433  16.631  0.0285 -0.7745 -0.3816
 5477TIP3   OH237845   3.205   1.223   6.213  0.4451  0.5321 -0.3439
 5477TIP3    H137846   3.195   1.145   6.158 -0.9159  0.8975 -0.6518
 5477TIP3    H237847   3.294   1.216   6.249  1.1484 -0.0476 -2.0787
 5478TIP3   OH237848   6.748   4.497  15.531  0.0056  0.7807 -0.6036
 5478TIP3    H137849   6.784   4.451  15.455 -0.5450 -3.3582  1.3719
 5478TIP3    H237850   6.819   4.494  15.596 -0.2001  2.5401 -0.2403
 5479TIP3   OH237851   3.139   4.326   0.802  0.2691  0.3792  0.0193
 5479TIP3    H137852   3.177   4.413   0.812 -0.3563  0.6808 -0.1874
 5479TIP3    H237853   3.194   4.283   0.736 -1.4215  1.8190 -2.4406
 5480TIP3   OH237854   6.100   3.478  16.560 -0.6906  0.3851  0.1068
 5480TIP3    H137855   6.165   3.532  16.604 -0.1991  0.9850 -1.2873
 5480TIP3    H237856   6.023   3.534  16.554 -0.4721  0.6220 -0.5488
 5481TIP3   OH237857   5.930   4.211   6.283  0.9641  0.3618  0.3298
 5481TIP3    H137858   5.890   4.125   6.297 -0.6068  0.8375 -0.9784
 5481TIP3    H237859   5.906   4.234   6.194  2.0365  1.8279  0.3913
 5482TIP3   OH237860   2.253   2.906   5.100  0.4944  0.1693 -0.6269
 5482TIP3    H137861   2.320   2.858   5.148  1.2949  1.2956 -0.5734
 5482TIP3    H237862   2.172   2.856   5.113  1.4019 -1.4756 -1.0803
 5483TIP3   OH237863   3.024   6.176  15.649 -0.0905 -0.8117  0.6864
 5483TIP3    H137864   3.086   6.243  15.621  0.7474 -2.0511 -0.5780
 5483TIP3    H237865   2.939   6.220  15.648  0.1557 -0.1987 -1.9999
 5484TIP3   OH237866   0.980   3.521   4.871 -0.1235  0.0630  0.3796
 5484TIP3    H137867   0.917   3.531   4.800 -0.1800 -2.1395  0.0546
 5484TIP3    H237868   1.043   3.592   4.858 -1.2323  0.8764 -0.6895
 5485TIP3   OH237869   5.689   0.596  11.233  0.3563  0.0512  0.2509
 5485TIP3    H137870   5.770   0.575  11.187  0.2758  0.2996 -0.0052
 5485TIP3    H237871   5.704   0.566  11.323  0.4414 -0.6136  0.0228
 5486TIP3   OH237872   4.157   1.228  17.017 -0.0889 -0.0701  0.0635
 5486TIP3    H137873   4.144   1.315  17.055  0.7120  0.1497 -0.1543
 5486TIP3    H237874   4.222   1.241  16.949  0.3251 -0.9111  0.2842
 5487TIP3   OH237875   6.507   3.800   3.741  0.1001 -0.1402  0.0345
 5487TIP3    H137876   6.480   3.734   3.677  1.1591 -0.5570 -0.0134
 5487TIP3    H237877   6.540   3.748   3.815  0.4055  0.3321  0.2334
 5488TIP3   OH237878   4.982   5.678   6.230 -0.2364 -0.0478 -0.3405
 5488TIP3    H137879   4.921   5.747   6.202 -0.9527  0.1306  1.5316
 5488TIP3    H237880   5.040   5.722   6.292  0.2485 -0.8000 -0.2536
 5489TIP3   OH237881   3.872   5.547   3.220  0.2304 -0.2359  0.9405
 5489TIP3    H137882   3.923   5.619   3.257  0.9697 -0.6038  0.6608
 5489TIP3    H237883   3.781   5.576   3.226  0.5484  0.8980  0.4644
 5490TIP3   OH237884   4.219   3.216   3.879  0.0752 -0.0554  0.4580
 5490TIP3    H137885   4.159   3.231   3.952  0.7591 -0.9712  1.2334
 5490TIP3    H237886   4.302   3.192   3.921  1.2140  1.8458 -0.5480
 5491TIP3   OH237887   6.245   2.140  14.889 -0.5964 -0.4935 -0.5608
 5491TIP3    H137888   6.280   2.155  14.801 -0.5588 -0.2889 -0.5098
 5491TIP3    H237889   6.189   2.063  14.879 -4.2507  2.0616 -1.7313
 5492TIP3   OH237890   4.144   1.727   1.458  0.6522  0.3966 -0.0463
 5492TIP3    H137891   4.068   1.777   1.488  0.7608  0.4582  0.1305
 5492TIP3    H237892   4.128   1.712   1.365  2.0919  3.5268 -0.9232
 5493TIP3   OH237893   2.157   1.762   0.478 -0.3678  0.0288  0.4631
 5493TIP3    H137894   2.135   1.812   0.556  0.1978  0.7502  0.1642
 5493TIP3    H237895   2.245   1.791   0.454 -0.6409  0.0197 -0.5986
 5494TIP3   OH237896   1.603   1.599   3.318 -0.8355  0.5507 -0.4688
 5494TIP3    H137897   1.586   1.606   3.224  0.7561 -1.1105 -0.9545
 5494TIP3    H237898   1.564   1.515   3.343 -0.4086  0.5241  0.1294
 5495TIP3   OH237899   0.664   1.163  13.098 -0.3639  0.0224 -0.3566
 5495TIP3    H137900   0.633   1.184  13.010 -0.6528 -1.8917 -0.7466
 5495TIP3    H237901   0.758   1.147  13.088 -0.2947  0.3168 -0.2050
 5496TIP3   OH237902   0.319   0.268  13.186 -0.0846  0.3638 -0.2321
 5496TIP3    H137903   0.307   0.258  13.281 -0.0958 -1.5183 -0.4042
 5496TIP3    H237904   0.239   0.311  13.156 -2.0960 -2.8234  0.0711
 5497TIP3   OH237905   3.512   6.581   2.419 -0.4004  0.6861 -0.0342
 5497TIP3    H137906   3.520   6.671   2.449 -2.2687  1.0357 -0.4077
 5497TIP3    H237907   3.439   6.584   2.357 -0.2491 -1.0182 -0.3293
 5498TIP3   OH237908   5.133   5.238  15.909 -0.4989 -0.7907 -0.3375
 5498TIP3    H137909   5.199   5.307  15.921 -1.8473  0.3012  1.3619
 5498TIP3    H237910   5.184   5.159  15.893  1.2812 -0.1079  1.4473
 5499TIP3   OH237911   3.615   6.755  11.609 -0.5629 -0.7516 -0.1667
 5499TIP3    H137912   3.698   6.709  11.619 -0.7435 -1.1018 -0.2621
 5499TIP3    H237913   3.556   6.712  11.670 -0.5361 -0.1571  0.2850
 5500TIP3   OH237914   2.950   4.651   4.428  0.0611 -0.1978  0.0777
 5500TIP3    H137915   2.987   4.723   4.478 -0.7912  1.0905 -1.0782
 5500TIP3    H237916   3.025   4.594   4.409  0.2570 -1.3719  3.6889
 5501TIP3   OH237917   1.023   6.037  13.467 -0.3239  0.4278 -0.5857
 5501TIP3    H137918   1.115   6.010  13.458 -0.1535  0.6769  0.3884
 5501TIP3    H237919   1.013   6.061  13.559 -2.0315 -2.0944 -0.0090
 5502TIP3   OH237920   0.077   1.153   5.595 -0.1727 -0.1289  0.3415
 5502TIP3    H137921   0.052   1.061   5.604  0.9323 -0.3006  2.0794
 5502TIP3    H237922  -0.007   1.199   5.587 -0.7786 -1.2013  0.3181
 5503TIP3   OH237923   5.566   4.780  11.562  0.2514 -0.2240 -0.6607
 5503TIP3    H137924   5.569   4.717  11.490 -0.2842 -0.5026 -0.4504
 5503TIP3    H237925   5.647   4.829  11.555 -0.3442  0.6204 -2.2345
 5504TIP3   OH237926   6.068   6.415  16.481  0.4305 -0.0097  0.4161
 5504TIP3    H137927   6.053   6.323  16.500 -0.8772  0.4157  1.6787
 5504TIP3    H237928   6.163   6.426  16.489  0.6675 -1.3346 -0.3116
 5505TIP3   OH237929   6.257   4.121   5.006 -0.3942 -0.1092 -0.1245
 5505TIP3    H137930   6.343   4.081   4.998 -0.1254  0.4210  0.1235
 5505TIP3    H237931   6.259   4.195   4.945 -0.6820 -0.1079 -0.1346
 5506TIP3   OH237932   4.222   6.086   1.237  0.2604 -0.3183  0.3565
 5506TIP3    H137933   4.167   6.063   1.162  0.6979  2.7081 -1.0374
 5506TIP3    H237934   4.312   6.071   1.208  0.4318  0.8384  0.2347
 5507TIP3   OH237935   3.009   6.467   1.088 -0.4775 -0.9998 -0.2573
 5507TIP3    H137936   3.074   6.412   1.044  0.3251 -1.4290  1.3830
 5507TIP3    H237937   2.959   6.407   1.142  0.4549 -0.1783  1.6250
 5508TIP3   OH237938   2.391   5.300  12.516  0.5780  0.4642 -0.0857
 5508TIP3    H137939   2.486   5.297  12.508  0.8564  1.0352  2.3951
 5508TIP3    H237940   2.363   5.209  12.510  1.4734  0.1185  0.8534
 5509TIP3   OH237941   5.593   1.247  14.720  0.2719 -0.6022 -0.4107
 5509TIP3    H137942   5.498   1.247  14.734  0.3151 -1.8145 -0.0132
 5509TIP3    H237943   5.606   1.194  14.641  0.5667  0.3145 -0.9932
 5510TIP3   OH237944   0.018   1.312   1.310 -0.3660 -0.2308  0.4255
 5510TIP3    H137945   0.046   1.374   1.378 -1.2042  1.5135 -0.7264
 5510TIP3    H237946   0.099   1.273   1.278  0.0606 -0.9127  2.2145
 5511TIP3   OH237947   6.156   2.912  15.463 -0.1308 -0.1449 -0.4698
 5511TIP3    H137948   6.083   2.853  15.444 -0.7304  0.1986  0.6809
 5511TIP3    H237949   6.158   2.918  15.558 -0.1225  1.7371 -0.5547
 5512TIP3   OH237950   1.317   0.528   3.286  0.0353 -0.0679 -1.0162
 5512TIP3    H137951   1.235   0.495   3.323 -0.7056  0.7534 -1.8739
 5512TIP3    H237952   1.292   0.608   3.240  1.4863  0.7291 -0.4743
 5513TIP3   OH237953   0.675   2.752  11.317 -0.0165 -0.0719 -0.4094
 5513TIP3    H137954   0.719   2.834  11.341 -0.1842  0.1344 -0.7916
 5513TIP3    H237955   0.746   2.694  11.290  0.2713 -0.6133  1.3956
 5514TIP3   OH237956   3.540   2.854   2.569 -0.7147  0.1107  0.5199
 5514TIP3    H137957   3.553   2.945   2.543 -2.4307  0.4676  0.7614
 5514TIP3    H237958   3.620   2.830   2.615 -0.5986  1.8204  1.2764
 5515TIP3   OH237959   4.961   0.583  13.292 -0.7895 -0.0533  0.6164
 5515TIP3    H137960   4.935   0.672  13.266  0.4979 -0.5473 -2.8599
 5515TIP3    H237961   4.887   0.528  13.267 -0.6732 -0.2274  0.6584
 5516TIP3   OH237962   3.341   0.405   0.060  0.6110  0.3566  0.0059
 5516TIP3    H137963   3.352   0.486   0.010  0.2309  1.7817  2.0990
 5516TIP3    H237964   3.253   0.374   0.036 -0.4983  2.2431  1.3725
 5517TIP3   OH237965   4.894   4.419  11.029  0.4554  0.3468 -0.3129
 5517TIP3    H137966   4.835   4.456  11.095  0.2507  0.5599 -0.6098
 5517TIP3    H237967   4.973   4.397  11.078  1.3913  3.0501 -0.4199
 5518TIP3   OH237968   6.180   4.515   5.165 -0.2044  0.3380 -0.4571
 5518TIP3    H137969   6.107   4.462   5.196 -1.4785  2.0127 -0.4699
 5518TIP3    H237970   6.227   4.456   5.105 -1.4137 -0.8470 -0.3110
 5519TIP3   OH237971   3.051   5.074  16.143  0.1075 -1.2647 -0.2663
 5519TIP3    H137972   3.016   5.031  16.065  1.0929 -1.5189 -0.5811
 5519TIP3    H237973   2.998   5.040  16.215 -2.1855  0.5185 -1.0069
 5520TIP3   OH237974   3.467   1.807  11.618 -0.2274 -0.0236  1.0788
 5520TIP3    H137975   3.550   1.847  11.591 -1.2608  0.9157 -0.9265
 5520TIP3    H237976   3.422   1.788  11.536 -2.4997  0.6133  2.1097
 5521TIP3   OH237977   0.269   3.801  16.948 -0.5367  0.3140 -0.3793
 5521TIP3    H137978   0.191   3.789  17.001  0.2420  1.1032  0.9881
 5521TIP3    H237979   0.320   3.867  16.994  1.4173 -0.8904 -0.6797
 5522TIP3   OH237980   3.314   4.279   0.559 -0.8488  0.2436 -1.1456
 5522TIP3    H137981   3.294   4.271   0.466  0.1145  0.2549 -1.3703
 5522TIP3    H237982   3.408   4.298   0.562 -0.8892  0.3821 -0.1750
 5523TIP3   OH237983   3.742   1.343  11.745 -0.0224  0.0051  0.3644
 5523TIP3    H137984   3.647   1.347  11.739 -0.0614  0.8108  1.1296
 5523TIP3    H237985   3.761   1.365  11.837  0.8789 -0.5689  0.3289
 5524TIP3   OH237986   6.643   6.275  13.843  0.0689 -0.3199 -0.2502
 5524TIP3    H137987   6.592   6.247  13.767 -0.1881 -1.1942  0.2414
 5524TIP3    H237988   6.730   6.239  13.828 -0.3524 -1.7672  0.5574
 5525TIP3   OH237989   3.160   3.417  12.323 -0.0505 -0.4477 -0.2692
 5525TIP3    H137990   3.126   3.480  12.387  0.8519 -0.8335  0.6181
 5525TIP3    H237991   3.218   3.361  12.374  0.9424 -0.5699 -1.4997
 5526TIP3   OH237992   6.217   1.984  12.622 -0.3698 -0.4383  0.3723
 5526TIP3    H137993   6.207   2.033  12.541 -0.1128  1.7854  1.6248
 5526TIP3    H237994   6.233   1.894  12.593 -0.5611  0.2255 -2.0168
 5527TIP3   OH237995   6.432   6.773   4.558 -0.5267 -0.2455  0.2262
 5527TIP3    H137996   6.424   6.685   4.523  0.7998 -0.1762 -0.3214
 5527TIP3    H237997   6.411   6.831   4.484 -2.0857 -0.0759  0.7674
 5528TIP3   OH237998   1.787   3.852   2.216 -0.3946  0.0525  0.0581
 5528TIP3    H137999   1.758   3.819   2.301 -0.7092 -1.1611 -0.5070
 5528TIP3    H238000   1.768   3.946   2.219 -2.0365 -0.2780  0.6619
 5529TIP3   OH238001   5.081   2.654   3.454 -0.1511 -0.3941 -1.1222
 5529TIP3    H138002   5.098   2.747   3.440 -1.6206 -0.1359 -1.3497
 5529TIP3    H238003   5.042   2.650   3.541  1.2916 -1.0027 -0.4696
 5530TIP3   OH238004   6.398   1.401  17.194  0.2940  0.2808 -0.1663
 5530TIP3    H138005   6.454   1.329  17.221 -0.5145 -0.7281 -1.1129
 5530TIP3    H238006   6.353   1.369  17.116 -1.8472  0.8883  0.7370
 5531TIP3   OH238007   4.685   0.328   3.435 -0.5237  0.1508  0.4629
 5531TIP3    H138008   4.729   0.364   3.511  1.3769 -1.3451  0.1646
 5531TIP3    H238009   4.753   0.280   3.388 -1.6491  0.8844 -2.1155
 5532TIP3   OH238010   6.145   2.891   2.769 -0.0067  0.7976  0.5462
 5532TIP3    H138011   6.139   2.810   2.819  0.2015  1.8770  2.4366
 5532TIP3    H238012   6.059   2.902   2.729 -0.0581 -0.2934  0.3382
 5533TIP3   OH238013   3.755   5.133  13.408 -0.5306  0.4923 -0.1778
 5533TIP3    H138014   3.672   5.169  13.377 -0.2115  1.0543 -0.3956
 5533TIP3    H238015   3.796   5.206  13.456  0.1193  0.4214 -0.6150
 5534TIP3   OH238016   5.364   5.769   5.804 -0.4184  0.2004 -0.5237
 5534TIP3    H138017   5.310   5.805   5.874  0.0434 -0.4277  0.1635
 5534TIP3    H238018   5.434   5.721   5.849  0.8886  1.2253 -1.3797
 5535TIP3   OH238019   6.389   3.997   0.594 -0.4206 -0.0037 -0.3274
 5535TIP3    H138020   6.340   4.033   0.520  0.9588 -0.6536 -1.6068
 5535TIP3    H238021   6.450   3.934   0.554  0.1626 -0.5801  1.3952
 5536TIP3   OH238022   0.888   4.817   5.737 -0.0375 -0.1341  0.3218
 5536TIP3    H138023   0.804   4.798   5.780 -0.5381 -1.4592 -1.1183
 5536TIP3    H238024   0.869   4.889   5.678 -0.4877 -1.1172 -0.7836
 5537TIP3   OH238025   1.120   0.962  15.578  0.4914 -0.4445  0.5411
 5537TIP3    H138026   1.026   0.972  15.595  0.6110 -0.1807  1.0588
 5537TIP3    H238027   1.124   0.903  15.503 -0.0864 -0.5307  0.5699
 5538TIP3   OH238028   5.759   2.171   2.471 -0.5766 -0.0230 -0.6250
 5538TIP3    H138029   5.827   2.105   2.480 -1.0879 -0.3495  1.3826
 5538TIP3    H238030   5.798   2.239   2.416  1.1003 -0.5494 -0.1330
 5539TIP3   OH238031   0.236   1.640   1.661  0.0097  0.2647  0.5068
 5539TIP3    H138032   0.319   1.592   1.656 -0.4394 -0.5233  0.5514
 5539TIP3    H238033   0.180   1.598   1.596  0.0738  1.6865 -0.5378
 5540TIP3   OH238034   3.585   0.515  14.148 -0.2223 -0.2772  0.1210
 5540TIP3    H138035   3.551   0.445  14.091  2.3378  0.0302 -2.0102
 5540TIP3    H238036   3.536   0.593  14.122  1.2241 -0.0339 -2.2036
 5541TIP3   OH238037   2.611   6.143  11.662  0.4009 -0.1312  0.4477
 5541TIP3    H138038   2.587   6.234  11.682  2.5887  0.6672 -0.1982
 5541TIP3    H238039   2.598   6.135  11.568 -0.4712 -0.7342  0.6133
 5542TIP3   OH238040   2.694   0.909  17.021 -0.0277 -0.4924 -0.5358
 5542TIP3    H138041   2.759   0.839  17.010  1.4342  0.4790  1.2123
 5542TIP3    H238042   2.742   0.989  16.999 -1.4138  0.0665 -1.6451
 5543TIP3   OH238043   1.402   0.573  12.883  0.0067 -0.2440  0.2676
 5543TIP3    H138044   1.463   0.508  12.919 -0.8839 -1.4664 -0.3676
 5543TIP3    H238045   1.443   0.658  12.903  2.0473 -1.0266 -0.3688
 5544TIP3   OH238046   6.395   2.423   0.518  0.2815  0.1925 -0.2834
 5544TIP3    H138047   6.483   2.414   0.555  0.6267  1.0256 -0.8824
 5544TIP3    H238048   6.408   2.422   0.423 -0.3192  0.6778 -0.3737
 5545TIP3   OH238049   5.705   5.165   5.598  0.0625 -0.2162 -0.3784
 5545TIP3    H138050   5.610   5.167   5.604  0.1202 -0.8835  1.3010
 5545TIP3    H238051   5.733   5.254   5.619 -0.1794  0.0006 -0.9570
 5546TIP3   OH238052   4.694   3.074  13.089  0.0306 -0.2888  0.4037
 5546TIP3    H138053   4.633   3.006  13.061 -1.0216  1.1242 -0.9241
 5546TIP3    H238054   4.662   3.100  13.175 -0.8479 -0.0430  0.0145
 5547TIP3   OH238055   1.336   6.372  15.519 -0.1411 -0.0159  0.3343
 5547TIP3    H138056   1.331   6.384  15.614 -0.1461 -0.7037  0.4237
 5547TIP3    H238057   1.429   6.376  15.500 -0.1611  0.4382  0.3235
 5548TIP3   OH238058   5.039   4.043  13.128 -0.3127  0.4377 -0.2479
 5548TIP3    H138059   5.088   3.987  13.188 -0.5744  0.1755 -0.2788
 5548TIP3    H238060   5.055   4.005  13.041 -0.7691  0.2084 -0.2312
 5549TIP3   OH238061   2.472   4.106   0.313  0.2016  0.0573  0.5471
 5549TIP3    H138062   2.510   4.189   0.284  0.1460  0.1110  0.6273
 5549TIP3    H238063   2.378   4.119   0.305  0.2245 -0.8089 -1.6868
 5550TIP3   OH238064   1.300   5.231  12.023  0.1491  0.4639  0.3442
 5550TIP3    H138065   1.383   5.187  12.041  1.0007  1.0243 -1.9045
 5550TIP3    H238066   1.236   5.160  12.016  0.9972 -0.2339 -0.6379
 5551TIP3   OH238067   0.337   3.563   5.324 -0.0388 -0.3517  0.3884
 5551TIP3    H138068   0.277   3.515   5.381  1.1490 -2.3322  0.0628
 5551TIP3    H238069   0.331   3.518   5.240  0.1142  0.9639 -0.3582
 5552TIP3   OH238070   2.656   0.101  15.670 -0.3005  0.2455 -0.6996
 5552TIP3    H138071   2.727   0.086  15.733  1.3153  0.0229 -2.5030
 5552TIP3    H238072   2.578   0.106  15.725  1.0125  0.0463  1.3357
 5553TIP3   OH238073   2.757   6.289  15.638 -0.7546 -0.9232  0.2305
 5553TIP3    H138074   2.739   6.325  15.725 -1.0187  0.5654 -0.4120
 5553TIP3    H238075   2.720   6.353  15.577  1.8011 -0.5062 -1.0509
 5554TIP3   OH238076   3.519   4.300   2.403 -0.0762  0.3990 -0.3787
 5554TIP3    H138077   3.470   4.381   2.393 -1.3317 -0.4891 -1.7944
 5554TIP3    H238078   3.483   4.241   2.337 -0.5042 -1.9652  1.7938
 5555TIP3   OH238079   1.235   3.386   1.078 -0.3221 -0.4670 -0.2086
 5555TIP3    H138080   1.311   3.444   1.085 -0.5625 -0.1219 -0.4219
 5555TIP3    H238081   1.193   3.390   1.164 -1.3157  1.0458 -0.7248
 5556TIP3   OH238082   0.012   0.289  14.747 -0.3778  0.2956 -0.2238
 5556TIP3    H138083   0.098   0.289  14.788 -0.7195  1.3710  0.5418
 5556TIP3    H238084   0.019   0.353  14.675  0.5365 -2.3409 -2.6571
 5557TIP3   OH238085   0.530   4.237  13.733 -0.0957 -0.0566 -0.3404
 5557TIP3    H138086   0.510   4.283  13.652  0.4382  1.8587  0.5543
 5557TIP3    H238087   0.487   4.152  13.724 -1.4283  0.7328 -1.9326
 5558TIP3   OH238088   5.294   4.017  12.234 -0.5977  0.0458  0.0544
 5558TIP3    H138089   5.329   4.039  12.147 -0.6095 -0.8096 -0.1775
 5558TIP3    H238090   5.223   3.956  12.216 -0.1066 -0.7402  0.7061
 5559TIP3   OH238091   4.372   5.337  14.656  0.2029  0.3098 -0.6791
 5559TIP3    H138092   4.392   5.372  14.569  0.3676  0.1623 -0.6996
 5559TIP3    H238093   4.297   5.279  14.642 -0.4782  1.1212 -0.5507
 5560TIP3   OH238094   1.132   4.155  12.031 -0.0670 -0.3517 -0.0534
 5560TIP3    H138095   1.049   4.146  11.984  0.1744 -1.4699 -0.3010
 5560TIP3    H238096   1.108   4.159  12.123 -0.6839  3.6091 -0.2435
 5561TIP3   OH238097   1.388   4.152  15.933  0.3433 -0.6704 -0.1632
 5561TIP3    H138098   1.474   4.193  15.923  0.0997 -0.0094  0.3789
 5561TIP3    H238099   1.358   4.137  15.844  1.2011 -1.3038 -0.3575
 5562TIP3   OH238100   0.314   1.784  16.786 -0.1883  0.0408  0.0527
 5562TIP3    H138101   0.224   1.752  16.800 -0.6034  0.3841 -1.5801
 5562TIP3    H238102   0.303   1.862  16.732  1.0117  1.1955  1.3830
 5563TIP3   OH238103   1.656   2.232  15.950 -0.1142 -0.2419 -0.3925
 5563TIP3    H138104   1.618   2.144  15.952  1.1501 -0.8254 -0.9460
 5563TIP3    H238105   1.740   2.221  15.905  0.8847  0.9148  1.0661
 5564TIP3   OH238106   0.908   2.504   3.668  0.2162 -0.5548 -0.0513
 5564TIP3    H138107   0.839   2.486   3.604 -1.5612  0.4935  1.4779
 5564TIP3    H238108   0.925   2.597   3.659  0.8493 -0.6510  0.1445
 5565TIP3   OH238109   3.581   0.098  16.354 -0.1880  0.3520  0.1528
 5565TIP3    H138110   3.651   0.135  16.408  0.2821  0.5262 -0.5500
 5565TIP3    H238111   3.618   0.017  16.319 -0.6522  0.0093  0.4483
 5566TIP3   OH238112   5.510   5.840   3.335 -0.5251  0.0226 -0.6790
 5566TIP3    H138113   5.563   5.888   3.271 -1.1736 -2.4702 -3.2738
 5566TIP3    H238114   5.574   5.807   3.399  0.2916  1.5987 -0.6310
 5567TIP3   OH238115   0.588   3.822  11.983 -0.5526  0.2704 -0.4196
 5567TIP3    H138116   0.512   3.783  11.942 -0.2240 -0.6856 -0.1449
 5567TIP3    H238117   0.567   3.915  11.991 -1.4721  0.0961 -0.8055
 5568TIP3   OH238118   1.104   1.301  16.416  0.1065 -0.1108  0.2238
 5568TIP3    H138119   1.032   1.360  16.437  1.8149  1.2409  2.8734
 5568TIP3    H238120   1.177   1.359  16.394  1.2335 -1.3015  0.6941
 5569TIP3   OH238121   2.944   4.212   5.120 -0.1380 -0.0222 -0.1727
 5569TIP3    H138122   2.935   4.149   5.049 -1.3668  0.1418 -0.1706
 5569TIP3    H238123   2.870   4.194   5.178  1.5500 -1.0513  1.8088
 5570TIP3   OH238124   1.146   0.971   2.425  0.0585 -0.1236 -0.2496
 5570TIP3    H138125   1.063   1.015   2.407 -0.8864 -1.7712 -0.0853
 5570TIP3    H238126   1.137   0.885   2.385  2.1601  0.0448 -1.2196
 5571TIP3   OH238127   1.363   0.835  12.365  0.1275  0.0423  0.0833
 5571TIP3    H138128   1.298   0.798  12.305 -1.1999  0.5919  1.1372
 5571TIP3    H238129   1.385   0.762  12.423  1.2871 -0.4424 -0.9230
 5572TIP3   OH238130   1.085   6.331  13.168  0.3127 -0.0503  0.2099
 5572TIP3    H138131   1.042   6.363  13.089  0.5929 -0.2353 -0.0214
 5572TIP3    H238132   1.146   6.401  13.193 -1.9152  1.3820  2.0286
 5573TIP3   OH238133   5.517   6.485   0.016 -0.0793  0.6117  0.3069
 5573TIP3    H138134   5.436   6.502  -0.032  0.0272 -1.0885 -0.5269
 5573TIP3    H238135   5.493   6.418   0.080  0.9768 -1.1125 -1.0165
 5574TIP3   OH238136   5.329   1.420  16.760 -0.2878 -0.1704  0.7633
 5574TIP3    H138137   5.384   1.445  16.685  0.3963 -1.6613  0.7470
 5574TIP3    H238138   5.240   1.418  16.724 -0.2731  1.3447  0.5677
 5575TIP3   OH238139   1.987   1.984  11.696  0.1044 -0.3987  0.6559
 5575TIP3    H138140   1.992   2.042  11.620 -0.6966 -0.4185  0.5801
 5575TIP3    H238141   1.921   2.023  11.752  2.4063  1.0015  2.5702
 5576TIP3   OH238142   0.423   3.979  13.861  0.1630 -0.8871 -0.1102
 5576TIP3    H138143   0.361   3.966  13.932 -0.2146 -1.6657 -0.5636
 5576TIP3    H238144   0.468   3.895  13.851  1.5376 -0.2523  0.4158
 5577TIP3   OH238145   6.018   3.520   6.510  0.3145  0.1903 -0.2225
 5577TIP3    H138146   5.939   3.467   6.503 -0.4394  0.9366  1.7909
 5577TIP3    H238147   6.055   3.521   6.422 -1.3835 -0.9965 -0.9902
 5578TIP3   OH238148   0.415   3.710   0.427  0.4350 -0.0676  0.0025
 5578TIP3    H138149   0.349   3.779   0.423  1.6205  1.1314  0.3502
 5578TIP3    H238150   0.493   3.749   0.388  1.2127 -1.1378  0.4361
 5579TIP3   OH238151   2.162   6.036   3.186  0.2975 -0.0515  0.5048
 5579TIP3    H138152   2.144   6.050   3.093  1.1862  0.0438  0.3370
 5579TIP3    H238153   2.192   5.945   3.191 -2.3500 -0.9822  1.1169
 5580TIP3   OH238154   1.651   1.598  13.140  0.2856  0.0417  0.3219
 5580TIP3    H138155   1.688   1.519  13.180 -0.0319  0.2880  1.1368
 5580TIP3    H238156   1.639   1.658  13.214 -3.9451 -0.8308  0.6259
 5581TIP3   OH238157   4.959   5.304   6.325  0.3667 -0.2475  0.1930
 5581TIP3    H138158   4.962   5.390   6.367  0.0248 -1.1757  2.2490
 5581TIP3    H238159   5.049   5.271   6.330  0.5928  0.1309 -0.9910
 5582TIP3   OH238160   4.031   2.175   5.098 -0.6251 -0.5248 -0.7285
 5582TIP3    H138161   4.108   2.224   5.129  0.5663 -1.6645 -1.7655
 5582TIP3    H238162   4.017   2.109   5.166 -2.3777  1.3073  0.7890
 5583TIP3   OH238163   1.575   5.490   3.536 -0.7453 -0.5433 -0.1220
 5583TIP3    H138164   1.505   5.425   3.525 -0.2537 -0.7838 -2.4860
 5583TIP3    H238165   1.556   5.557   3.470  1.1298 -0.5406 -0.7200
 5584TIP3   OH238166   4.815   1.350   1.950  0.2250  0.2763 -0.0298
 5584TIP3    H138167   4.816   1.255   1.964  0.9739  0.4139  0.9813
 5584TIP3    H238168   4.726   1.377   1.972  0.7885  0.1963  2.7421
 5585TIP3   OH238169   5.401   3.443  11.608  0.6421  0.2139 -0.9253
 5585TIP3    H138170   5.463   3.477  11.544  0.8276  0.6664 -0.5139
 5585TIP3    H238171   5.419   3.493  11.688  1.6800 -1.6085  0.0347
 5586TIP3   OH238172   2.608   0.446  12.565  0.4382  0.0771 -0.0225
 5586TIP3    H138173   2.679   0.507  12.587  2.0607 -1.9908  0.8169
 5586TIP3    H238174   2.625   0.369  12.619  0.5766 -2.5814 -3.5292
 5587TIP3   OH238175   5.632   6.689   0.828 -0.2188  0.4540 -0.1489
 5587TIP3    H138176   5.563   6.649   0.776  0.1633  2.1919 -2.1445
 5587TIP3    H238177   5.600   6.777   0.848  0.3745  0.4087  1.0624
 5588TIP3   OH238178   1.693   0.111  15.206  0.0521 -0.3646  0.1680
 5588TIP3    H138179   1.706   0.113  15.112 -0.3113  2.4870  0.1032
 5588TIP3    H238180   1.614   0.163  15.221  0.4555 -0.2288  2.0833
 5589TIP3   OH238181   2.642   2.792  16.721 -0.0081 -0.1041  0.0521
 5589TIP3    H138182   2.670   2.715  16.771  0.1134  0.1530  0.3850
 5589TIP3    H238183   2.670   2.866  16.775  1.9713  0.2444 -1.3367
 5590TIP3   OH238184   6.533   4.617   2.612  0.2469 -0.0981 -0.5771
 5590TIP3    H138185   6.482   4.670   2.551 -1.1975 -0.2608  0.4329
 5590TIP3    H238186   6.513   4.527   2.588 -0.3986 -0.1629  0.1627
 5591TIP3   OH238187   2.302   5.114   0.946  0.1400  0.2672 -0.2104
 5591TIP3    H138188   2.227   5.081   0.996 -0.0501 -0.3265 -0.8810
 5591TIP3    H238189   2.378   5.071   0.985  0.0358  0.1077 -0.1857
 5592TIP3   OH238190   0.619   0.972   0.803  0.1034 -0.1776  0.2380
 5592TIP3    H138191   0.643   0.904   0.865 -1.7089  0.4887  1.7697
 5592TIP3    H238192   0.681   1.043   0.819  1.5937 -1.1545 -0.9231
 5593TIP3   OH238193   4.203   0.046  13.484  0.1800  0.2654 -0.9852
 5593TIP3    H138194   4.169  -0.030  13.532 -0.1266  1.7394  1.2407
 5593TIP3    H238195   4.280   0.012  13.438 -0.4715 -1.5936 -0.8059
 5594TIP3   OH238196   0.080   5.712  16.641  0.0736  0.1335  0.6406
 5594TIP3    H138197   0.120   5.639  16.593 -1.3667 -0.7900  0.7878
 5594TIP3    H238198   0.092   5.788  16.584  1.1181 -0.3117  0.2394
 5595TIP3   OH238199   6.181   1.205  12.900  0.4176  0.4935 -0.3667
 5595TIP3    H138200   6.104   1.205  12.843  1.0691  0.3503 -1.2653
 5595TIP3    H238201   6.255   1.193  12.841  1.1615  0.9290  0.4487
 5596TIP3   OH238202   4.501   5.635  10.609 -0.0781  0.0043  0.2569
 5596TIP3    H138203   4.407   5.634  10.591  0.3402 -0.1164 -2.2958
 5596TIP3    H238204   4.523   5.544  10.627 -0.4502  0.0282  0.8301
 5597TIP3   OH238205   1.473   1.044  15.087  0.5447  0.3648  0.3148
 5597TIP3    H138206   1.538   1.059  15.156 -0.9126 -0.4322  1.9513
 5597TIP3    H238207   1.457   0.949  15.090 -0.5755  0.5247 -0.1189
 5598TIP3   OH238208   2.727   0.148   3.926 -0.2327  0.0272 -0.0716
 5598TIP3    H138209   2.693   0.071   3.970  1.2185  0.0436  1.1690
 5598TIP3    H238210   2.659   0.214   3.937 -1.7557 -1.1825 -1.6646
 5599TIP3   OH238211   1.921   2.764   5.493 -0.4066 -0.1626  0.2803
 5599TIP3    H138212   2.012   2.761   5.524  0.3869  0.6902 -1.7978
 5599TIP3    H238213   1.899   2.857   5.493 -1.4368 -0.3917  1.1103
 5600TIP3   OH238214   5.951   5.122  15.445 -0.0168  0.2004  0.5502
 5600TIP3    H138215   5.887   5.119  15.374  1.5147 -0.8091 -0.8747
 5600TIP3    H238216   5.901   5.147  15.523 -1.9712  0.1710 -0.6530
 5601TIP3   OH238217   6.752   5.019   4.971 -0.7490 -0.2253  0.0371
 5601TIP3    H138218   6.774   5.063   5.053 -3.6712  0.3587  0.6334
 5601TIP3    H238219   6.682   4.959   4.995 -1.9689  0.2503 -2.0771
 5602TIP3   OH238220   4.818   5.108  16.691 -0.8906  0.4412  0.0891
 5602TIP3    H138221   4.890   5.045  16.687  0.1982  1.6491 -0.1124
 5602TIP3    H238222   4.801   5.131  16.599 -1.7325 -0.0242  0.1147
 5603TIP3   OH238223   5.396   1.203  15.041  0.4888 -0.3096  0.2640
 5603TIP3    H138224   5.364   1.113  15.050 -1.8480  0.2969 -1.2675
 5603TIP3    H238225   5.386   1.223  14.948  2.3297  1.1030  0.3157
 5604TIP3   OH238226   3.935   2.933  16.558  0.4270  0.0760  0.3519
 5604TIP3    H138227   3.980   2.860  16.515  0.4500  1.0149 -1.3129
 5604TIP3    H238228   3.980   2.943  16.642  1.7742 -0.5202 -0.2704
 5605TIP3   OH238229   2.506   1.560   0.346  0.0649  0.4131 -0.0007
 5605TIP3    H138230   2.563   1.576   0.270 -0.7562  2.0704 -0.3232
 5605TIP3    H238231   2.437   1.503   0.313 -1.7355  3.1322 -1.3257
 5606TIP3   OH238232   4.965   6.346  12.052  0.0704  0.4807 -0.4255
 5606TIP3    H138233   4.965   6.328  11.958 -0.8005  0.4367 -0.4210
 5606TIP3    H238234   4.917   6.273  12.091  0.3259  0.5575  0.0446
 5607TIP3   OH238235   1.952   1.283   1.241  0.0958  0.1820 -0.1511
 5607TIP3    H138236   1.857   1.282   1.254  0.3753 -1.8493  2.6163
 5607TIP3    H238237   1.979   1.372   1.262 -1.1403  0.6943 -0.6537
 5608TIP3   OH238238   1.240   4.549   2.929 -0.6764 -0.1411  0.5659
 5608TIP3    H138239   1.164   4.523   2.877 -0.7435  0.3577  0.4154
 5608TIP3    H238240   1.313   4.499   2.892 -0.6887  0.3449 -0.1199
 5609TIP3   OH238241   3.471   1.643  14.070 -0.8257 -0.8057 -0.9259
 5609TIP3    H138242   3.550   1.640  14.016 -0.5595 -0.2815 -0.5725
 5609TIP3    H238243   3.432   1.728  14.050 -1.3963 -1.1256 -1.2221
 5610TIP3   OH238244   2.622   2.765  11.914 -0.3658  0.5119  0.0349
 5610TIP3    H138245   2.672   2.780  11.833  0.5192  0.4864  0.5661
 5610TIP3    H238246   2.546   2.822  11.906  0.3840  1.4856 -0.2285
 5611TIP3   OH238247   4.065   3.948   2.642  1.0872  0.0036 -0.5479
 5611TIP3    H138248   4.115   3.955   2.560  0.8297  0.5327 -0.6648
 5611TIP3    H238249   4.109   3.879   2.691  0.8958 -0.7184 -1.3780
 5612TIP3   OH238250   3.314   4.076  11.328 -0.2391  0.2450 -1.0003
 5612TIP3    H138251   3.337   4.015  11.258  2.0122 -0.9082  0.6343
 5612TIP3    H238252   3.305   4.021  11.406 -0.4775  1.7453  0.0753
 5613TIP3   OH238253   1.442   2.997  15.689  0.4643  0.2838 -0.4437
 5613TIP3    H138254   1.390   2.922  15.718  3.1686 -1.2594  0.7426
 5613TIP3    H238255   1.398   3.073  15.727  0.4365 -1.1695  2.7318
 5614TIP3   OH238256   0.495   3.756  12.567  0.3011 -0.1601 -0.4450
 5614TIP3    H138257   0.411   3.733  12.527 -0.4153  0.8692  0.3961
 5614TIP3    H238258   0.478   3.754  12.661  1.9022 -2.3851 -0.1219
 5615TIP3   OH238259   1.516   0.156  10.923 -1.0047 -0.1890 -0.0317
 5615TIP3    H138260   1.567   0.234  10.944 -0.5880 -0.0424 -1.4511
 5615TIP3    H238261   1.514   0.105  11.004 -0.7305  0.9788  0.7360
 5616TIP3   OH238262   1.629   5.723   2.007  0.2550  0.4051  0.3742
 5616TIP3    H138263   1.544   5.710   2.048  0.0930  1.6718  0.4664
 5616TIP3    H238264   1.664   5.802   2.047  1.4417 -0.0346  0.2622
 5617TIP3   OH238265   0.577   4.235   4.279  0.0550  0.0598 -0.0737
 5617TIP3    H138266   0.560   4.241   4.185  1.9050  0.6654 -0.4119
 5617TIP3    H238267   0.646   4.169   4.287  2.0280  2.0816  0.5114
 5618TIP3   OH238268   1.481   4.468   3.636  0.4949 -0.0087 -0.1315
 5618TIP3    H138269   1.438   4.450   3.553  1.1028 -0.4580 -0.3487
 5618TIP3    H238270   1.418   4.523   3.684  0.5048  1.0018 -1.2342
 5619TIP3   OH238271   3.849   0.307  14.368 -0.2424  0.7740  0.1160
 5619TIP3    H138272   3.792   0.288  14.294 -1.1641  0.4783  0.8863
 5619TIP3    H238273   3.842   0.402  14.380 -0.0229  0.8348 -0.2230
 5620TIP3   OH238274   1.002   5.636   5.116 -0.3195 -0.7384  0.2085
 5620TIP3    H138275   0.988   5.543   5.099 -0.0438 -0.7838  0.2257
 5620TIP3    H238276   1.079   5.639   5.173 -2.0650 -0.6867  2.7574
 5621TIP3   OH238277   1.869   4.363   5.539 -0.3338  0.6927 -0.0195
 5621TIP3    H138278   1.824   4.441   5.507  2.2969  2.4264  0.1683
 5621TIP3    H238279   1.925   4.336   5.466  1.3692  1.1524  1.0489
 5622TIP3   OH238280   0.910   0.157  15.901 -0.2296  0.3554 -0.1508
 5622TIP3    H138281   0.828   0.205  15.914 -0.6234 -0.5080  0.6255
 5622TIP3    H238282   0.948   0.197  15.822 -1.7507  0.2777 -0.9629
 5623TIP3   OH238283   5.821   2.029  11.986  0.3447 -0.2301 -0.2602
 5623TIP3    H138284   5.914   2.011  12.002  0.5828 -0.2178 -1.5155
 5623TIP3    H238285   5.780   2.022  12.072  1.3856 -1.0107  0.1987
 5624TIP3   OH238286   0.673   1.634  11.193 -0.2189  0.0921  0.0083
 5624TIP3    H138287   0.701   1.545  11.209  0.0066  0.1074 -0.3057
 5624TIP3    H238288   0.664   1.673  11.280 -2.0227 -0.7542  0.2539
 5625TIP3   OH238289   1.621   3.828   4.578  0.2031 -0.6773  0.0530
 5625TIP3    H138290   1.623   3.861   4.668 -0.2561 -0.2445 -0.0900
 5625TIP3    H238291   1.637   3.905   4.524 -1.6789 -0.4949 -0.3174
 5626TIP3   OH238292   0.474   3.862  15.301  0.1760  0.1026 -0.0697
 5626TIP3    H138293   0.454   3.869  15.208 -0.8533 -0.5895  0.0793
 5626TIP3    H238294   0.437   3.941  15.340 -1.2240 -0.5703  0.0228
 5627TIP3   OH238295   5.064   3.170  15.153  0.2617 -0.1010  0.5062
 5627TIP3    H138296   5.121   3.098  15.126 -0.9302 -0.7390 -0.4220
 5627TIP3    H238297   4.977   3.130  15.159 -0.8711  1.6857 -2.2546
 5628TIP3   OH238298   0.498   4.811  16.392  0.1403 -0.4937  0.1475
 5628TIP3    H138299   0.494   4.749  16.465 -0.1454 -0.0647  0.5064
 5628TIP3    H238300   0.590   4.812  16.366  0.1373 -1.1126  0.0968
 5629TIP3   OH238301   5.844   5.534  12.529 -0.2321 -0.3228 -0.2356
 5629TIP3    H138302   5.908   5.478  12.485  0.5144 -0.8306  1.4064
 5629TIP3    H238303   5.771   5.541  12.467 -0.1439 -2.7249 -0.6925
 5630TIP3   OH238304   2.825   3.467  13.645  0.1425 -0.3117  0.5931
 5630TIP3    H138305   2.857   3.504  13.562 -0.1347 -1.0376  0.1481
 5630TIP3    H238306   2.783   3.385  13.619 -1.5412  0.3008  1.2310
 5631TIP3   OH238307   1.174   2.567  16.425 -0.1930 -0.0050 -0.3627
 5631TIP3    H138308   1.221   2.489  16.454  0.2009 -0.2458 -1.5946
 5631TIP3    H238309   1.169   2.558  16.330  2.2848  2.7655 -0.9085
 5632TIP3   OH238310   3.876   1.791  13.487 -0.1134  0.2429  0.7079
 5632TIP3    H138311   3.927   1.720  13.526  2.8161  0.0585 -2.8739
 5632TIP3    H238312   3.897   1.868  13.541  0.2577 -0.7356  2.0040
 5633TIP3   OH238313   4.683   1.361  16.735  0.0002 -0.1840  0.8568
 5633TIP3    H138314   4.646   1.418  16.803 -1.4168 -0.0179 -0.0140
 5633TIP3    H238315   4.616   1.293  16.722 -0.0515  0.1271 -0.7691
 5634TIP3   OH238316   5.152   6.529   1.295  0.2438 -0.2360 -0.3818
 5634TIP3    H138317   5.247   6.523   1.282  0.1184 -2.1880 -0.6730
 5634TIP3    H238318   5.136   6.622   1.308  2.0444  0.3008 -1.5534
 5635TIP3   OH238319   2.010   4.858   4.272  0.4744 -0.0018  0.6431
 5635TIP3    H138320   2.008   4.873   4.366 -1.5711  1.2182  0.4747
 5635TIP3    H238321   1.983   4.942   4.234 -0.5827 -1.0086 -0.9237
 5636TIP3   OH238322   4.191   5.772   3.636  0.0005  1.0488 -0.5112
 5636TIP3    H138323   4.205   5.824   3.716  0.4347  0.7243 -0.3689
 5636TIP3    H238324   4.279   5.746   3.610 -0.3011 -1.5744  0.7343
 5637TIP3   OH238325   4.736   3.104  12.189 -0.3674 -0.1462  0.1281
 5637TIP3    H138326   4.665   3.166  12.173 -0.8627 -0.9025 -0.7747
 5637TIP3    H238327   4.800   3.152  12.240 -0.5549  1.2139 -0.8821
 5638TIP3   OH238328   4.867   4.795   4.790  0.1627  0.3405 -0.1355
 5638TIP3    H138329   4.855   4.769   4.881 -0.7845 -1.1417 -0.6413
 5638TIP3    H238330   4.846   4.888   4.789  0.1399  0.3702  1.1445
 5639TIP3   OH238331   1.596   2.830  15.370  0.3270 -1.1785 -0.0969
 5639TIP3    H138332   1.592   2.855  15.462  0.7155 -2.5174  0.3014
 5639TIP3    H238333   1.525   2.879  15.328  2.2535  2.1671  0.2058
 5640TIP3   OH238334   1.822   0.934  12.141  0.0794  0.2600  0.6903
 5640TIP3    H138335   1.842   0.846  12.172 -2.9316 -0.5857  0.5607
 5640TIP3    H238336   1.771   0.974  12.212 -0.4306  1.0799 -0.1069
 5641TIP3   OH238337   3.133   1.112   6.701  0.4206  0.0149 -0.7219
 5641TIP3    H138338   3.133   1.107   6.606 -2.8554 -0.5145 -0.7896
 5641TIP3    H238339   3.085   1.192   6.721  1.1971  0.2046  0.5265
 5642TIP3   OH238340   0.631   0.415   1.176 -0.2841 -0.2079  0.1713
 5642TIP3    H138341   0.628   0.333   1.224 -1.3799 -0.3922 -0.1907
 5642TIP3    H238342   0.696   0.468   1.222  0.3945 -1.2528  0.4388
 5643TIP3   OH238343   1.251   0.168  17.173  0.4196 -0.1751 -0.2205
 5643TIP3    H138344   1.230   0.164  17.266  1.2341 -2.4984 -0.0733
 5643TIP3    H238345   1.288   0.082  17.153  0.5611  0.3755 -2.6257
 5644TIP3   OH238346   2.973   0.924   5.500  0.4707  0.2773 -0.4730
 5644TIP3    H138347   2.885   0.887   5.513  0.2018  1.1074  0.2212
 5644TIP3    H238348   3.031   0.848   5.499 -0.2484 -0.2828 -0.8714
 5645TIP3   OH238349   0.911   2.294  13.374  0.1979  0.5324  0.1369
 5645TIP3    H138350   0.839   2.325  13.428  1.7655  0.4149  2.4405
 5645TIP3    H238351   0.937   2.371  13.322  0.3969  1.5041  1.6139
 5646TIP3   OH238352   3.662   3.584   5.259  0.4563 -0.0146  0.0933
 5646TIP3    H138353   3.646   3.491   5.243  0.4480  0.3011 -2.0309
 5646TIP3    H238354   3.581   3.627   5.230  1.3786  0.8180 -1.3862
 5647TIP3   OH238355   2.130   5.104   4.086  0.1449  0.1076 -0.0084
 5647TIP3    H138356   2.209   5.050   4.081  1.1191  1.3634  1.0671
 5647TIP3    H238357   2.116   5.133   3.996  1.5704  0.7549 -0.0539
 5648TIP3   OH238358   4.494   4.290  16.874  0.5638  0.1645 -0.1595
 5648TIP3    H138359   4.488   4.259  16.965 -0.8257  0.2334 -0.2061
 5648TIP3    H238360   4.412   4.262  16.834  0.8404  0.7979 -1.1885
 5649TIP3   OH238361   0.474   4.032  13.565 -0.2634 -0.0295  0.3844
 5649TIP3    H138362   0.433   3.945  13.564  0.2173 -0.3242  2.1955
 5649TIP3    H238363   0.567   4.014  13.554 -0.3459  0.4721 -1.5206
 5650TIP3   OH238364   1.692   4.703  15.538  0.4681  0.3338 -0.8185
 5650TIP3    H138365   1.646   4.647  15.476  2.0188 -1.6902 -0.2447
 5650TIP3    H238366   1.686   4.655  15.621  0.7986  1.6396 -0.0196
 5651TIP3   OH238367   0.398   5.710  11.684  0.2441 -0.3067  0.2466
 5651TIP3    H138368   0.441   5.688  11.766 -0.7180 -0.5677  0.6982
 5651TIP3    H238369   0.421   5.638  11.625  1.9310  0.4793 -0.1185
 5652TIP3   OH238370   4.844   2.855  15.403 -0.4370 -0.1737  0.2100
 5652TIP3    H138371   4.917   2.892  15.453  0.0080  0.4703 -0.8860
 5652TIP3    H238372   4.814   2.928  15.348 -0.0255 -1.2210 -1.4621
 5653TIP3   OH238373   1.049   2.658  14.395  0.1918  0.5832 -0.5365
 5653TIP3    H138374   1.003   2.724  14.344 -0.1624  1.9331  1.4152
 5653TIP3    H238375   0.987   2.633  14.463  1.6124  1.0176  0.9864
 5654TIP3   OH238376   3.220   5.273  13.708 -0.2717  0.0619  0.4731
 5654TIP3    H138377   3.188   5.202  13.764  0.0595  0.8105  1.6390
 5654TIP3    H238378   3.311   5.251  13.690 -0.0048  0.4429  1.2907
 5655TIP3   OH238379   3.654   2.516  15.846 -0.2928  0.5778 -0.4756
 5655TIP3    H138380   3.683   2.479  15.930 -0.7427  2.2301  0.4698
 5655TIP3    H238381   3.681   2.452  15.781  2.1022  0.2643  0.7030
 5656TIP3   OH238382   2.179   3.679  13.953 -0.2532  0.6980 -0.1709
 5656TIP3    H138383   2.188   3.650  14.044  0.2372 -0.2399 -0.5128
 5656TIP3    H238384   2.132   3.763  13.960  1.2397  1.4919  1.0752
 5657TIP3   OH238385   0.763   0.175   5.734  0.1363  0.4108 -0.0257
 5657TIP3    H138386   0.717   0.106   5.686 -0.9342  1.4768 -0.6013
 5657TIP3    H238387   0.816   0.129   5.798 -1.0588 -0.9364  0.0443
 5658TIP3   OH238388   0.262   1.704  15.051  0.3224 -0.2063 -0.0494
 5658TIP3    H138389   0.341   1.657  15.077 -0.9194 -1.5616  1.4915
 5658TIP3    H238390   0.255   1.776  15.114  0.0842 -0.3557  0.0941
 5659TIP3   OH238391   1.719   4.015  17.148  0.1490 -0.0343 -0.4587
 5659TIP3    H138392   1.704   4.012  17.053  0.0263  0.2769 -0.4532
 5659TIP3    H238393   1.807   4.050  17.157  0.2017 -0.1675 -0.4612
 5660TIP3   OH238394   6.585   1.777   0.070 -0.3289  0.3021 -0.4383
 5660TIP3    H138395   6.610   1.869   0.077 -1.5644  0.5430  2.1376
 5660TIP3    H238396   6.630   1.745  -0.008 -0.4293  3.2462 -1.8137
 5661TIP3   OH238397   2.508   3.364   3.511 -0.2332 -1.1902 -0.0344
 5661TIP3    H138398   2.593   3.332   3.481 -0.2100 -1.7040  0.5699
 5661TIP3    H238399   2.530   3.432   3.575 -0.2826 -0.1823 -1.0582
 5662TIP3   OH238400   4.010   0.454   5.059  0.2384  0.4766 -0.2336
 5662TIP3    H138401   4.052   0.501   5.131 -0.4264 -1.2875  1.3757
 5662TIP3    H238402   4.073   0.386   5.035 -0.4390 -0.3273  0.2108
 5663TIP3   OH238403   4.498   6.040   5.356  0.4813 -0.3628 -0.4433
 5663TIP3    H138404   4.483   5.955   5.397 -3.1398  0.3792  0.1255
 5663TIP3    H238405   4.468   6.104   5.421  1.5475  1.2701 -1.4832
 5664TIP3   OH238406   6.487   0.852   3.201 -0.0165 -0.2954  0.0173
 5664TIP3    H138407   6.505   0.760   3.219  0.9950 -0.2829 -0.8596
 5664TIP3    H238408   6.417   0.875   3.262  0.9640 -1.1531  1.5269
 5665TIP3   OH238409   4.950   2.480  13.292 -0.1171  0.0754  0.5001
 5665TIP3    H138410   4.948   2.385  13.304 -0.4395  0.1124  0.7668
 5665TIP3    H238411   5.022   2.495  13.232 -0.7105 -0.4333 -0.3710
 5666TIP3   OH238412   1.196   3.587   5.180 -0.0919 -0.1136  0.5972
 5666TIP3    H138413   1.209   3.534   5.102  0.9955  1.3542 -0.2747
 5666TIP3    H238414   1.106   3.619   5.173 -0.9113 -2.1164  1.3598
 5667TIP3   OH238415   1.049   0.326   2.710  0.2093 -0.4384 -0.4927
 5667TIP3    H138416   1.140   0.306   2.688  0.1985 -2.5028  1.0409
 5667TIP3    H238417   1.054   0.404   2.766  1.1752 -1.1405  0.4477
 5668TIP3   OH238418   0.884   4.544   2.582 -0.2800  0.0280 -0.6590
 5668TIP3    H138419   0.839   4.540   2.497 -1.7800  0.6382  0.0757
 5668TIP3    H238420   0.823   4.591   2.639  0.8561 -0.0686  0.6771
 5669TIP3   OH238421   2.212   6.652   1.902 -0.6879 -1.0506 -0.0202
 5669TIP3    H138422   2.168   6.600   1.970 -0.9636  0.3961  0.9598
 5669TIP3    H238423   2.167   6.736   1.904  0.3534 -0.4519 -0.9153
 5670TIP3   OH238424   4.970   5.083  12.687 -0.4387 -0.3330  0.0953
 5670TIP3    H138425   5.024   5.161  12.686 -0.7091 -0.1441 -1.1352
 5670TIP3    H238426   5.028   5.013  12.656 -0.6352 -0.3157 -0.3105
 5671TIP3   OH238427   2.451   1.396  13.544  0.8188 -0.0871 -0.1380
 5671TIP3    H138428   2.460   1.382  13.639  1.9468 -0.2473 -0.2524
 5671TIP3    H238429   2.495   1.479  13.529 -0.6387  0.6707 -0.3262
 5672TIP3   OH238430   2.307   5.268  15.477  0.2604  0.3111 -0.3666
 5672TIP3    H138431   2.384   5.323  15.492  1.3939 -1.6132  1.2419
 5672TIP3    H238432   2.237   5.311  15.526  1.1621  0.2536  1.0164
 5673TIP3   OH238433   2.728   1.086  16.023  0.4410 -1.0133  0.2175
 5673TIP3    H138434   2.752   1.168  16.066 -2.7954 -0.3953  1.1948
 5673TIP3    H238435   2.774   1.087  15.939 -0.2439  2.3651 -0.2488
 5674TIP3   OH238436   1.698   3.740  15.544  0.4917  0.0079  0.3815
 5674TIP3    H138437   1.776   3.686  15.525 -0.9229 -1.0257 -3.5303
 5674TIP3    H238438   1.626   3.677  15.542 -0.6900  1.3027  1.4027
 5675TIP3   OH238439   5.968   5.742  16.125 -0.0641 -0.2147  0.0457
 5675TIP3    H138440   5.953   5.824  16.078 -1.5598 -1.4734 -1.8375
 5675TIP3    H238441   6.063   5.739  16.138  0.4509  0.2687 -2.8965
 5676TIP3   OH238442   3.651   3.003  14.753  0.3896  0.0747 -0.4264
 5676TIP3    H138443   3.746   3.015  14.752  0.1778  2.1958  0.5059
 5676TIP3    H238444   3.639   2.915  14.788  2.0055  0.1177  0.3140
 5677TIP3   OH238445   0.555   5.881  13.965  0.2362 -0.3167  0.2331
 5677TIP3    H138446   0.598   5.892  13.881 -0.4874  1.5937  0.0382
 5677TIP3    H238447   0.626   5.868  14.028  0.8979 -0.1256 -0.4674
 5678TIP3   OH238448   3.991   6.762   1.318  0.0162  0.5848 -0.4145
 5678TIP3    H138449   4.041   6.703   1.374  0.5326  0.4588 -0.9979
 5678TIP3    H238450   3.920   6.795   1.374 -0.8713 -1.3406 -0.3302
 5679TIP3   OH238451   5.643   2.122  14.656 -0.0898  0.4686  0.3281
 5679TIP3    H138452   5.604   2.113  14.743  0.3034 -1.6402  0.3257
 5679TIP3    H238453   5.666   2.033  14.631 -0.9221  0.9239 -2.3004
 5680TIP3   OH238454   5.083   4.268  15.227 -0.0819 -0.0967  0.6417
 5680TIP3    H138455   5.092   4.173  15.232 -0.6516 -0.1359  1.0018
 5680TIP3    H238456   5.112   4.299  15.312  1.8802  0.2187 -0.0766
 5681TIP3   OH238457   3.550   2.772  14.903  0.1558 -0.9261  0.1046
 5681TIP3    H138458   3.589   2.712  14.966  1.5027 -1.2241 -0.9650
 5681TIP3    H238459   3.532   2.719  14.826 -0.7313 -0.4021 -0.0739
 5682TIP3   OH238460   2.171   5.482   0.770 -0.1177  0.0679  0.7588
 5682TIP3    H138461   2.207   5.443   0.690 -0.3608 -0.0030  0.6839
 5682TIP3    H238462   2.080   5.502   0.748 -0.8858 -2.0557  1.7044
 5683TIP3   OH238463   3.694   4.829   3.301 -0.0277 -0.3293 -0.3811
 5683TIP3    H138464   3.737   4.915   3.294 -1.0687  0.2135 -0.3023
 5683TIP3    H238465   3.703   4.806   3.394 -0.9933  0.3861 -0.0884
 5684TIP3   OH238466   3.871   4.904   5.972  0.6131 -0.1930  0.6794
 5684TIP3    H138467   3.875   4.979   6.031  1.0609  0.2665  0.0657
 5684TIP3    H238468   3.785   4.866   5.988  1.0617 -0.6053  2.2739
 5685TIP3   OH238469   4.324   1.920  12.882  0.0370  0.1500  0.1889
 5685TIP3    H138470   4.295   1.845  12.829  0.3752 -0.1052  0.3568
 5685TIP3    H238471   4.254   1.984  12.874  0.2521  0.2699 -0.8723
 5686TIP3   OH238472   6.182   1.740   1.794 -0.3172 -0.4574 -0.1441
 5686TIP3    H138473   6.111   1.681   1.820  0.8663 -1.2936  1.3730
 5686TIP3    H238474   6.261   1.699   1.829  0.9834  0.3002 -1.9998
 5687TIP3   OH238475   3.615   5.925  16.336 -0.2689  0.1489  0.1013
 5687TIP3    H138476   3.619   6.000  16.395 -1.3492 -1.1002  1.8722
 5687TIP3    H238477   3.700   5.883  16.345 -0.3103  0.1522  0.5436
 5688TIP3   OH238478   1.220   2.890   5.052 -0.4479  0.1274 -0.0087
 5688TIP3    H138479   1.215   2.795   5.043 -1.5789  0.1046  0.5560
 5688TIP3    H238480   1.171   2.924   4.977  0.0110  0.2748 -0.2464
 5689TIP3   OH238481   3.805   4.080  14.678  0.2977  0.3297  1.0668
 5689TIP3    H138482   3.871   4.095  14.610 -0.5185  1.6114  0.5302
 5689TIP3    H238483   3.854   4.043  14.751  1.2664 -0.7093 -0.0562
 5690TIP3   OH238484   2.201   0.591   2.710  0.0338  0.0822 -0.0515
 5690TIP3    H138485   2.217   0.594   2.616 -0.6470  0.3063 -0.1612
 5690TIP3    H238486   2.130   0.653   2.724  1.6514  1.8378  0.9187
 5691TIP3   OH238487   4.523   6.201  12.167  0.0258 -0.4505 -0.1315
 5691TIP3    H138488   4.488   6.288  12.149 -0.9724 -0.6551  0.6858
 5691TIP3    H238489   4.448   6.153  12.203  1.2788 -0.7226  2.2861
 5692TIP3   OH238490   4.209   2.061   0.959 -0.2865  0.2091 -0.9156
 5692TIP3    H138491   4.150   2.079   0.886 -0.4466  0.6044 -0.6954
 5692TIP3    H238492   4.203   2.139   1.014  0.5159  0.2903 -0.9325
 5693TIP3   OH238493   1.096   0.567  11.302  0.6442 -0.0105 -0.0465
 5693TIP3    H138494   1.018   0.615  11.275 -0.2843 -1.5987 -0.3425
 5693TIP3    H238495   1.073   0.528  11.386  1.4795  0.2933  0.3311
 5694TIP3   OH238496   5.102   0.839  13.672  0.2850 -0.2896 -0.7810
 5694TIP3    H138497   5.148   0.844  13.588  0.0269  4.1775 -0.9129
 5694TIP3    H238498   5.029   0.901  13.663  0.4746  0.6734  2.7803
 5695TIP3   OH238499   3.568   3.598   2.663  0.7289 -0.2289  0.0486
 5695TIP3    H138500   3.646   3.543   2.651 -0.0280 -1.1257 -0.9903
 5695TIP3    H238501   3.495   3.542   2.637 -0.2781  0.5972  0.9964
 5696TIP3   OH238502   6.303   4.133  15.108  0.3690 -0.0667 -0.3232
 5696TIP3    H138503   6.369   4.200  15.123  0.4496 -0.5252  1.6414
 5696TIP3    H238504   6.313   4.072  15.181 -1.2289 -0.9760 -0.7963
 5697TIP3   OH238505   6.151   1.419  12.432  0.2525 -0.2620 -0.7126
 5697TIP3    H138506   6.086   1.458  12.374 -0.1333 -0.3773 -0.3650
 5697TIP3    H238507   6.209   1.491  12.456  0.5678 -0.2586 -1.4287
 5698TIP3   OH238508   6.235   6.745  16.666 -0.0978  0.1632  0.5267
 5698TIP3    H138509   6.152   6.716  16.701 -0.6838  2.2409  1.0136
 5698TIP3    H238510   6.300   6.690  16.709 -1.1664 -1.1686  0.4957
 5699TIP3   OH238511   2.745   3.168  15.655  0.2803  0.6791  0.2318
 5699TIP3    H138512   2.760   3.230  15.726 -0.6010  0.4320  0.6481
 5699TIP3    H238513   2.743   3.221  15.576  2.8177  0.7897  0.1689
 5700TIP3   OH238514   5.778   6.783  16.381 -0.0052  0.5985 -0.5014
 5700TIP3    H138515   5.712   6.850  16.396  0.4777  0.8734  0.4759
 5700TIP3    H238516   5.851   6.829  16.339  0.1080  0.5671 -0.3379
 5701TIP3   OH238517   0.543   1.784   3.144 -0.1218 -0.1929 -0.3990
 5701TIP3    H138518   0.519   1.866   3.102  1.8039 -0.0853 -1.4349
 5701TIP3    H238519   0.632   1.799   3.177  0.0375 -1.6518 -0.0726
 5702TIP3   OH238520   0.170   1.914  16.040  0.0632 -0.0244  0.4648
 5702TIP3    H138521   0.161   1.967  16.120  3.0141 -2.4531  2.6637
 5702TIP3    H238522   0.256   1.938  16.005  0.3637 -1.5219  0.1059
 5703TIP3   OH238523   4.486   5.245  11.439 -0.4811 -0.0638 -0.2075
 5703TIP3    H138524   4.555   5.246  11.371 -1.5961 -2.7240 -1.5443
 5703TIP3    H238525   4.495   5.159  11.479 -0.9731  0.8291  1.9136
 5704TIP3   OH238526   0.330   1.794   4.544  0.2625  0.9632 -0.0732
 5704TIP3    H138527   0.416   1.829   4.565  0.9762 -0.9095  0.3783
 5704TIP3    H238528   0.272   1.829   4.612  0.8417  1.5782  0.1075
 5705TIP3   OH238529   3.752   1.440  12.618 -0.7752  0.3954  0.4523
 5705TIP3    H138530   3.736   1.351  12.650  1.1104  0.3870  1.5345
 5705TIP3    H238531   3.746   1.433  12.523  1.7157 -1.4743  0.3444
 5706TIP3   OH238532   2.185   3.010   0.677  0.3003 -0.3439 -0.7945
 5706TIP3    H138533   2.280   3.012   0.675  0.3237  0.1337  0.0402
 5706TIP3    H238534   2.157   3.081   0.619  0.4886  0.2128 -0.2261
 5707TIP3   OH238535   1.576   2.117   1.018  0.2303  0.1432  0.0244
 5707TIP3    H138536   1.514   2.186   1.043  0.9309  0.7735  0.0328
 5707TIP3    H238537   1.555   2.098   0.926 -0.2805  0.0253  0.1631
 5708TIP3   OH238538   2.129   1.891   0.704  0.5208  0.2855 -0.0259
 5708TIP3    H138539   2.164   1.824   0.762  2.0571  1.7019  0.7813
 5708TIP3    H238540   2.045   1.916   0.744  0.2463 -0.6842  0.0184
 5709TIP3   OH238541   1.287   4.497   1.045 -0.0497  0.1341 -0.3036
 5709TIP3    H138542   1.215   4.526   1.101 -0.2579 -0.9004 -0.0211
 5709TIP3    H238543   1.281   4.553   0.968 -3.1087 -1.8940 -1.7451
 5710TIP3   OH238544   5.072   0.555   6.078 -0.0573  0.2058  0.1480
 5710TIP3    H138545   5.048   0.470   6.116 -2.0231  2.0822  3.7051
 5710TIP3    H238546   5.035   0.553   5.990 -1.3316 -2.1238  0.6383
 5711TIP3   OH238547   3.309   5.726   3.795  0.2758 -0.8638 -0.3841
 5711TIP3    H138548   3.324   5.791   3.726 -1.2851 -0.5008 -0.4066
 5711TIP3    H238549   3.284   5.646   3.749  0.0860 -0.8691 -0.2743
 5712TIP3   OH238550   2.165   0.776  11.365  0.3044  0.8402  0.1796
 5712TIP3    H138551   2.206   0.689  11.366  1.2623  1.2760  0.4676
 5712TIP3    H238552   2.237   0.835  11.342 -0.3058  1.5705  0.1272
 5713TIP3   OH238553   0.084   1.658  14.036 -0.1872  0.3507  0.1142
 5713TIP3    H138554   0.117   1.747  14.033  0.0638  0.3089  1.1577
 5713TIP3    H238555   0.161   1.604  14.055  0.0426 -0.3462 -2.4508
 5714TIP3   OH238556   3.294   2.231  12.937  0.3538 -0.0622  0.1318
 5714TIP3    H138557   3.347   2.230  12.858  2.0358 -1.2972  1.1991
 5714TIP3    H238558   3.210   2.195  12.910  0.9519 -0.6010 -1.0758
 5715TIP3   OH238559   0.784   5.576   4.082 -0.5722 -0.2342 -0.6051
 5715TIP3    H138560   0.767   5.499   4.027 -1.2328 -0.5502  0.0115
 5715TIP3    H238561   0.734   5.559   4.162  1.5886 -0.5575  0.7843
 5716TIP3   OH238562   1.772   3.012   5.507 -0.1018  0.1429  0.4752
 5716TIP3    H138563   1.783   3.096   5.463 -2.0454  1.4784  2.2976
 5716TIP3    H238564   1.679   2.991   5.495  0.4990 -2.2976 -0.7209
 5717TIP3   OH238565   0.600   0.443  16.981  0.2589 -0.2120 -0.3687
 5717TIP3    H138566   0.592   0.433  16.886  1.8442  1.1169 -0.6820
 5717TIP3    H238567   0.688   0.479  16.994 -0.3727  0.7704  1.5129
 5718TIP3   OH238568   4.908   6.112  15.646 -0.2646  0.3166  0.0740
 5718TIP3    H138569   4.966   6.188  15.642  0.1695 -0.0477 -1.7583
 5718TIP3    H238570   4.961   6.040  15.611 -1.3824 -0.3207 -0.3673
 5719TIP3   OH238571   4.280   0.871  12.198 -0.3432 -0.5415  0.1080
 5719TIP3    H138572   4.253   0.932  12.266 -0.6879 -0.5121 -0.0528
 5719TIP3    H238573   4.337   0.922  12.140 -0.2101 -0.5151  0.2625
 5720TIP3   OH238574   1.952   3.423  15.827 -0.2496 -0.3800 -0.1707
 5720TIP3    H138575   1.980   3.461  15.910  1.6155  0.7214 -1.2190
 5720TIP3    H238576   2.034   3.395  15.786 -1.1901 -1.4639 -1.3767
 5721TIP3   OH238577   3.909   0.859  13.771  0.0358 -0.3712 -0.2929
 5721TIP3    H138578   3.949   0.945  13.787 -0.3471 -0.4764  1.5122
 5721TIP3    H238579   3.816   0.873  13.789 -0.1353 -1.0135 -0.6648
 5722TIP3   OH238580   2.859   4.095  15.914  0.7312 -0.2428  0.3011
 5722TIP3    H138581   2.787   4.104  15.852 -0.6495 -0.2573  1.8257
 5722TIP3    H238582   2.929   4.053  15.864  0.2634  1.1806 -1.6458
 5723TIP3   OH238583   5.093   3.522  13.217 -0.1722 -0.1079  0.5922
 5723TIP3    H138584   5.025   3.506  13.282 -0.4392 -0.5392  0.2116
 5723TIP3    H238585   5.051   3.576  13.150 -0.1151 -0.2970  0.4021
 5724TIP3   OH238586   4.186   3.198   0.139  0.1843  0.1335 -0.1401
 5724TIP3    H138587   4.132   3.251   0.198 -0.7776  0.2253 -1.0701
 5724TIP3    H238588   4.148   3.212   0.053 -0.4789 -2.5215 -0.3528
 5725TIP3   OH238589   2.418   4.783  13.210  0.2484  0.0864 -0.6609
 5725TIP3    H138590   2.445   4.840  13.282 -0.0344  0.4732 -0.8615
 5725TIP3    H238591   2.332   4.750  13.236  1.3307 -2.0233  0.4966
 5726TIP3   OH238592   4.535   6.104   2.180 -0.2884  0.0553  0.2209
 5726TIP3    H138593   4.546   6.082   2.088  0.2423 -1.2527  0.5652
 5726TIP3    H238594   4.544   6.199   2.184 -0.5601  0.1519 -1.0970
 5727TIP3   OH238595   5.058   5.563   4.262 -0.6098  0.1527 -0.0756
 5727TIP3    H138596   5.126   5.500   4.287  0.0255 -0.1556 -2.3614
 5727TIP3    H238597   5.090   5.647   4.293 -0.2938 -0.2879  0.8441
 5728TIP3   OH238598   6.630   4.647  16.782 -0.7369  0.3607 -0.0748
 5728TIP3    H138599   6.692   4.631  16.853 -0.6436 -0.9664 -0.4228
 5728TIP3    H238600   6.576   4.568  16.779 -0.3447  0.1167 -1.8481
 5729TIP3   OH238601   3.404   0.250   1.757 -1.3563 -0.1163 -0.4314
 5729TIP3    H138602   3.473   0.221   1.817 -2.5894  0.0086  1.0944
 5729TIP3    H238603   3.387   0.174   1.702  1.5665  0.5180 -2.4706
 5730TIP3   OH238604   2.469   0.521  10.585  0.2280  0.1158 -0.2343
 5730TIP3    H138605   2.411   0.462  10.538 -0.6752  0.1644  0.8008
 5730TIP3    H238606   2.554   0.476  10.586  0.0657 -0.2405 -1.1818
 5731TIP3   OH238607   4.945   6.038  10.370 -0.4234 -0.2446 -1.2444
 5731TIP3    H138608   5.026   6.017  10.323 -0.4705 -1.9905 -0.6391
 5731TIP3    H238609   4.926   5.958  10.420 -0.6227  1.3468  1.3949
 5732TIP3   OH238610   4.355   3.767   1.566 -0.2695 -0.0108  0.0769
 5732TIP3    H138611   4.336   3.821   1.643  0.5678  1.3662 -0.6360
 5732TIP3    H238612   4.269   3.751   1.526 -0.7580 -1.0546  1.4609
 5733TIP3   OH238613   5.431   0.253   2.963 -0.0967 -0.4797 -0.1237
 5733TIP3    H138614   5.376   0.179   2.938  1.5354 -1.5562 -0.7169
 5733TIP3    H238615   5.518   0.215   2.977  0.5688  1.1761  0.5813
 5734TIP3   OH238616   0.167   1.043   4.358 -0.2627  0.4455 -0.1295
 5734TIP3    H138617   0.233   1.011   4.296 -0.4968  1.2946 -0.8316
 5734TIP3    H238618   0.206   1.121   4.396 -0.6861  0.7062 -0.2270
 5735TIP3   OH238619   2.608   1.899   6.455 -0.4242 -0.4881  0.4276
 5735TIP3    H138620   2.665   1.823   6.467 -2.0157 -1.7211  0.5572
 5735TIP3    H238621   2.659   1.973   6.490  1.4356 -1.3505 -0.3494
 5736TIP3   OH238622   5.702   6.130   4.334  0.6417  0.1430  0.7105
 5736TIP3    H138623   5.612   6.161   4.350  1.1250  2.0924 -0.0598
 5736TIP3    H238624   5.697   6.035   4.345 -2.0136 -0.0958 -1.5812
 5737TIP3   OH238625   1.024   6.308   0.724  0.2586  0.0549  0.1529
 5737TIP3    H138626   0.998   6.373   0.790 -1.0266 -0.3368  0.0534
 5737TIP3    H238627   1.070   6.359   0.657 -1.9029  1.1215 -0.5965
 5738TIP3   OH238628   5.237   1.589   5.500  0.5505  0.2132 -0.1244
 5738TIP3    H138629   5.197   1.502   5.512  2.9775 -0.7340  1.9694
 5738TIP3    H238630   5.284   1.582   5.417 -0.8964  0.2592 -0.9793
 5739TIP3   OH238631   5.789   4.117   3.412 -0.0365 -0.2860 -0.1166
 5739TIP3    H138632   5.784   4.027   3.380 -0.7332 -1.6290  3.3170
 5739TIP3    H238633   5.703   4.154   3.392 -0.9901 -1.5740  1.3555
 5740TIP3   OH238634   2.539   3.498   2.907  0.9713  0.1011 -0.0588
 5740TIP3    H138635   2.472   3.438   2.942 -1.5477  1.6964 -1.7852
 5740TIP3    H238636   2.541   3.571   2.968 -1.2065  1.4637 -1.4841
 5741TIP3   OH238637   4.636   3.221  13.796 -0.0113  0.9786  0.0147
 5741TIP3    H138638   4.551   3.187  13.766  1.1355 -0.2335 -2.0590
 5741TIP3    H238639   4.660   3.162  13.868 -0.6774  1.0476  0.3101
 5742TIP3   OH238640   4.669   1.518   3.573  0.4104  0.1464 -0.9310
 5742TIP3    H138641   4.722   1.457   3.624 -0.0454  0.4894 -0.0176
 5742TIP3    H238642   4.685   1.494   3.482  2.0381  0.1654 -0.6791
 5743TIP3   OH238643   3.678   2.612   0.717  0.1175 -0.0222 -0.4817
 5743TIP3    H138644   3.648   2.674   0.784  1.2593  2.2687 -1.9577
 5743TIP3    H238645   3.603   2.602   0.658 -0.1013 -0.1160 -0.1886
 5744TIP3   OH238646   5.238   5.955   0.293 -0.3609  0.1238 -0.2780
 5744TIP3    H138647   5.176   5.925   0.227 -1.4338 -0.3845  0.9070
 5744TIP3    H238648   5.324   5.943   0.253 -0.8664 -2.1932 -0.8045
 5745TIP3   OH238649   5.093   3.330   5.092  0.0577  0.1607  0.2515
 5745TIP3    H138650   5.149   3.349   5.168  0.4192  2.3044 -0.4903
 5745TIP3    H238651   5.065   3.416   5.061 -1.1476 -0.7388 -1.2843
 5746TIP3   OH238652   2.033   0.762   5.709 -0.0678 -0.2748 -0.6896
 5746TIP3    H138653   2.122   0.744   5.739 -0.6717 -0.7127  0.9017
 5746TIP3    H238654   2.043   0.833   5.645  1.2803  0.6900  0.5406
 5747TIP3   OH238655   4.096   5.896  14.539  0.0072  0.5396 -0.2493
 5747TIP3    H138656   4.137   5.872  14.456  2.0117 -1.1538  1.1353
 5747TIP3    H238657   4.164   5.945  14.586 -0.5297  0.1263  1.0013
 5748TIP3   OH238658   5.036   3.685  16.670 -0.2574 -1.1786 -0.0047
 5748TIP3    H138659   4.951   3.647  16.692 -0.8785 -0.7724 -1.5610
 5748TIP3    H238660   5.029   3.777  16.696 -0.7771 -0.8390 -1.3004
 5749TIP3   OH238661   4.565   6.160   4.389 -0.1526 -0.3345 -0.1040
 5749TIP3    H138662   4.568   6.077   4.437  1.6177 -0.0750  0.3164
 5749TIP3    H238663   4.474   6.187   4.392 -0.8078 -2.3465 -0.3901
 5750TIP3   OH238664   3.363   4.241   6.499 -0.0849 -0.2300  0.4350
 5750TIP3    H138665   3.448   4.275   6.526 -0.6575 -0.2462  2.3906
 5750TIP3    H238666   3.307   4.318   6.490 -0.4703 -0.3735  1.4804
 5751TIP3   OH238667   4.153   4.249  12.006  0.6420 -0.1331 -0.8632
 5751TIP3    H138668   4.194   4.225  11.923  0.1399 -0.8016 -0.9298
 5751TIP3    H238669   4.211   4.212  12.073  0.2857 -0.8812 -0.9522
 5752TIP3   OH238670   0.498   2.245   0.536 -0.3810 -0.8618  0.1985
 5752TIP3    H138671   0.456   2.325   0.504  0.7114  0.5043  2.0174
 5752TIP3    H238672   0.496   2.186   0.461  0.7412  1.6338 -1.9448
 5753TIP3   OH238673   2.799   2.746   5.197  0.2969  0.3377 -0.0539
 5753TIP3    H138674   2.748   2.681   5.245  1.1842 -0.4128 -0.1043
 5753TIP3    H238675   2.785   2.725   5.105  0.3614  0.3950 -0.0772
 5754TIP3   OH238676   5.976   1.210  13.161  0.3683 -0.3180  0.1994
 5754TIP3    H138677   6.064   1.180  13.139 -0.5248 -1.8007 -1.6728
 5754TIP3    H238678   5.985   1.305  13.170  1.8709 -0.2001 -1.7382
 5755TIP3   OH238679   1.280   4.576  13.684  0.3590  0.7207  0.4411
 5755TIP3    H138680   1.246   4.637  13.618  1.9256  1.1445 -0.0170
 5755TIP3    H238681   1.209   4.566  13.747 -0.4051  1.9746 -0.1915
 5756TIP3   OH238682   6.260   5.188   2.462  0.4553 -0.2976  0.5104
 5756TIP3    H138683   6.218   5.111   2.424 -0.4943  0.7070 -0.5385
 5756TIP3    H238684   6.299   5.233   2.387  0.6854  0.4430  1.0655
 5757TIP3   OH238685   2.359   2.099   0.242 -0.0826 -0.4060  0.7255
 5757TIP3    H138686   2.310   2.056   0.172 -1.5330  0.7436  0.9915
 5757TIP3    H238687   2.436   2.043   0.254 -0.0562 -0.9271 -1.4007
 5758TIP3   OH238688   0.415   5.365   3.023 -0.5589 -0.0282  0.3873
 5758TIP3    H138689   0.437   5.272   3.027 -1.0047 -0.1339  0.4760
 5758TIP3    H238690   0.333   5.372   3.071 -0.9726  0.2636 -0.3360
 5759TIP3   OH238691   0.467   4.798   0.675  0.0467 -0.6857 -0.0197
 5759TIP3    H138692   0.549   4.755   0.699  0.2829 -0.1806  0.1114
 5759TIP3    H238693   0.432   4.747   0.603  0.3321 -1.0756  0.1166
 5760TIP3   OH238694   0.780   6.064  16.583  0.0535  0.4691 -0.0859
 5760TIP3    H138695   0.721   6.058  16.658  0.4377 -0.1768  0.1702
 5760TIP3    H238696   0.737   6.012  16.515 -0.9511  2.1002 -0.7892
 5761TIP3   OH238697   5.226   5.873   3.744 -0.4319 -0.4609  0.4508
 5761TIP3    H138698   5.131   5.865   3.739 -0.3285 -1.0297 -2.2776
 5761TIP3    H238699   5.243   5.965   3.726 -0.4366 -0.6904 -0.8111
 5762TIP3   OH238700   3.579   4.296   0.558  0.1141  0.2374  0.0180
 5762TIP3    H138701   3.635   4.219   0.567 -2.1070 -1.4918 -0.1962
 5762TIP3    H238702   3.589   4.322   0.466  0.5891 -0.0120 -0.0071
 5763TIP3   OH238703   2.989   4.120   1.468 -0.6148 -0.0232  0.7463
 5763TIP3    H138704   2.953   4.180   1.533 -0.2803  0.8371  0.1580
 5763TIP3    H238705   2.913   4.077   1.431 -1.1577  2.0480 -0.7481
 5764TIP3   OH238706   2.573   4.124  11.212 -0.3560  0.2822  0.3973
 5764TIP3    H138707   2.484   4.109  11.182 -0.7080  0.6062  1.2511
 5764TIP3    H238708   2.618   4.160  11.136 -1.5877  2.3904  0.5737
 5765TIP3   OH238709   5.927   3.576   0.831  0.5767 -0.1133  0.7175
 5765TIP3    H138710   5.963   3.655   0.792 -0.1734  0.3268  0.9051
 5765TIP3    H238711   5.926   3.594   0.925 -2.3570  0.8727  0.5960
 5766TIP3   OH238712   5.248   3.483   2.421 -0.2951 -0.0475  0.3203
 5766TIP3    H138713   5.318   3.501   2.358 -0.6437  0.1167 -0.0213
 5766TIP3    H238714   5.170   3.470   2.368 -0.0447 -2.8922  0.4757
 5767TIP3   OH238715   2.967   4.322  12.407  0.2850 -0.3253 -0.3903
 5767TIP3    H138716   2.999   4.240  12.444 -1.9877 -1.2255 -0.2652
 5767TIP3    H238717   2.985   4.315  12.313 -2.0061 -2.1111 -0.7728
 5768TIP3   OH238718   6.160   5.643   4.234 -0.1221  0.5131  0.5236
 5768TIP3    H138719   6.099   5.654   4.161 -1.2297 -0.0356  1.3294
 5768TIP3    H238720   6.114   5.584   4.294  0.2365  1.9023  2.2257
 5769TIP3   OH238721   2.506   4.570  14.475 -0.2389 -0.0775 -0.0542
 5769TIP3    H138722   2.562   4.510  14.524  1.3676  0.2668 -1.3465
 5769TIP3    H238723   2.566   4.635  14.440 -0.8438 -1.3333 -4.0338
 5770TIP3   OH238724   1.551   1.048   5.172  0.3051 -0.6942  0.1429
 5770TIP3    H138725   1.533   0.954   5.164  0.0191 -0.6674  0.4213
 5770TIP3    H238726   1.466   1.089   5.156  0.7297 -0.3983 -1.5160
 5771TIP3   OH238727   5.009   2.099  14.636 -0.0666  0.1378 -0.2245
 5771TIP3    H138728   4.930   2.129  14.680 -1.6881 -2.2944 -1.2570
 5771TIP3    H238729   5.064   2.062  14.706  0.6995  2.7339  0.6363
 5772TIP3   OH238730   3.022   5.286  12.175 -0.0338  0.4906 -0.4706
 5772TIP3    H138731   3.079   5.303  12.250 -0.8883 -0.0475  0.3169
 5772TIP3    H238732   2.941   5.333  12.193  0.5152  2.1997 -2.1270
 5773TIP3   OH238733   2.637   4.751  14.316 -0.0325 -0.0957  0.2313
 5773TIP3    H138734   2.698   4.677  14.307 -0.3733 -0.3905  0.3210
 5773TIP3    H238735   2.667   4.815  14.251 -0.0868 -0.5542 -0.2471
 5774TIP3   OH238736   6.187   4.487   0.697  0.2303 -0.0833 -0.3683
 5774TIP3    H138737   6.230   4.411   0.657 -2.0834 -1.0113 -1.2770
 5774TIP3    H238738   6.187   4.554   0.629 -0.0873 -0.2162 -0.4999
 5775TIP3   OH238739   2.856   1.910   4.962 -0.7261  0.7505  0.2881
 5775TIP3    H138740   2.897   1.881   5.043 -0.4545  1.0336  0.2528
 5775TIP3    H238741   2.923   1.895   4.895 -0.5843  1.4398  0.2667
 5776TIP3   OH238742   1.759   5.893  16.441 -0.0217  0.4009  0.5077
 5776TIP3    H138743   1.845   5.859  16.414 -0.2115 -0.1273  0.5569
 5776TIP3    H238744   1.724   5.825  16.499 -1.1933 -0.1626 -0.8201
 5777TIP3   OH238745   3.718   1.728   2.288  0.5029 -0.7133  0.2226
 5777TIP3    H138746   3.705   1.803   2.347  0.5934 -0.5167 -0.0047
 5777TIP3    H238747   3.786   1.757   2.227  0.4279 -0.9243  0.0364
 5778TIP3   OH238748   0.754   4.935   5.138  0.3849  0.2356  0.2064
 5778TIP3    H138749   0.674   4.918   5.088 -0.1648 -1.3299  1.5180
 5778TIP3    H238750   0.751   5.029   5.158 -0.6013  0.3908 -0.6173
 5779TIP3   OH238751   0.223   2.800   4.731 -0.0059 -0.0851  0.7014
 5779TIP3    H138752   0.309   2.759   4.719 -0.1402  0.0629 -0.9034
 5779TIP3    H238753   0.243   2.893   4.744  0.0421  0.2915 -1.6020
 5780TIP3   OH238754   1.556   1.672   4.453  0.3819  0.4748  0.1472
 5780TIP3    H138755   1.499   1.749   4.458  2.1057  1.8739 -0.7362
 5780TIP3    H238756   1.645   1.707   4.462  1.1805 -1.5519  0.7877
 5781TIP3   OH238757   6.359   3.383  13.515 -0.0144  0.1487 -0.2453
 5781TIP3    H138758   6.397   3.355  13.431  1.8086 -0.5911  0.7692
 5781TIP3    H238759   6.329   3.472  13.499  1.7165  0.6028 -1.2951
 5782TIP3   OH238760   1.918   1.796   2.346  0.1238 -0.8736  0.1394
 5782TIP3    H138761   1.872   1.831   2.422 -2.8116 -2.3049 -0.8169
 5782TIP3    H238762   1.948   1.874   2.298 -1.8458  0.1884  0.5504
 5783TIP3   OH238763   2.007   5.374   0.440  0.4846 -0.1135 -0.3947
 5783TIP3    H138764   2.061   5.440   0.396  0.2801 -0.3894 -1.0670
 5783TIP3    H238765   2.048   5.290   0.417 -0.2935 -0.3328 -1.0143
 5784TIP3   OH238766   5.386   0.039  13.268  0.3552 -0.4618 -0.7744
 5784TIP3    H138767   5.463   0.094  13.281  0.6173 -0.5450 -1.9001
 5784TIP3    H238768   5.393   0.009  13.177 -2.0485  1.1925 -1.6011
 5785TIP3   OH238769   1.901   0.675   2.205 -0.3347 -0.1211  0.1049
 5785TIP3    H138770   1.822   0.632   2.172 -0.6531  0.7930 -0.3450
 5785TIP3    H238771   1.870   0.742   2.266 -0.0297  1.1894 -1.1142
 5786TIP3   OH238772   3.310   0.711  14.239  0.8262 -0.5332  0.3782
 5786TIP3    H138773   3.345   0.778  14.297  0.8082 -0.7360  0.6221
 5786TIP3    H238774   3.228   0.684  14.280  1.5434 -1.7594  1.0641
 5787TIP3   OH238775   2.081   2.264   6.212  0.1141 -0.4587 -0.6417
 5787TIP3    H138776   2.037   2.238   6.130  1.4797 -1.2967 -1.1300
 5787TIP3    H238777   2.012   2.307   6.263 -0.4957  1.3123 -2.7707
 5788TIP3   OH238778   2.249   2.797   0.444 -0.0667  0.0628  0.8677
 5788TIP3    H138779   2.304   2.874   0.429  0.5588 -0.0829  2.2209
 5788TIP3    H238780   2.171   2.832   0.488  0.2463 -0.0556  1.5417
 5789TIP3   OH238781   2.675   1.203   2.345 -0.4472 -0.2917 -0.0380
 5789TIP3    H138782   2.677   1.280   2.401 -1.4620 -0.5599  0.3868
 5789TIP3    H238783   2.732   1.140   2.390  0.6020  0.2801 -0.5262
 5790TIP3   OH238784   1.181   6.230  12.508  0.0089 -0.0389  0.1250
 5790TIP3    H138785   1.255   6.186  12.550 -0.0528  0.5424  0.8496
 5790TIP3    H238786   1.119   6.159  12.491  0.5725 -0.4757 -0.1779
 5791TIP3   OH238787   4.948   0.811   2.573 -0.3669  0.3027 -0.1046
 5791TIP3    H138788   4.859   0.844   2.558 -0.8967  0.0305  2.0362
 5791TIP3    H238789   4.964   0.751   2.500 -1.6098  0.9747 -0.9739
 5792TIP3   OH238790   5.224   4.975   2.448 -0.2768  0.6835  0.1194
 5792TIP3    H138791   5.243   4.934   2.533 -1.9060  1.9206  1.1482
 5792TIP3    H238792   5.309   5.007   2.418  0.4630 -0.4610  0.8995
 5793TIP3   OH238793   4.129   3.750   3.542 -0.7337 -0.1359  0.3426
 5793TIP3    H138794   4.218   3.761   3.576 -1.1195  0.3465  1.2203
 5793TIP3    H238795   4.082   3.705   3.613 -0.7806 -1.9303 -0.7505
 5794TIP3   OH238796   4.079   2.722  14.509  0.5042 -0.0584 -0.3349
 5794TIP3    H138797   4.175   2.717  14.515  0.7498  1.8754 -1.5463
 5794TIP3    H238798   4.047   2.659  14.574  2.5831 -1.2426 -0.3725
 5795TIP3   OH238799   1.074   0.641   2.411  0.1440  0.1076  0.2550
 5795TIP3    H138800   1.086   0.569   2.349  0.6011  1.1787 -0.9510
 5795TIP3    H238801   0.979   0.643   2.427  0.0182 -0.1878 -0.4131
 5796TIP3   OH238802   2.353   5.392   0.987 -0.6624  0.1798  0.2449
 5796TIP3    H138803   2.271   5.437   0.969 -0.8494 -0.5922 -1.0511
 5796TIP3    H238804   2.334   5.300   0.967  0.1836 -0.1919  1.1053
 5797TIP3   OH238805   1.864   4.012   5.197  0.9493  0.2190  0.1611
 5797TIP3    H138806   1.912   3.933   5.224  1.8691  0.7368  0.0813
 5797TIP3    H238807   1.807   4.032   5.272 -1.3503 -2.0358 -0.8118
 5798TIP3   OH238808   0.304   6.091  13.980  0.1626 -0.1808  0.1046
 5798TIP3    H138809   0.212   6.085  13.955 -0.4222  0.3463  1.9625
 5798TIP3    H238810   0.320   6.013  14.033  0.1681  0.7466  1.5206
 5799TIP3   OH238811   2.033   2.341  11.539  0.6754  0.2310  0.1878
 5799TIP3    H138812   2.022   2.435  11.525  0.8210  0.1284 -0.7125
 5799TIP3    H238813   2.040   2.305  11.450 -0.6528 -0.7877  0.4584
 5800TIP3   OH238814   0.173   4.147  15.990 -0.3488  0.0917 -0.0336
 5800TIP3    H138815   0.254   4.096  15.998 -1.4128 -1.5315  0.9809
 5800TIP3    H238816   0.203   4.238  15.987  1.5852 -0.4990 -1.2020
 5801TIP3   OH238817   1.236   4.811   1.013 -0.2544 -0.3101 -0.0326
 5801TIP3    H138818   1.149   4.778   1.031  0.3067 -0.2595  3.3711
 5801TIP3    H238819   1.283   4.804   1.096  2.1368  2.2632 -0.9966
 5802TIP3   OH238820   1.596   2.630   6.100  0.8459 -0.2102  0.4328
 5802TIP3    H138821   1.646   2.607   6.178 -0.0422 -1.6233  0.6081
 5802TIP3    H238822   1.579   2.724   6.110  1.0635 -0.2904  1.7536
 5803TIP3   OH238823   0.129   0.003   0.381  0.3473  0.1694  0.4526
 5803TIP3    H138824   0.112  -0.056   0.308 -0.3173 -0.9821  1.5111
 5803TIP3    H238825   0.127  -0.053   0.459  2.7586  1.0363  1.2459
 5804TIP3   OH238826   5.415   6.761  17.101  0.0885 -0.2089  0.2035
 5804TIP3    H138827   5.452   6.821  17.166 -0.3991 -0.0346  0.3284
 5804TIP3    H238828   5.352   6.708  17.150 -0.2637 -0.0952 -0.1176
 5805TIP3   OH238829   1.618   3.194   1.797 -0.1464 -0.2448 -0.1647
 5805TIP3    H138830   1.529   3.181   1.766  0.0576  0.7306 -1.2404
 5805TIP3    H238831   1.656   3.256   1.734  1.2590 -0.5908  0.3167
 5806TIP3   OH238832   2.408   6.069  12.133  0.2332  0.0839 -0.1076
 5806TIP3    H138833   2.330   6.035  12.176 -0.3138  0.2446 -0.9397
 5806TIP3    H238834   2.450   6.125  12.198 -0.7200  0.5437  0.1284
 5807TIP3   OH238835   1.335   6.412   5.726 -0.0493 -0.2151 -0.4901
 5807TIP3    H138836   1.403   6.454   5.779  0.5007 -1.1661 -0.4325
 5807TIP3    H238837   1.253   6.448   5.760  0.3040 -0.6278  0.8623
 5808TIP3   OH238838   3.479   1.210   6.287  0.4685  0.3213 -0.0921
 5808TIP3    H138839   3.484   1.126   6.241 -0.0736 -0.0208  0.4602
 5808TIP3    H238840   3.498   1.190   6.378  3.1472  1.2493 -0.3642
 5809TIP3   OH238841   5.203   1.702   4.234 -0.1611  0.5362 -0.5502
 5809TIP3    H138842   5.247   1.775   4.190 -1.8982  1.6342 -0.5911
 5809TIP3    H238843   5.200   1.728   4.326  0.8350 -0.3624 -0.2551
 5810TIP3   OH238844   1.875   4.416  14.038  0.6076  0.5178 -0.3731
 5810TIP3    H138845   1.834   4.482  13.982  0.2038  1.0221  0.4776
 5810TIP3    H238846   1.935   4.467  14.094  0.8026  0.0693 -0.1729
 5811TIP3   OH238847   5.171   1.042   0.810 -0.3136 -0.4387 -0.0943
 5811TIP3    H138848   5.121   1.042   0.891 -0.3059  0.5958 -0.0652
 5811TIP3    H238849   5.184   1.135   0.791  0.8299 -0.6743 -0.5660
 5812TIP3   OH238850   4.294   3.858  13.724  0.2292 -0.5493  0.6271
 5812TIP3    H138851   4.248   3.901  13.652  0.6745 -0.3861  0.4394
 5812TIP3    H238852   4.383   3.893  13.721  0.2361 -0.4809  1.3022
 5813TIP3   OH238853   3.286   3.892   4.620  0.7634 -0.5617  0.1270
 5813TIP3    H138854   3.293   3.865   4.528  0.0305 -0.0611 -0.0831
 5813TIP3    H238855   3.279   3.988   4.616 -1.9353 -0.6773  0.5126
 5814TIP3   OH238856   0.453   2.317  12.262 -0.5335  0.4971 -0.2698
 5814TIP3    H138857   0.457   2.363  12.345  1.7936  1.6955 -0.9697
 5814TIP3    H238858   0.459   2.386  12.196 -1.5720 -0.4857 -1.4350
 5815TIP3   OH238859   6.147   2.861  14.175 -0.8424  0.1195  0.0066
 5815TIP3    H138860   6.068   2.876  14.228 -0.6624  2.1353 -0.2269
 5815TIP3    H238861   6.146   2.931  14.110 -0.3379 -1.4942 -1.8504
 5816TIP3   OH238862   5.874   5.991  15.188  0.1230  0.4867  0.0217
 5816TIP3    H138863   5.916   5.912  15.153 -0.2421  0.3432 -0.0988
 5816TIP3    H238864   5.793   5.959  15.226 -0.2046  0.8531 -0.3569
 5817TIP3   OH238865   1.199   4.016  14.999  0.1055 -0.1912 -0.4744
 5817TIP3    H138866   1.194   4.097  15.049  0.8290 -0.1254 -0.4890
 5817TIP3    H238867   1.229   4.043  14.912 -1.2841 -0.2839 -1.0094
 5818TIP3   OH238868   6.198   4.737   1.164  0.1029  0.2362  0.0980
 5818TIP3    H138869   6.255   4.811   1.185  0.5584 -0.4043  1.2105
 5818TIP3    H238870   6.198   4.733   1.069  0.4861  1.3479  0.0372
 5819TIP3   OH238871   4.775   0.103   0.247 -0.0043 -0.5769 -0.0652
 5819TIP3    H138872   4.734   0.029   0.291 -0.3377 -1.1390 -1.2922
 5819TIP3    H238873   4.711   0.131   0.181  0.3566  0.4371  0.0027
 5820TIP3   OH238874   6.450   3.468   1.286  0.3270 -0.4755  0.2348
 5820TIP3    H138875   6.464   3.392   1.230  2.7874 -0.8460  1.2354
 5820TIP3    H238876   6.477   3.439   1.373  0.2696  1.2201  0.8582
 5821TIP3   OH238877   1.623   0.343  12.176  0.3105 -0.8287 -0.2024
 5821TIP3    H138878   1.605   0.415  12.115  0.9162 -1.2907 -0.9525
 5821TIP3    H238879   1.717   0.331  12.171  0.3594 -0.9275  0.7918
 5822TIP3   OH238880   0.956   1.716  14.620  0.1090  0.7181 -0.1452
 5822TIP3    H138881   0.882   1.764  14.582 -0.6345 -0.6514 -0.4963
 5822TIP3    H238882   1.029   1.733  14.561 -0.8976 -0.9759 -2.0062
 5823TIP3   OH238883   0.225   2.601  11.333  0.0284 -0.4714  0.2959
 5823TIP3    H138884   0.216   2.574  11.425  0.3902  2.1309  1.1716
 5823TIP3    H238885   0.293   2.667  11.334 -0.5898  0.2644 -1.7233
 5824TIP3   OH238886   5.110   0.613   0.503 -0.2808  0.1642  0.2919
 5824TIP3    H138887   5.183   0.657   0.546 -0.4573 -1.0437  1.9589
 5824TIP3    H238888   5.129   0.520   0.512 -1.6680 -0.1653  0.1369
 5825TIP3   OH238889   0.239   4.389  12.687 -0.3632 -0.3051  0.2522
 5825TIP3    H138890   0.144   4.393  12.699 -0.3769 -2.1204  1.0347
 5825TIP3    H238891   0.251   4.367  12.594 -0.7124 -0.3842  0.2263
 5826TIP3   OH238892   3.767   0.575  13.606 -1.1934  0.2658  0.3215
 5826TIP3    H138893   3.848   0.604  13.564 -0.8271  0.1668  0.9365
 5826TIP3    H238894   3.698   0.624  13.562 -0.8628 -0.1104 -0.6376
 5827TIP3   OH238895   1.226   2.229   1.697  0.1937 -0.4191 -0.1646
 5827TIP3    H138896   1.306   2.189   1.665  0.2247 -1.4476  1.1200
 5827TIP3    H238897   1.158   2.163   1.683 -0.3203  0.2052 -0.6788
 5828TIP3   OH238898   5.305   1.982   5.447 -0.2228  0.2051  0.6304
 5828TIP3    H138899   5.270   1.960   5.533  0.5564 -1.0917  0.6349
 5828TIP3    H238900   5.233   2.028   5.403 -1.0774 -0.2718  1.5000
 5829TIP3   OH238901   2.264   4.482  12.943  0.0106 -0.0194  0.3340
 5829TIP3    H138902   2.175   4.453  12.957  1.4458 -4.3213  1.9639
 5829TIP3    H238903   2.298   4.425  12.874  2.3549 -0.7028  1.9339
 5830TIP3   OH238904   2.140   0.006   2.231 -0.2310  0.3030 -0.1169
 5830TIP3    H138905   2.088   0.011   2.150  2.5725 -2.2676 -2.3000
 5830TIP3    H238906   2.101  -0.067   2.280  1.9929 -2.7685 -2.5369
 5831TIP3   OH238907   5.326   1.176   4.977 -0.1287 -0.1175  0.1944
 5831TIP3    H138908   5.244   1.200   5.020  0.8490 -0.2287  2.2643
 5831TIP3    H238909   5.352   1.094   5.020  0.8380 -0.3360 -0.7700
 5832TIP3   OH238910   2.176   3.382   0.988  0.5962 -0.6431 -0.5926
 5832TIP3    H138911   2.177   3.395   1.082  2.6937  0.8451 -0.7477
 5832TIP3    H238912   2.157   3.469   0.951 -3.1862 -1.7132 -1.6057
 5833TIP3   OH238913   0.836   0.905  15.620  0.0111 -0.7066  0.0470
 5833TIP3    H138914   0.862   0.889  15.710  1.5753  0.1773 -0.2122
 5833TIP3    H238915   0.741   0.920  15.624  0.1297 -0.2076  1.5947
 5834TIP3   OH238916   1.252   3.864  12.691  0.1795 -0.0004 -0.8990
 5834TIP3    H138917   1.283   3.774  12.682  2.5139  0.5929  0.3522
 5834TIP3    H238918   1.171   3.857  12.741  0.4690 -1.3796 -0.5921
 5835TIP3   OH238919   4.645   5.236   5.849 -0.2404 -0.0846  0.1580
 5835TIP3    H138920   4.687   5.150   5.846  0.8217  0.4315 -0.1123
 5835TIP3    H238921   4.553   5.216   5.867 -0.5051 -1.4442 -2.2297
 5836TIP3   OH238922   4.670   0.936   3.638  0.6710  0.6542 -0.0694
 5836TIP3    H138923   4.763   0.916   3.648  0.6123 -0.3551 -1.2917
 5836TIP3    H238924   4.668   1.020   3.593  0.9751  1.1564  0.8396
 5837TIP3   OH238925   5.179   5.291   2.496 -0.2871 -0.0985  0.6206
 5837TIP3    H138926   5.086   5.276   2.481 -0.1088  0.0613 -0.9014
 5837TIP3    H238927   5.183   5.369   2.552 -1.0725  1.1722 -1.0039
 5838TIP3   OH238928   1.400   0.676   1.933  0.2284  0.2182  0.4881
 5838TIP3    H138929   1.482   0.701   1.890  0.6180  0.7818  1.5204
 5838TIP3    H238930   1.388   0.583   1.910 -0.5449  0.9032 -2.2974
 5839TIP3   OH238931   2.022   1.935  11.097  0.9619 -0.1183 -0.0089
 5839TIP3    H138932   2.086   1.901  11.159  1.6517  1.1237  0.0010
 5839TIP3    H238933   2.061   1.920  11.011  1.5078  1.0442  0.0151
 5840TIP3   OH238934   3.982   5.342  13.339 -0.0136  0.3726  0.0829
 5840TIP3    H138935   3.939   5.395  13.407  1.2798  1.1180  0.3457
 5840TIP3    H238936   4.075   5.346  13.360  0.3822  0.2925 -1.5090
 5841TIP3   OH238937   3.406   0.283  11.053 -0.3805  0.0873  0.2435
 5841TIP3    H138938   3.448   0.315  10.973  0.9448 -0.3957  0.7107
 5841TIP3    H238939   3.410   0.357  11.113 -1.3785  0.4510 -0.1331
 5842TIP3   OH238940   4.230   5.858   4.239 -0.6304 -0.0586  0.0961
 5842TIP3    H138941   4.238   5.763   4.247  0.6017 -0.1057 -1.2947
 5842TIP3    H238942   4.142   5.872   4.205 -0.3906 -0.8213 -0.9074
 5843TIP3   OH238943   5.809   1.620   2.015  0.1617  0.3220  0.3102
 5843TIP3    H138944   5.807   1.526   1.999  0.7177  0.2744  0.4998
 5843TIP3    H238945   5.734   1.654   1.967  0.3507 -0.1292 -0.3206
 5844TIP3   OH238946   3.079   0.485   1.855  0.5123 -0.1497 -0.3677
 5844TIP3    H138947   3.033   0.527   1.927  1.4263 -0.7557  0.5913
 5844TIP3    H238948   3.065   0.392   1.867  2.1308 -0.3736  0.0916
 5845TIP3   OH238949   4.570   0.419   5.196  0.2540  1.1454  0.0099
 5845TIP3    H138950   4.490   0.367   5.185 -0.3028  2.3169 -1.8770
 5845TIP3    H238951   4.555   0.468   5.277 -2.3549  3.5419 -1.7195
 5846TIP3   OH238952   0.210   5.354   5.747 -0.1512  0.4627 -0.1759
 5846TIP3    H138953   0.225   5.274   5.697  1.4548 -0.7705  2.0955
 5846TIP3    H238954   0.199   5.324   5.837 -0.7278  2.7347  0.5773
 5847TIP3   OH238955   4.443   1.891  13.128 -0.2150 -0.3792 -0.4435
 5847TIP3    H138956   4.421   1.961  13.189 -1.6861 -0.4992 -0.8194
 5847TIP3    H238957   4.393   1.911  13.049 -0.8934 -1.9899 -0.4574
 5848TIP3   OH238958   4.652   4.261   1.290 -0.4851 -0.1344 -0.4171
 5848TIP3    H138959   4.747   4.274   1.294 -0.5589  0.5831  3.1725
 5848TIP3    H238960   4.641   4.166   1.282  0.5898 -0.3283  0.1653
 5849TIP3   OH238961   1.566   1.635   6.159 -0.1100  0.0919 -0.1104
 5849TIP3    H138962   1.608   1.721   6.167 -1.3265  0.6496  0.5124
 5849TIP3    H238963   1.494   1.638   6.222  0.3259 -1.7004  0.5178
 5850TIP3   OH238964   6.383   1.003   2.516  0.5190 -0.6994  0.2906
 5850TIP3    H138965   6.343   0.917   2.508 -2.6783  0.2107  3.6618
 5850TIP3    H238966   6.354   1.050   2.438 -3.4310 -0.8318  1.4706
 5851TIP3   OH238967   6.026   3.322  16.942  0.4158  0.4786  0.3718
 5851TIP3    H138968   6.104   3.343  16.993 -0.2330  0.7652  1.2761
 5851TIP3    H238969   5.959   3.383  16.975 -0.3646 -0.2013  0.0758
 5852TIP3   OH238970   2.202   4.539  13.911 -0.0676 -0.0982 -0.5089
 5852TIP3    H138971   2.131   4.583  13.959 -0.1587 -1.1811  0.3804
 5852TIP3    H238972   2.272   4.605  13.906  0.1434 -0.1073  1.6042
 5853TIP3   OH238973   1.983   0.939   6.105 -0.6234  0.3803  0.5599
 5853TIP3    H138974   1.919   0.893   6.159 -1.4387  3.0736  2.0911
 5853TIP3    H238975   2.060   0.947   6.162  0.2870 -0.8138 -0.4444
 5854TIP3   OH238976   2.410   4.349  15.941  0.4074  0.4546 -0.1961
 5854TIP3    H138977   2.399   4.258  15.969 -1.1079  0.3963 -0.8574
 5854TIP3    H238978   2.446   4.343  15.853  0.6065  0.5047 -0.1179
 5855TIP3   OH238979   1.852   3.245   0.006  0.5187 -0.1411  0.0396
 5855TIP3    H138980   1.831   3.211  -0.081 -0.5273  1.8884 -0.5631
 5855TIP3    H238981   1.781   3.215   0.062  1.1955 -1.4560  0.2357
 5856TIP3   OH238982   0.956   6.747   4.240  0.5699  0.5219 -0.3026
 5856TIP3    H138983   1.005   6.776   4.317  0.8836 -0.1131 -0.2548
 5856TIP3    H238984   0.988   6.803   4.169 -1.1969  2.5263  0.3894
 5857TIP3   OH238985   1.017   5.232   6.247 -0.5346 -0.0523 -0.6850
 5857TIP3    H138986   1.074   5.309   6.246 -3.1473  2.2320  2.2839
 5857TIP3    H238987   1.069   5.165   6.292  0.5988  1.2251  0.0131
 5858TIP3   OH238988   4.661   1.053   1.123 -0.6314  0.5630  1.0036
 5858TIP3    H138989   4.725   1.109   1.079 -1.0937  0.1628 -0.2321
 5858TIP3    H238990   4.657   1.087   1.212  1.8748  0.1128  1.3704
 5859TIP3   OH238991   2.585   6.116   5.188 -0.1442 -0.1703  0.4108
 5859TIP3    H138992   2.586   6.029   5.150  1.0891  0.7471 -1.8224
 5859TIP3    H238993   2.492   6.133   5.205 -0.4377 -1.7322  0.5261
 5860TIP3   OH238994   0.378   6.509  12.380 -0.4588 -0.2088 -0.1036
 5860TIP3    H138995   0.393   6.459  12.300  0.7039 -0.8723  0.5040
 5860TIP3    H238996   0.465   6.534  12.411 -0.7667 -1.1547  1.6917
 5861TIP3   OH238997   6.434   3.270   2.387  0.5749 -0.0978  0.6510
 5861TIP3    H138998   6.445   3.308   2.300 -1.0894  0.5307  0.6806
 5861TIP3    H238999   6.456   3.341   2.448 -0.2995  0.1317  0.7152
 5862TIP3   OH239000   5.960   6.611  16.062 -0.0983 -0.0785  0.2104
 5862TIP3    H139001   5.881   6.658  16.086  0.6513  1.4101 -0.1337
 5862TIP3    H239002   5.997   6.581  16.145 -0.6573 -0.2094  0.4187
 5863TIP3   OH239003   5.692   3.047   6.720  0.2878  0.4174 -0.0117
 5863TIP3    H139004   5.741   3.119   6.680 -0.5009  0.2786 -1.2862
 5863TIP3    H239005   5.758   2.980   6.737  0.7196  0.6794 -0.6225
 5864TIP3   OH239006   0.528   4.196   1.012 -0.1943 -0.3053 -0.3441
 5864TIP3    H139007   0.597   4.234   1.067 -2.0264  0.4258  1.5840
 5864TIP3    H239008   0.520   4.106   1.042 -2.5985  0.6213  2.2934
 5865TIP3   OH239009   5.110   6.422  12.278  0.1336  0.4194 -0.2705
 5865TIP3    H139010   5.080   6.421  12.186  0.4864 -0.4478 -0.3793
 5865TIP3    H239011   5.035   6.389  12.328 -0.1283  1.0752 -0.2129
 5866TIP3   OH239012   6.742   5.397   3.832  0.3289  0.2002 -0.5837
 5866TIP3    H139013   6.728   5.392   3.737 -1.1357  1.9119 -0.5205
 5866TIP3    H239014   6.656   5.422   3.867  0.8424 -0.4306  1.1979
 5867TIP3   OH239015   5.216   0.569  16.885 -0.0429 -0.4173 -0.1441
 5867TIP3    H139016   5.284   0.628  16.854  0.9630 -1.6380 -0.3686
 5867TIP3    H239017   5.244   0.482  16.856 -1.6967 -0.9707 -0.2255
 5868TIP3   OH239018   5.257   0.159   1.974  0.5246 -0.2159  0.3443
 5868TIP3    H139019   5.178   0.177   2.024  0.9922 -0.4962  1.2068
 5868TIP3    H239020   5.271   0.065   1.982  1.5061 -0.0264  1.0868
 5869TIP3   OH239021   3.223   4.389  14.897  0.6427  0.5915 -0.5010
 5869TIP3    H139022   3.139   4.434  14.905  0.9763  0.9309  1.2618
 5869TIP3    H239023   3.288   4.458  14.895  1.1306  0.2582  1.8817
 5870TIP3   OH239024   0.664   2.407  12.089 -0.0432  0.1665  0.2012
 5870TIP3    H139025   0.728   2.451  12.145 -2.1289  0.9038  2.1467
 5870TIP3    H239026   0.652   2.467  12.015  0.1212  0.9600  0.7960
 5871TIP3   OH239027   6.410   3.675   4.942  0.2669  0.1265  0.3096
 5871TIP3    H139028   6.352   3.721   4.881 -0.0699 -0.8186 -0.1013
 5871TIP3    H239029   6.497   3.710   4.924  0.2291 -0.3848 -0.9662
 5872TIP3   OH239030   3.451   0.870   3.864  0.1469  0.5297 -0.5523
 5872TIP3    H139031   3.477   0.960   3.846  0.4214  0.1680 -2.0556
 5872TIP3    H239032   3.532   0.820   3.856  0.3996  0.3412  2.1363
 5873TIP3   OH239033   1.201   1.227   4.825  1.0485  0.4178 -0.2925
 5873TIP3    H139034   1.257   1.282   4.770  0.4862 -0.0983 -1.3946
 5873TIP3    H239035   1.205   1.140   4.786 -3.2915  1.0171 -2.6831
 5874TIP3   OH239036   2.156   2.274   4.390 -0.0084 -0.4356 -0.2386
 5874TIP3    H139037   2.202   2.276   4.306  0.2741 -1.3695 -0.1191
 5874TIP3    H239038   2.187   2.352   4.436  1.3986 -0.9858 -0.2030
 5875TIP3   OH239039   1.180   3.764   3.297  0.0293 -0.0076  0.0487
 5875TIP3    H139040   1.091   3.738   3.274 -0.2816  0.1672  1.0045
 5875TIP3    H239041   1.236   3.712   3.239 -0.6894  0.0908 -0.7611
 5876TIP3   OH239042   6.084   3.922  13.994 -0.2670  0.2916 -0.0886
 5876TIP3    H139043   6.032   3.902  14.072  0.7040 -0.6115  0.3560
 5876TIP3    H239044   6.059   3.855  13.931 -1.6041  1.4528 -0.8772
 5877TIP3   OH239045   3.343   4.510   4.554  0.1420 -0.4518 -0.0108
 5877TIP3    H139046   3.303   4.438   4.602 -0.6445 -0.5012 -0.7136
 5877TIP3    H239047   3.309   4.589   4.597 -1.5952 -0.4745 -1.2351
 5878TIP3   OH239048   1.924   0.607  11.665  0.0125  0.0078 -0.0765
 5878TIP3    H139049   1.918   0.526  11.716 -2.4430 -0.0559 -0.3358
 5878TIP3    H239050   2.004   0.650  11.696 -0.9419 -0.4079  3.2767
 5879TIP3   OH239051   0.990   0.904   5.474 -0.3285 -0.1397 -0.5829
 5879TIP3    H139052   0.910   0.926   5.427  0.1032  1.0211 -0.8229
 5879TIP3    H239053   1.050   0.976   5.454  0.3465 -0.3380  0.5957
 5880TIP3   OH239054   6.443   2.766  16.572 -0.3151 -0.0849  0.3091
 5880TIP3    H139055   6.421   2.858  16.588  1.0307 -0.0300  2.1260
 5880TIP3    H239056   6.509   2.769  16.502 -1.5195  0.1643 -0.8633
 5881TIP3   OH239057   2.611   0.787   2.520 -0.5617 -0.2301  0.5512
 5881TIP3    H139058   2.577   0.725   2.455  0.4350 -0.4189  0.1960
 5881TIP3    H239059   2.658   0.732   2.583 -0.8035  0.0377  0.9689
 5882TIP3   OH239060   5.357   6.461   0.882  0.0343  0.2054 -0.1602
 5882TIP3    H139061   5.426   6.488   0.943  1.2638 -1.0956 -0.9234
 5882TIP3    H239062   5.324   6.379   0.918  0.2996 -0.2177 -0.8624
 5883TIP3   OH239063   0.971   3.482  12.557  0.4672 -0.0657 -0.3856
 5883TIP3    H139064   0.925   3.450  12.480 -1.1617 -0.5266  0.7352
 5883TIP3    H239065   0.912   3.463  12.630  0.9976  2.2877  0.7476
 5884TIP3   OH239066   5.645   3.892   5.536  0.2434  0.1527 -0.1787
 5884TIP3    H139067   5.585   3.850   5.598 -2.1339 -0.0116 -2.4327
 5884TIP3    H239068   5.688   3.819   5.491 -0.1542  0.2058 -0.6517
 5885TIP3   OH239069   1.933   5.704  17.120  0.0583 -0.2383  0.2515
 5885TIP3    H139070   2.022   5.693  17.153  0.1094  1.6412  0.8452
 5885TIP3    H239071   1.919   5.798  17.120 -0.8195 -0.2821 -2.8791
 5886TIP3   OH239072   5.902   5.323   0.220  0.4641  0.1947 -0.0107
 5886TIP3    H139073   5.822   5.343   0.268  0.4476  0.8132 -0.2838
 5886TIP3    H239074   5.931   5.408   0.186  1.6101  0.0861  0.6534
 5887TIP3   OH239075   3.992   1.949  11.199  0.0254 -0.0797 -0.3402
 5887TIP3    H139076   4.068   1.914  11.246 -0.1408 -0.0278 -0.0285
 5887TIP3    H239077   4.024   1.969  11.111 -0.1979 -2.3975 -1.0221
 5888TIP3   OH239078   2.579   6.650  10.787 -0.5220 -0.1706 -0.2726
 5888TIP3    H139079   2.627   6.574  10.753  0.6720  0.5681 -0.2631
 5888TIP3    H239080   2.493   6.644  10.745 -0.4865 -1.5619 -0.2221
 5889TIP3   OH239081   0.622   1.066  14.784 -0.0550  0.3396  0.1901
 5889TIP3    H139082   0.552   1.064  14.719 -1.5833 -0.7687  1.7972
 5889TIP3    H239083   0.608   1.147  14.833 -0.3819  0.0044  0.6624
 5890TIP3   OH239084   0.739   4.566   1.709 -0.1446 -0.4462  0.2771
 5890TIP3    H139085   0.825   4.608   1.708  0.0238 -0.7685  0.7324
 5890TIP3    H239086   0.677   4.636   1.687 -0.0030  0.3504  2.2096
 5891TIP3   OH239087   3.191   0.930   2.809 -0.4334 -0.0550  0.0628
 5891TIP3    H139088   3.263   0.867   2.808 -0.4146 -0.0393 -1.3084
 5891TIP3    H239089   3.124   0.889   2.864 -0.0761 -0.8725 -0.0962
 5892TIP3   OH239090   2.174   4.181  16.087  0.4789 -0.3010  0.1312
 5892TIP3    H139091   2.220   4.265  16.080  2.0814 -1.1288  0.3031
 5892TIP3    H239092   2.097   4.201  16.142 -1.3697  1.8566 -2.9073
 5893TIP3   OH239093   6.599   0.971  13.598 -0.4477  0.2543 -0.2506
 5893TIP3    H139094   6.682   0.998  13.637  0.4500 -3.2762  0.6121
 5893TIP3    H239095   6.573   0.894  13.649 -3.5102  0.3557 -1.4763
 5894TIP3   OH239096   3.662   6.266  12.287 -0.0158 -0.1950 -0.0846
 5894TIP3    H139097   3.680   6.175  12.312 -0.7615 -0.7218 -1.3854
 5894TIP3    H239098   3.740   6.292  12.237 -0.3747 -0.5670 -0.8438
 5895TIP3   OH239099   3.947   4.306   1.774  0.1619  0.4853  0.6514
 5895TIP3    H139100   3.960   4.375   1.839 -1.2660  1.9427 -0.5422
 5895TIP3    H239101   3.852   4.296   1.769  0.3068 -0.6842 -0.1412
 5896TIP3   OH239102   2.695   4.140  14.792  0.8241 -0.0380  0.4481
 5896TIP3    H139103   2.789   4.129  14.803  0.7571 -0.4743  0.5927
 5896TIP3    H239104   2.668   4.189  14.870  0.9825  0.4041  0.2327
 5897TIP3   OH239105   4.968   4.159  15.920  0.4124  0.6155  0.3505
 5897TIP3    H139106   4.898   4.209  15.879 -0.2564 -0.9362 -0.4973
 5897TIP3    H239107   5.048   4.195  15.883 -0.0254  1.2732  0.0225
 5898TIP3   OH239108   1.689   5.119   1.640 -0.0529  0.1750 -0.1612
 5898TIP3    H139109   1.635   5.197   1.648 -2.3638 -1.2629 -0.6027
 5898TIP3    H239110   1.753   5.127   1.710  1.3070  3.5003 -1.5878
 5899TIP3   OH239111   1.208   2.935   1.448 -0.1619  0.5532  0.1975
 5899TIP3    H139112   1.228   2.909   1.538 -0.0375  1.3324  0.4061
 5899TIP3    H239113   1.172   2.856   1.407 -0.9248  0.3880  1.1468
 5900TIP3   OH239114   1.125   3.831   2.508  0.6980  0.2027 -0.1263
 5900TIP3    H139115   1.121   3.909   2.564 -0.0681  0.2389 -0.2286
 5900TIP3    H239116   1.042   3.831   2.461  0.1929 -1.2908  0.7066
 5901TIP3   OH239117   5.802   0.267  10.259 -0.2584 -0.2396  0.1801
 5901TIP3    H139118   5.792   0.343  10.318  0.2700  0.3835 -0.5115
 5901TIP3    H239119   5.897   0.255  10.253 -0.2732  0.1933 -1.1381
 5902TIP3   OH239120   0.628   4.722  11.801  0.3028  0.2351 -0.4188
 5902TIP3    H139121   0.577   4.659  11.749  1.6516 -0.1422 -1.3482
 5902TIP3    H239122   0.562   4.778  11.842 -1.0849 -2.8502  1.9458
 5903TIP3   OH239123   3.425   4.577   4.971 -0.3117  0.3341  0.4309
 5903TIP3    H139124   3.358   4.611   5.031 -0.3252 -0.2622  0.7674
 5903TIP3    H239125   3.382   4.577   4.885  0.1213  2.3879  0.1643
 5904TIP3   OH239126   0.230   3.308   1.528  0.0110  0.4610 -0.3002
 5904TIP3    H139127   0.192   3.317   1.440 -0.2341  1.4165 -0.1157
 5904TIP3    H239128   0.154   3.305   1.587  0.0630 -2.5451 -0.2372
 5905TIP3   OH239129   5.876   0.023  17.174  0.0317 -0.5158 -0.3410
 5905TIP3    H139130   5.816   0.095  17.151  0.6565  0.4970  1.0725
 5905TIP3    H239131   5.865   0.011  17.268  1.5386 -0.7788 -0.1694
 5906TIP3   OH239132   0.082   3.378  11.302 -0.3633  0.2363  0.2606
 5906TIP3    H139133  -0.001   3.336  11.326  0.2383 -0.9759  0.3325
 5906TIP3    H239134   0.131   3.308  11.258 -0.7619  1.8821 -3.0950
 5907TIP3   OH239135   1.791   2.989  13.393 -0.2982  0.2965  0.0926
 5907TIP3    H139136   1.709   2.983  13.442 -0.8707  4.0350 -0.1405
 5907TIP3    H239137   1.857   3.008  13.459 -0.0638 -0.0765 -0.0293
 5908TIP3   OH239138   3.187   0.210  15.609 -0.5572  0.2993 -0.1376
 5908TIP3    H139139   3.127   0.161  15.552  0.7277 -1.4439 -0.0738
 5908TIP3    H239140   3.193   0.158  15.689  0.2863  0.9442  0.2371
 5909TIP3   OH239141   1.346   2.488   3.030 -0.5481  0.3543 -0.4053
 5909TIP3    H139142   1.277   2.555   3.032 -0.9498 -0.0683  0.7991
 5909TIP3    H239143   1.308   2.417   2.978 -1.8329 -0.6597  1.7539
 5910TIP3   OH239144   2.852   3.240   2.525 -0.6238  0.0704 -0.4481
 5910TIP3    H139145   2.893   3.167   2.572  0.2464  1.2863  0.7421
 5910TIP3    H239146   2.767   3.250   2.567 -0.1976  0.5945  0.3091
 5911TIP3   OH239147   6.787   4.225  16.715 -0.3976 -0.2071 -0.0766
 5911TIP3    H139148   6.703   4.193  16.750  0.5516 -0.7025  1.8903
 5911TIP3    H239149   6.797   4.312  16.754  0.1347 -0.2680 -0.0733
 5912TIP3   OH239150   3.801   6.419  13.824  0.1653 -0.0336  0.2322
 5912TIP3    H139151   3.746   6.346  13.795  0.1174 -0.1292  0.5575
 5912TIP3    H239152   3.859   6.380  13.890  3.0228 -0.7822 -2.5128
 5913TIP3   OH239153   3.260   1.070   4.152  0.0201  0.0412  0.1841
 5913TIP3    H139154   3.255   0.978   4.128 -1.1564  0.3179 -0.6674
 5913TIP3    H239155   3.297   1.113   4.075  1.1733  0.2147  0.8101
 5914TIP3   OH239156   6.003   0.535  13.789  0.4896 -0.3640  0.1928
 5914TIP3    H139157   6.069   0.599  13.813  1.2070 -0.8370 -0.4805
 5914TIP3    H239158   5.924   0.562  13.837  1.7841 -1.1841  2.9702
 5915TIP3   OH239159   1.042   3.054  13.520 -1.0832  0.3229  0.2099
 5915TIP3    H139160   1.000   3.139  13.532 -0.6727  0.3716  1.3379
 5915TIP3    H239161   1.135   3.070  13.535 -0.9840 -0.2983  0.3086
 5916TIP3   OH239162   5.025   3.493  14.939 -0.2567  0.2990  0.4519
 5916TIP3    H139163   5.070   3.534  14.865  0.6528 -0.7253  0.4132
 5916TIP3    H239164   5.004   3.566  14.997 -0.9861  1.1158 -0.8003
 5917TIP3   OH239165   2.192   3.735  14.590  0.1855 -0.1337  0.2041
 5917TIP3    H139166   2.189   3.805  14.525 -2.6001  0.0091  0.3925
 5917TIP3    H239167   2.241   3.665  14.546 -0.2109  0.5574 -1.4224
 5918TIP3   OH239168   6.362   0.685   6.509  0.3126 -0.0247  0.3342
 5918TIP3    H139169   6.288   0.691   6.569  0.0268  2.1079 -0.1660
 5918TIP3    H239170   6.324   0.657   6.426 -0.0735  1.6492 -0.0831
 5919TIP3   OH239171   6.677   1.496  12.602  0.9938  0.3287 -0.0220
 5919TIP3    H139172   6.699   1.575  12.652  0.6397 -0.2321  1.0547
 5919TIP3    H239173   6.617   1.527  12.534 -0.3563  0.7751  1.3210
 5920TIP3   OH239174   6.040   2.938   5.511  0.1004 -0.2214 -0.3953
 5920TIP3    H139175   6.089   2.991   5.447  0.0896  1.4944  0.9208
 5920TIP3    H239176   6.064   2.848   5.491  1.6214  0.3905 -1.5813
 5921TIP3   OH239177   4.674   4.230  14.408 -0.2101 -0.2240  0.6474
 5921TIP3    H139178   4.628   4.175  14.472 -0.6114 -1.2284 -0.4627
 5921TIP3    H239179   4.604   4.279  14.365  0.0711  0.5442  1.0537
 5922TIP3   OH239180   1.614   4.436  12.826 -0.3300 -0.4123  0.5237
 5922TIP3    H139181   1.522   4.421  12.804 -1.6294 -0.4509  4.8557
 5922TIP3    H239182   1.649   4.349  12.845  1.1882 -0.5695 -2.4471
 5923TIP3   OH239183   5.449   4.488   2.412 -0.6248  0.1291  0.0260
 5923TIP3    H139184   5.421   4.451   2.495 -1.7939 -0.2976 -0.5270
 5923TIP3    H239185   5.469   4.411   2.357 -0.4958  0.3871 -0.2939
 5924TIP3   OH239186   0.814   4.315   3.655  0.3159  0.4040  0.3211
 5924TIP3    H139187   0.799   4.228   3.691 -1.2257  0.5364  0.0753
 5924TIP3    H239188   0.756   4.372   3.705  1.4041  1.3324  0.5709
 5925TIP3   OH239189   0.288   5.483  12.485  0.0872  0.2528  0.0793
 5925TIP3    H139190   0.225   5.518  12.549  0.4872  2.4787 -0.6415
 5925TIP3    H239191   0.235   5.462  12.408 -0.1280 -0.5638  0.4401
 5926TIP3   OH239192   0.928   2.831   3.677  0.2886  0.0894  0.4392
 5926TIP3    H139193   0.928   2.922   3.647  1.5246 -0.2969 -0.8476
 5926TIP3    H239194   0.876   2.784   3.611 -0.9476 -0.0575  1.4746
 5927TIP3   OH239195   0.007   0.847  15.558 -0.3968  0.1320  0.8357
 5927TIP3    H139196   0.035   0.927  15.604  1.9594 -1.3025  2.0491
 5927TIP3    H239197  -0.031   0.792  15.627  1.4067 -1.2690  0.7655
 5928TIP3   OH239198   6.229   4.348   4.721 -0.4903  0.3449  0.1574
 5928TIP3    H139199   6.286   4.374   4.793 -1.8627 -1.7801  2.1806
 5928TIP3    H239200   6.288   4.329   4.648  1.0896  1.0008  1.2333
 5929TIP3   OH239201   0.122   2.849  11.948 -0.2398 -0.7670  0.6155
 5929TIP3    H139202   0.152   2.823  12.035 -0.0564 -2.0362  0.2047
 5929TIP3    H239203   0.163   2.785  11.889  1.4781  1.3953 -0.6620
 5930TIP3   OH239204   0.837   0.391  11.395 -0.0569  0.0157  0.7488
 5930TIP3    H139205   0.783   0.384  11.316  1.8939  0.7522 -0.7373
 5930TIP3    H239206   0.906   0.326  11.382  0.1679 -0.0027  1.9777
 5931TIP3   OH239207   0.982   3.385   3.665  0.3243 -0.5690  0.4386
 5931TIP3    H139208   1.000   3.478   3.650  0.3843 -0.8010 -1.0848
 5931TIP3    H239209   1.057   3.354   3.715  0.8678 -0.0319 -0.0136
 5932TIP3   OH239210   5.551   4.902  13.632 -0.3152  0.1183  0.3889
 5932TIP3    H139211   5.643   4.878  13.632 -0.1748  0.6260  1.4787
 5932TIP3    H239212   5.508   4.833  13.580  0.3505 -1.3791  1.7492
 5933TIP3   OH239213   3.821   2.318  15.138 -0.3439  0.6928 -0.2897
 5933TIP3    H139214   3.851   2.408  15.153  0.5123  0.7925 -2.3402
 5933TIP3    H239215   3.756   2.303  15.207  0.3482  2.4573  0.8187
 5934TIP3   OH239216   2.897   1.512   4.205 -0.6619  0.1919  0.5289
 5934TIP3    H139217   2.897   1.447   4.275 -0.4233 -0.9315 -0.4714
 5934TIP3    H239218   2.942   1.469   4.132 -0.5159  1.4798 -0.1786
 5935TIP3   OH239219   4.182   5.397   3.764  0.2370  0.1057  0.2898
 5935TIP3    H139220   4.129   5.331   3.719 -1.8182  0.8951  1.4244
 5935TIP3    H239221   4.227   5.443   3.693 -1.3216 -0.0061 -0.8391
 5936TIP3   OH239222   5.183   3.827   6.332  0.2641 -0.9558  0.1670
 5936TIP3    H139223   5.099   3.803   6.372  0.3385 -2.7963 -0.6903
 5936TIP3    H239224   5.241   3.754   6.351  1.7040  0.2788  0.7232
 5937TIP3   OH239225   5.701   1.171   3.877  0.3257 -0.0140  0.4347
 5937TIP3    H139226   5.773   1.218   3.919  0.0974 -0.0479  0.8772
 5937TIP3    H239227   5.624   1.226   3.895  0.1963 -0.1288  0.2248
 5938TIP3   OH239228   2.672   4.930   2.485 -0.9541 -0.2401  0.2398
 5938TIP3    H139229   2.717   4.895   2.562 -0.1334 -0.6481 -0.4102
 5938TIP3    H239230   2.660   4.855   2.428  3.2662  0.7534 -2.4092
 5939TIP3   OH239231   1.697   3.270  13.334  0.1066 -0.2335  0.1991
 5939TIP3    H139232   1.787   3.251  13.359 -0.1061 -1.1377  0.2844
 5939TIP3    H239233   1.658   3.308  13.412  0.5856  0.7747 -0.0348
 5940TIP3   OH239234   6.141   1.398  13.437 -0.2389  0.0850 -0.4838
 5940TIP3    H139235   6.097   1.428  13.516  0.1561 -2.0196  0.6096
 5940TIP3    H239236   6.191   1.321  13.465  2.6141  1.2203 -2.0800
 5941TIP3   OH239237   4.296   3.275   2.538 -0.2464 -0.2890  0.2908
 5941TIP3    H139238   4.377   3.327   2.537 -0.9445  0.8739 -1.5061
 5941TIP3    H239239   4.323   3.189   2.571  1.4614  0.4191  0.8923
 5942TIP3   OH239240   1.248   2.855  14.002 -0.4497 -0.0756  0.1407
 5942TIP3    H139241   1.191   2.845  13.926  0.2896 -0.8828 -0.3291
 5942TIP3    H239242   1.258   2.949  14.013 -0.2918  0.0439 -0.9697
 5943TIP3   OH239243   0.563   6.133   2.438  1.0321 -0.1171  0.9224
 5943TIP3    H139244   0.576   6.228   2.449  0.1519 -0.1058  1.8644
 5943TIP3    H239245   0.608   6.114   2.355 -1.3267  1.6712 -0.9513
 5944TIP3   OH239246   0.005   6.279  11.999  0.0821 -0.0816 -0.0018
 5944TIP3    H139247  -0.073   6.232  12.028  1.0493 -2.1320 -0.4808
 5944TIP3    H239248  -0.009   6.293  11.905 -0.4934  1.2215  0.2684
 5945TIP3   OH239249   5.649   0.556  15.650  0.1799 -0.2733  0.1353
 5945TIP3    H139250   5.735   0.562  15.692  2.1660 -1.0644 -3.4058
 5945TIP3    H239251   5.636   0.643  15.612  0.4705 -0.7276 -1.0585
 5946TIP3   OH239252   1.925   3.392  12.771 -0.5222  0.1138  0.1146
 5946TIP3    H139253   1.851   3.435  12.727  0.4067  0.7049 -0.9233
 5946TIP3    H239254   1.900   3.390  12.864 -1.0974  1.9104  0.0382
 5947TIP3   OH239255   2.259   3.802  16.815 -0.3846 -0.4900 -0.1771
 5947TIP3    H139256   2.164   3.814  16.810 -0.3269 -0.3582 -1.1180
 5947TIP3    H239257   2.293   3.890  16.831 -0.3934 -0.4836 -0.1940
 5948TIP3   OH239258   0.458   3.092   0.610 -0.2708  0.0134 -0.0333
 5948TIP3    H139259   0.470   3.097   0.515  0.6674 -0.0169  0.0735
 5948TIP3    H239260   0.445   2.999   0.627  1.0615 -0.1890  0.0136
 5949TIP3   OH239261   3.026   3.486   3.759  0.1853 -0.4862 -0.1487
 5949TIP3    H139262   2.988   3.407   3.797  0.7704 -1.6347 -1.8381
 5949TIP3    H239263   2.974   3.558   3.797 -1.2117 -1.7428  0.4343
 5950TIP3   OH239264   3.177   5.078  16.658 -0.1413  0.3260 -0.0875
 5950TIP3    H139265   3.161   5.169  16.636  0.2726  0.2954 -0.5470
 5950TIP3    H239266   3.097   5.032  16.629  0.0381  0.4127 -0.7466
 5951TIP3   OH239267   2.477   3.324  15.473 -0.1346  0.2998 -0.3740
 5951TIP3    H139268   2.561   3.293  15.442  0.4100  1.0928  0.2609
 5951TIP3    H239269   2.469   3.413  15.438 -1.2394 -0.1699 -1.3807
 5952TIP3   OH239270   4.506   4.652   1.581  0.1262 -0.0934  0.6786
 5952TIP3    H139271   4.519   4.605   1.663  1.3295 -1.5027 -0.2676
 5952TIP3    H239272   4.594   4.674   1.551 -0.3017  0.5730 -0.1513
 5953TIP3   OH239273   2.816   1.101   5.293  0.3313  0.4463  0.3890
 5953TIP3    H139274   2.837   1.025   5.239 -1.6170  1.0010 -1.2668
 5953TIP3    H239275   2.857   1.082   5.378  0.7292 -1.9691 -0.2669
 5954TIP3   OH239276   5.229   5.233   6.365 -0.1338  0.4165 -0.2932
 5954TIP3    H139277   5.289   5.290   6.317 -0.1667 -0.5877 -1.5749
 5954TIP3    H239278   5.276   5.150   6.374  0.1390  0.7392  2.0477
 5955TIP3   OH239279   0.614   0.563   3.709 -0.4647  0.7320  0.2331
 5955TIP3    H139280   0.647   0.652   3.696  0.7601  0.2118 -0.4095
 5955TIP3    H239281   0.536   0.574   3.763 -1.8700  2.4403 -1.9414
 5956TIP3   OH239282   1.003   0.611  16.241 -0.0110 -0.0491 -0.3015
 5956TIP3    H139283   1.052   0.618  16.323  1.1120 -1.7647 -0.7552
 5956TIP3    H239284   1.021   0.693  16.194 -0.0954  0.6379  0.8446
 5957TIP3   OH239285   5.833   1.708  13.706 -0.0296 -0.1264  0.5099
 5957TIP3    H139286   5.909   1.764  13.720 -0.3203  0.8205 -1.3369
 5957TIP3    H239287   5.781   1.754  13.640 -3.0499  0.0461  2.8147
 5958TIP3   OH239288   6.732   1.067  11.155  0.4212 -1.0868  0.0447
 5958TIP3    H139289   6.681   1.134  11.110  0.4047 -2.6424 -2.4053
 5958TIP3    H239290   6.676   0.989  11.154  1.5478 -1.9279  0.2371
 5959TIP3   OH239291   1.339   3.352   2.964 -0.6602  0.0161 -0.4121
 5959TIP3    H139292   1.337   3.397   2.880  1.1451  1.1140  0.0918
 5959TIP3    H239293   1.431   3.335   2.981 -1.1337 -2.1088  0.3900
 5960TIP3   OH239294   4.225   4.223  11.505  0.3751  0.1561 -0.7061
 5960TIP3    H139295   4.134   4.225  11.475  0.0181  2.8126  0.3112
 5960TIP3    H239296   4.273   4.182  11.432 -1.7166 -2.5351 -0.7544
 5961TIP3   OH239297   2.394   1.930  14.856 -0.0561  0.0714 -1.1201
 5961TIP3    H139298   2.384   1.858  14.919 -1.4278 -0.2467 -1.6652
 5961TIP3    H239299   2.455   1.991  14.898 -2.2375  0.7387  1.3413
 5962TIP3   OH239300   3.627   0.717  14.452  0.5723  0.8363  0.1984
 5962TIP3    H139301   3.625   0.788  14.517 -3.5115  0.3301  0.8938
 5962TIP3    H239302   3.592   0.757  14.372  1.1452  0.2975 -0.3388
 5963TIP3   OH239303   3.846   0.977   4.736 -0.3667  0.8693 -0.0368
 5963TIP3    H139304   3.838   0.884   4.714  0.2902  0.1656  2.3655
 5963TIP3    H239305   3.784   1.021   4.677 -0.6113 -1.0593 -1.3102
 5964TIP3   OH239306   5.208   4.065   0.175 -0.3414 -0.3418 -0.2849
 5964TIP3    H139307   5.192   4.001   0.106  1.9714 -0.9719 -0.2964
 5964TIP3    H239308   5.185   4.149   0.135 -1.1081 -0.9062 -1.0692
 5965TIP3   OH239309   2.485   2.051   1.399  0.4220 -0.1046  0.2277
 5965TIP3    H139310   2.432   2.086   1.328  0.6741  0.1928  0.1819
 5965TIP3    H239311   2.550   1.995   1.356  0.4905 -0.0317  0.2369
 5966TIP3   OH239312   3.969   3.558  13.597  0.2643 -0.0496 -0.0009
 5966TIP3    H139313   4.029   3.513  13.655  0.0902 -0.3727 -0.0697
 5966TIP3    H239314   4.016   3.566  13.514  0.3275 -0.0236  0.0377
 5967TIP3   OH239315   1.768   4.848  15.884 -0.7161  0.2505 -0.1591
 5967TIP3    H139316   1.752   4.905  15.809 -1.2365  0.5884  0.2011
 5967TIP3    H239317   1.727   4.765  15.860 -0.0157  0.0428 -0.6560
 5968TIP3   OH239318   1.843   0.009   2.122  0.2127 -0.4280 -0.4588
 5968TIP3    H139319   1.862  -0.061   2.059 -1.6746 -0.2594 -1.2774
 5968TIP3    H239320   1.748   0.007   2.132  0.1754  1.6102 -0.0289
 5969TIP3   OH239321   5.172   3.001   1.599 -0.3032 -0.7858  0.0805
 5969TIP3    H139322   5.240   3.052   1.643  1.0323 -0.3234 -2.3569
 5969TIP3    H239323   5.091   3.029   1.642  0.7904  0.4098  1.4869
 5970TIP3   OH239324   3.791   6.515  13.491  0.0347 -0.0582 -0.2888
 5970TIP3    H139325   3.853   6.558  13.550 -3.0418  1.8110  1.9071
 5970TIP3    H239326   3.789   6.571  13.413  1.7111 -0.6687 -0.7982
 5971TIP3   OH239327   2.478   3.676   4.177 -0.0481  0.9039  0.1228
 5971TIP3    H139328   2.421   3.666   4.254  0.0595  1.2387  0.2524
 5971TIP3    H239329   2.427   3.730   4.117 -0.0313  0.8614  0.0716
 5972TIP3   OH239330   3.349   6.037   3.185 -0.3198  0.2034  0.1977
 5972TIP3    H139331   3.399   5.980   3.127  0.1284  0.7150  0.0778
 5972TIP3    H239332   3.377   6.013   3.273 -0.2312  0.1459  0.1532
 5973TIP3   OH239333   6.387   0.840   5.177  0.4486  0.2174 -0.2319
 5973TIP3    H139334   6.418   0.809   5.262 -1.3723 -1.9711 -0.2842
 5973TIP3    H239335   6.316   0.780   5.154 -0.7245  2.2253 -2.1978
 5974TIP3   OH239336   5.950   5.798  11.086  0.4006 -0.0937  0.2193
 5974TIP3    H139337   5.949   5.886  11.049  1.2066  0.4931  1.4975
 5974TIP3    H239338   5.934   5.811  11.180  1.1766 -1.2438  0.5375
 5975TIP3   OH239339   0.039   2.769  15.653  0.6570  0.4906  0.8720
 5975TIP3    H139340  -0.028   2.756  15.586  0.5281 -1.3492  1.2845
 5975TIP3    H239341   0.090   2.843  15.622  1.1691 -0.8373 -1.7857
 5976TIP3   OH239342   5.338   4.679   5.231 -0.5510 -0.1665 -0.2473
 5976TIP3    H139343   5.292   4.597   5.209 -1.1372 -0.1290  0.7897
 5976TIP3    H239344   5.269   4.744   5.239 -0.4625 -0.2586  2.0473
 5977TIP3   OH239345   2.772   2.412   3.235 -0.3800 -0.2205 -0.1691
 5977TIP3    H139346   2.861   2.441   3.217 -0.4761 -0.5815 -1.3381
 5977TIP3    H239347   2.769   2.322   3.201 -0.5375 -1.0741  1.9328
 5978TIP3   OH239348   5.449   3.013   5.252  0.0472 -0.2187 -0.4069
 5978TIP3    H139349   5.455   2.979   5.163 -1.8867  0.9962 -1.0434
 5978TIP3    H239350   5.461   3.108   5.243 -0.5588 -0.0338  0.5752
 5979TIP3   OH239351   5.056   6.670   3.705  0.0107  0.0839 -0.0003
 5979TIP3    H139352   4.983   6.732   3.703 -0.4806 -0.4988 -0.7042
 5979TIP3    H239353   5.040   6.611   3.631  1.5388  0.3375 -0.5918
 5980TIP3   OH239354   6.042   3.908   1.422 -0.4005  0.8449  0.5387
 5980TIP3    H139355   6.080   3.859   1.494  1.4408 -0.7901 -1.4152
 5980TIP3    H239356   6.049   4.000   1.448  0.0931  0.3020  2.4319
 5981TIP3   OH239357   6.354   1.018   0.161 -0.2866 -0.1945 -0.1613
 5981TIP3    H139358   6.391   0.931   0.144 -2.1732 -1.1036  0.1961
 5981TIP3    H239359   6.293   1.033   0.089  0.7474  1.3106 -0.7775
 5982TIP3   OH239360   2.778   0.478  13.656  0.2860 -0.4996 -0.3524
 5982TIP3    H139361   2.818   0.412  13.599  0.0174  0.6154 -1.8962
 5982TIP3    H239362   2.736   0.540  13.595 -0.8805  0.1958  1.1046
 5983TIP3   OH239363   2.089   2.089   5.433 -0.1529 -0.5051  0.3098
 5983TIP3    H139364   2.025   2.089   5.362 -0.5536  1.3945  0.6402
 5983TIP3    H239365   2.121   2.179   5.438  1.5163 -1.0922  1.0906
 5984TIP3   OH239366   6.003   2.537  16.106  0.5141  0.5585 -0.1344
 5984TIP3    H139367   5.970   2.607  16.163 -0.0600  0.7926 -0.7366
 5984TIP3    H239368   5.928   2.478  16.095  1.3241 -0.8113  1.3248
 5985TIP3   OH239369   4.013   5.870   5.757  0.4175  0.1092 -0.1716
 5985TIP3    H139370   3.961   5.908   5.828  2.4786  1.7067  0.5997
 5985TIP3    H239371   4.041   5.946   5.706  2.3267 -0.6051 -0.2648
 5986TIP3   OH239372   0.086   2.931  15.297 -0.5604 -0.8238  0.4256
 5986TIP3    H139373  -0.000   2.894  15.275 -1.2082  0.1649  1.2081
 5986TIP3    H239374   0.080   3.023  15.271  0.7942 -1.0731 -0.8674
 5987TIP3   OH239375   2.834   2.382   4.278  0.7862 -0.8954  0.5473
 5987TIP3    H139376   2.757   2.333   4.250  0.0370 -0.3413  1.5728
 5987TIP3    H239377   2.843   2.361   4.371  0.4339  0.9154  1.0176
 5988TIP3   OH239378   5.368   6.364   4.129 -0.2076 -0.4738  0.0263
 5988TIP3    H139379   5.443   6.418   4.156 -1.3041  1.1429  0.0089
 5988TIP3    H239380   5.373   6.287   4.185  0.0858  0.7734  1.8199
 5989TIP3   OH239381   3.528   6.333   2.277 -0.3710 -0.6856  0.8716
 5989TIP3    H139382   3.449   6.323   2.331 -0.3629 -0.8455  0.8563
 5989TIP3    H239383   3.545   6.427   2.275  0.3867 -0.7671  2.2363
 5990TIP3   OH239384   0.448   4.585  11.654  0.2280  0.4823  0.6435
 5990TIP3    H139385   0.424   4.677  11.667  0.4383  0.4380  1.3424
 5990TIP3    H239386   0.422   4.567  11.563 -0.0173  1.1665  0.5694
 5991TIP3   OH239387   6.265   4.719  16.847 -0.0832 -0.0490  0.3075
 5991TIP3    H139388   6.277   4.785  16.915 -0.3541  1.2328 -0.8486
 5991TIP3    H239389   6.225   4.645  16.892  2.7508 -0.5692  2.2175
 5992TIP3   OH239390   6.068   5.128   2.753  0.5360 -0.2114 -0.2296
 5992TIP3    H139391   6.131   5.057   2.740  0.0425 -0.3246 -2.1962
 5992TIP3    H239392   6.014   5.128   2.674 -0.5120  1.3262  0.4357
 5993TIP3   OH239393   4.829   0.120  16.310 -0.1578 -0.3615  0.0562
 5993TIP3    H139394   4.782   0.203  16.317  1.0104  0.3209  0.0848
 5993TIP3    H239395   4.806   0.088  16.223  0.6651  0.8251 -0.6351
 5994TIP3   OH239396   5.669   6.592  11.116  0.0816 -0.4341 -0.3587
 5994TIP3    H139397   5.677   6.498  11.131 -1.3236 -0.6371 -0.7395
 5994TIP3    H239398   5.747   6.616  11.067  1.6433 -0.9406  1.7512
 5995TIP3   OH239399   6.004   6.155   0.618 -0.3156 -0.6907 -0.0091
 5995TIP3    H139400   5.964   6.076   0.581  0.2702 -0.8343 -0.3483
 5995TIP3    H239401   6.092   6.157   0.581 -0.3274  0.1316 -0.0097
 5996TIP3   OH239402   4.934   0.745   0.987 -0.3909  0.2296 -0.7201
 5996TIP3    H139403   5.005   0.692   1.024 -1.7540 -2.0685 -1.2750
 5996TIP3    H239404   4.969   0.775   0.903 -0.3098 -1.5371 -1.3585
 5997TIP3   OH239405   3.437   0.943   6.221 -0.3822  0.0459  0.3689
 5997TIP3    H139406   3.493   0.896   6.283 -1.3802 -0.4787  0.8962
 5997TIP3    H239407   3.448   0.896   6.138  1.1766  0.9226  0.0506
 5998TIP3   OH239408   4.808   0.482  15.767  0.3748  0.2414 -0.0252
 5998TIP3    H139409   4.903   0.465  15.767  0.5139  0.8862 -1.4316
 5998TIP3    H239410   4.799   0.566  15.812  0.2321 -0.7707  1.9487
 5999TIP3   OH239411   2.507   3.052  11.109 -0.7137 -0.1060  0.6074
 5999TIP3    H139412   2.505   3.062  11.204  0.5023 -0.9589  0.7568
 5999TIP3    H239413   2.563   3.123  11.078  2.1411 -1.9733  0.9824
 6000TIP3   OH239414   6.578   3.611   0.713  0.2612 -0.2127 -0.4770
 6000TIP3    H139415   6.632   3.640   0.786  0.7580  0.9255 -1.2620
 6000TIP3    H239416   6.491   3.648   0.731  0.2678 -0.3107 -0.2442
 6001TIP3   OH239417   2.980   4.687   3.896 -0.1657  0.2897 -0.0541
 6001TIP3    H139418   3.023   4.623   3.952  1.6933  1.2919 -0.2401
 6001TIP3    H239419   2.949   4.755   3.956 -0.1819  0.2865 -0.0587
 6002TIP3   OH239420   5.040   2.410  12.024  0.2629  0.1834  0.2578
 6002TIP3    H139421   5.106   2.469  11.988  0.8846 -0.8651 -0.4061
 6002TIP3    H239422   5.087   2.328  12.041 -0.7510 -0.4329  0.2475
 6003TIP3   OH239423   3.926   4.325  12.245 -0.3221  0.7696  0.3426
 6003TIP3    H139424   3.891   4.365  12.165  0.4335 -0.8567 -0.8589
 6003TIP3    H239425   3.852   4.275  12.281 -0.1592 -0.0982 -0.4651
 6004TIP3   OH239426   1.439   0.017   3.499  0.8037 -0.3234 -0.5032
 6004TIP3    H139427   1.351  -0.000   3.468  0.3213  0.6966  0.2211
 6004TIP3    H239428   1.466   0.097   3.453  1.4204 -0.7316 -0.8591
 6005TIP3   OH239429   1.967   4.963  16.551 -0.6962  0.9620 -0.5971
 6005TIP3    H139430   1.980   4.891  16.613  1.3083  1.5083 -0.3287
 6005TIP3    H239431   1.904   4.929  16.488 -3.4732  0.6208  2.0887
 6006TIP3   OH239432   4.168   0.710  10.686  0.0257  0.2821  0.3125
 6006TIP3    H139433   4.263   0.718  10.685 -0.0274  0.9908 -0.9868
 6006TIP3    H239434   4.143   0.729  10.776  1.0864  0.4612  0.5788
 6007TIP3   OH239435   2.476   2.571   1.369 -0.0200  0.2882 -0.2392
 6007TIP3    H139436   2.525   2.535   1.296 -2.3809 -0.0434 -1.7474
 6007TIP3    H239437   2.527   2.646   1.398  1.5505 -0.2712 -1.4581
 6008TIP3   OH239438   2.816   2.032  16.161 -0.2023 -0.4252 -0.2667
 6008TIP3    H139439   2.850   1.988  16.239 -1.0716 -0.5865  0.0321
 6008TIP3    H239440   2.890   2.084  16.128  0.6870 -1.7007 -0.3382
 6009TIP3   OH239441   4.366   6.669  12.744  0.2306  0.0685 -0.6939
 6009TIP3    H139442   4.347   6.758  12.771 -0.6643 -0.3977  0.2654
 6009TIP3    H239443   4.459   6.670  12.721  0.3048  1.1573 -0.3925
 6010TIP3   OH239444   0.622   3.428   7.064 -0.9451 -0.4332  0.2417
 6010TIP3    H139445   0.547   3.439   7.006 -0.5289 -0.0092 -0.2279
 6010TIP3    H239446   0.694   3.475   7.020 -0.9856  1.2430  1.8237
 6011TIP3   OH239447   4.891   2.393  15.338 -0.1535  0.1383 -0.6734
 6011TIP3    H139448   4.936   2.355  15.413  1.5086 -0.3411 -1.8731
 6011TIP3    H239449   4.798   2.377  15.355  0.2303 -0.5132  0.9593
 6012TIP3   OH239450   2.043   5.220  16.593  0.3123 -1.4041 -0.4563
 6012TIP3    H139451   2.107   5.210  16.522 -0.7569  1.9237 -2.0920
 6012TIP3    H239452   2.002   5.134  16.601  2.1404 -2.5134 -2.2240
 6013TIP3   OH239453   5.941   4.159   0.882  0.1920 -0.1612 -0.5332
 6013TIP3    H139454   5.979   4.240   0.916  0.5830 -0.8350  0.7431
 6013TIP3    H239455   6.016   4.111   0.846  0.1884 -0.4992 -0.1041
 6014TIP3   OH239456   3.642   1.827   2.754  0.3663 -0.0237 -0.1154
 6014TIP3    H139457   3.640   1.781   2.838  1.1010  0.9351  0.4535
 6014TIP3    H239458   3.558   1.806   2.713 -0.6619  0.6839  1.5356
 6015TIP3   OH239459   6.662   1.721  14.203 -0.0146  0.2421 -0.3653
 6015TIP3    H139460   6.671   1.679  14.288 -1.9286 -1.2242 -0.8265
 6015TIP3    H239461   6.739   1.692  14.153  0.0206 -0.6180  0.1725
 6016TIP3   OH239462   6.283   6.138   0.140 -0.3533 -0.1392  0.3335
 6016TIP3    H139463   6.245   6.158   0.055  1.7378 -0.6809 -0.7898
 6016TIP3    H239464   6.369   6.179   0.139  0.0617 -0.8865  1.8434
 6017TIP3   OH239465   2.258   4.292   1.304 -0.2742  0.0511  0.0829
 6017TIP3    H139466   2.282   4.284   1.212  1.1321  0.7162  0.3619
 6017TIP3    H239467   2.333   4.256   1.352 -1.6641 -1.8011  0.9758
 6018TIP3   OH239468   4.166   6.617   2.498  0.3804  0.2414 -0.5901
 6018TIP3    H139469   4.218   6.577   2.567  0.3846 -0.4533 -0.9866
 6018TIP3    H239470   4.103   6.550   2.473 -0.4372  0.9195 -0.4081
 6019TIP3   OH239471   4.987   1.736  17.164  0.2178 -0.2295 -0.3226
 6019TIP3    H139472   4.941   1.669  17.115  0.4882 -0.9092  0.3418
 6019TIP3    H239473   5.066   1.754  17.113 -0.8022  1.0153 -1.5193
 6020TIP3   OH239474   1.849   5.390  15.761  0.2918 -0.1980  0.2239
 6020TIP3    H139475   1.826   5.307  15.803 -0.6991  0.5940  1.3135
 6020TIP3    H239476   1.944   5.396  15.771  0.3187 -1.0015  0.5218
 6021TIP3   OH239477   4.477   3.674   2.707 -0.5201 -0.0525  0.0045
 6021TIP3    H139478   4.517   3.627   2.781  0.3487  1.4221  0.5213
 6021TIP3    H239479   4.442   3.754   2.746 -0.8106  0.3466 -1.0462
 6022TIP3   OH239480   0.950   2.125  15.939 -0.6275 -0.2881 -0.5580
 6022TIP3    H139481   1.009   2.086  16.003 -0.4830 -0.7858 -0.9881
 6022TIP3    H239482   1.005   2.183  15.887 -1.2255  2.1682  1.4107
 6023TIP3   OH239483   1.944   6.752   4.342 -0.2134  0.4065  0.0572
 6023TIP3    H139484   1.919   6.735   4.251  0.6101  1.5075 -0.3991
 6023TIP3    H239485   2.027   6.800   4.335  1.0646 -1.4767  1.4591
 6024TIP3   OH239486   6.275   3.245  16.474  0.3241  0.4137  0.0378
 6024TIP3    H139487   6.205   3.267  16.535  0.0702 -0.2935  0.0037
 6024TIP3    H239488   6.326   3.177  16.520 -0.5881 -1.0331 -1.0242
 6025TIP3   OH239489   0.249   5.855   6.037  0.2263  0.0501  0.3392
 6025TIP3    H139490   0.212   5.818   6.117 -2.6774  1.4043 -0.2668
 6025TIP3    H239491   0.314   5.918   6.068 -2.0657  1.8579  1.8331
 6026TIP3   OH239492   1.231   2.868   2.407 -0.0438 -0.2025  0.0269
 6026TIP3    H139493   1.237   2.960   2.385  2.0038  0.1351  1.7367
 6026TIP3    H239494   1.161   2.864   2.473  1.0779  0.4466  1.2929
 6027TIP3   OH239495   2.244   2.127  13.918 -0.1798 -0.0849 -0.0731
 6027TIP3    H139496   2.310   2.058  13.912 -0.0382  0.1509 -1.8527
 6027TIP3    H239497   2.160   2.081  13.919 -0.0879 -0.3091 -1.2584
 6028TIP3   OH239498   0.352   0.418  14.107 -0.3010  0.4160 -0.9712
 6028TIP3    H139499   0.363   0.443  14.016  1.4847  1.8827 -0.4203
 6028TIP3    H239500   0.303   0.491  14.146 -0.6305  0.0278 -0.6455
 6029TIP3   OH239501   3.911   3.839  13.536  0.4549  0.1172  0.2202
 6029TIP3    H139502   3.827   3.845  13.491  1.2061  2.5602 -0.9977
 6029TIP3    H239503   3.920   3.746  13.556 -2.2097 -0.3185 -0.1911
 6030TIP3   OH239504   1.593   0.487   6.203  0.2743  0.4400 -0.1189
 6030TIP3    H139505   1.513   0.495   6.255  0.3838  1.2433 -0.0606
 6030TIP3    H239506   1.573   0.530   6.121 -0.4737 -2.3021 -1.4857
 6031TIP3   OH239507   6.652   0.447   1.004 -0.4134  0.2693  0.0370
 6031TIP3    H139508   6.706   0.504   1.059  2.1537 -0.5474 -1.4853
 6031TIP3    H239509   6.713   0.383   0.969 -2.2086 -0.1422 -2.6021
 6032TIP3   OH239510   4.805   1.119   2.841 -0.1974  0.4080  0.0342
 6032TIP3    H139511   4.798   1.172   2.762 -0.7567  0.2397 -0.0303
 6032TIP3    H239512   4.893   1.081   2.836 -0.3816  0.0704 -0.7135
 6033TIP3   OH239513   5.838   1.232  15.377 -0.2776  0.1480 -0.1306
 6033TIP3    H139514   5.755   1.228  15.328 -0.4176 -1.9991  0.1711
 6033TIP3    H239515   5.905   1.241  15.310 -0.6879  1.0853 -0.4346
 6034TIP3   OH239516   0.823   0.019   0.158 -0.1499 -0.4449 -0.3041
 6034TIP3    H139517   0.814   0.114   0.146 -2.6534 -0.0863  2.9149
 6034TIP3    H239518   0.915   0.001   0.143  0.3113  2.4011 -1.5167
 6035TIP3   OH239519   6.198   2.861   6.039 -0.1068  0.1030  0.4605
 6035TIP3    H139520   6.249   2.894   5.965 -2.4267  2.2090 -0.3245
 6035TIP3    H239521   6.167   2.775   6.011  0.3890  0.1695 -0.3195
 6036TIP3   OH239522   2.197   0.029  15.847  0.5613  0.0866  0.2491
 6036TIP3    H139523   2.206   0.055  15.756  1.1389 -1.5223 -0.1904
 6036TIP3    H239524   2.189  -0.066  15.844  1.6808 -0.1138  1.9297
 6037TIP3   OH239525   2.825   4.109  13.252 -0.4025 -0.3175 -0.8616
 6037TIP3    H139526   2.799   4.165  13.326  1.8222 -1.8343  1.2529
 6037TIP3    H239527   2.913   4.141  13.228 -1.0968  0.1631 -2.9624
 6038TIP3   OH239528   3.711   4.596  15.472 -0.0273 -0.5288 -0.2229
 6038TIP3    H139529   3.738   4.504  15.469  1.4123 -0.1340 -0.1989
 6038TIP3    H239530   3.743   4.627  15.557 -0.0816  0.1044 -0.4260
 6039TIP3   OH239531   4.731   3.003  13.982 -0.4345 -0.5481 -0.3937
 6039TIP3    H139532   4.659   2.968  14.034 -1.0131  0.3777 -0.5506
 6039TIP3    H239533   4.807   2.999  14.040 -0.9199 -0.1972  0.2725
 6040TIP3   OH239534   6.492   6.096   5.523  0.1881 -0.3649  0.2169
 6040TIP3    H139535   6.412   6.047   5.546  0.8680 -1.4573  0.3398
 6040TIP3    H239536   6.534   6.042   5.456 -0.2864  1.3383 -1.5504
 6041TIP3   OH239537   1.873   5.294  11.515 -0.2897  0.7991 -0.3787
 6041TIP3    H139538   1.820   5.366  11.480 -1.2613  0.7862  0.9433
 6041TIP3    H239539   1.929   5.267  11.443 -0.7428  2.1060 -1.2537
 6042TIP3   OH239540   2.541   2.292   2.985  0.0190 -0.3235  0.5105
 6042TIP3    H139541   2.572   2.382   3.000 -1.5526  0.5818 -1.1560
 6042TIP3    H239542   2.446   2.298   2.991 -0.1718 -1.6539 -0.6255
 6043TIP3   OH239543   2.281   4.050   2.149  0.2108  0.1210 -0.2551
 6043TIP3    H139544   2.262   4.043   2.056  0.9230 -0.4226 -0.3693
 6043TIP3    H239545   2.265   4.142   2.170 -0.4632  0.1303 -0.7915
 6044TIP3   OH239546   3.760   0.720  15.234 -0.8410  0.2223 -0.4708
 6044TIP3    H139547   3.832   0.657  15.234 -2.1989 -2.0148  5.4606
 6044TIP3    H239548   3.802   0.805  15.242  1.1177 -0.7037 -0.3736
 6045TIP3   OH239549   6.417   0.339   5.870  0.2419  0.1153  0.2147
 6045TIP3    H139550   6.426   0.337   5.966  1.2261  0.8316  0.1517
 6045TIP3    H239551   6.332   0.380   5.855 -0.0451 -0.2573  0.7893
 6046TIP3   OH239552   2.039   6.260   4.035 -0.0728 -0.4998 -0.1216
 6046TIP3    H139553   2.039   6.328   4.103 -1.3189  1.2604 -1.7672
 6046TIP3    H239554   1.947   6.247   4.015  0.1758 -2.3912 -0.1990
 6047TIP3   OH239555   1.151   5.293   6.518  0.4188  0.3824  0.2283
 6047TIP3    H139556   1.059   5.287   6.494  0.6153 -2.0970 -0.1145
 6047TIP3    H239557   1.186   5.205   6.503  1.7151 -0.1961  4.9748
 6048TIP3   OH239558   1.232   0.998  11.393 -0.2640  0.1518 -0.0782
 6048TIP3    H139559   1.196   1.046  11.318 -2.3539  0.4404  1.0254
 6048TIP3    H239560   1.156   0.977  11.447  0.9667 -1.6921  1.0563
 6049TIP3   OH239561   1.955   5.159  11.255 -0.2954 -0.0323 -0.2203
 6049TIP3    H139562   1.938   5.103  11.180 -1.6463 -1.2785  0.9435
 6049TIP3    H239563   2.050   5.168  11.258 -0.2240  0.0210 -2.0355
 6050TIP3   OH239564   6.745   4.066  16.985  0.1360  0.4125 -0.5987
 6050TIP3    H139565   6.745   3.972  17.003  1.2132  0.3897 -0.6742
 6050TIP3    H239566   6.680   4.077  16.916 -1.2602 -0.0316  0.5863
 6051TIP3   OH239567   4.626   6.740   0.471  0.3750  0.8384  0.5653
 6051TIP3    H139568   4.714   6.756   0.507  0.1340 -0.3907  1.7793
 6051TIP3    H239569   4.619   6.645   0.467 -1.7642  0.8085  2.7987
 6052TIP3   OH239570   6.090   0.798   2.870  0.2071 -0.5467  0.0376
 6052TIP3    H139571   6.154   0.748   2.920 -0.0148 -0.6006  0.2680
 6052TIP3    H239572   6.012   0.742   2.867 -0.6627  0.4965  1.8095
 6053TIP3   OH239573   2.327   2.370  15.204 -0.4409  0.0887 -0.0132
 6053TIP3    H139574   2.309   2.457  15.239 -0.1984 -0.9760  3.0616
 6053TIP3    H239575   2.255   2.316  15.237  0.9619 -1.4315  0.6762
 6054TIP3   OH239576   4.190   5.857  11.684  0.7130 -0.2105 -0.0415
 6054TIP3    H139577   4.246   5.929  11.714  2.0996 -1.0569 -0.5182
 6054TIP3    H239578   4.167   5.880  11.594 -0.2937  0.4781  0.3873
 6055TIP3   OH239579   0.088   6.108  12.216 -0.3091 -0.6791  0.2870
 6055TIP3    H139580   0.062   6.030  12.168 -0.7605 -0.7371  0.6284
 6055TIP3    H239581   0.060   6.181  12.160 -3.1238 -0.6744  1.5590
 6056TIP3   OH239582   6.050   6.486  14.296 -0.3356 -0.7460 -0.3313
 6056TIP3    H139583   6.075   6.432  14.371 -0.2001 -0.5443 -0.2304
 6056TIP3    H239584   6.056   6.576  14.329  1.5130 -0.5368 -1.0915
 6057TIP3   OH239585   4.345   4.755  12.000  0.2551 -0.2365  0.0890
 6057TIP3    H139586   4.275   4.819  11.985  0.2125 -0.0390  1.0469
 6057TIP3    H239587   4.378   4.776  12.088  0.2626 -1.5082  0.4114
 6058TIP3   OH239588   2.598   4.039   3.927  0.9212  0.4983  0.2922
 6058TIP3    H139589   2.596   4.125   3.970 -0.9377  0.0977  1.0743
 6058TIP3    H239590   2.614   4.059   3.835  2.0494  1.5577  0.6881
 6059TIP3   OH239591   6.366   0.021   3.006 -0.4872  0.6523  0.5101
 6059TIP3    H139592   6.312   0.008   3.084  2.9374 -1.9884  2.7376
 6059TIP3    H239593   6.406   0.108   3.019 -1.5625  1.1648  0.5186
 6060TIP3   OH239594   3.461   3.338   4.428  0.3483 -0.3951  0.2246
 6060TIP3    H139595   3.419   3.258   4.460 -0.6952 -0.0547 -0.2629
 6060TIP3    H239596   3.548   3.310   4.400 -0.4724 -1.6362 -1.2062
 6061TIP3   OH239597   3.524   1.990  15.630  0.1672  0.1817  0.4698
 6061TIP3    H139598   3.521   1.989  15.726 -0.5498  1.1150  0.4700
 6061TIP3    H239599   3.525   1.897  15.606  0.3485 -0.0664  1.3798
 6062TIP3   OH239600   5.429   0.569  15.830 -0.2840  0.3350 -0.1443
 6062TIP3    H139601   5.348   0.551  15.783  0.6421 -1.8467 -1.0743
 6062TIP3    H239602   5.498   0.544  15.768  1.0335 -0.3770  1.5364
 6063TIP3   OH239603   6.459   5.693   4.028 -0.2937 -0.2908  0.0962
 6063TIP3    H139604   6.506   5.636   3.966 -1.2798 -1.4845  0.3981
 6063TIP3    H239605   6.452   5.641   4.108 -0.1263  0.7558  0.8047
 6064TIP3   OH239606   0.831   0.323   2.537 -0.5778 -0.6289  0.4245
 6064TIP3    H139607   0.914   0.313   2.583 -0.3547  0.0452  0.1806
 6064TIP3    H239608   0.814   0.237   2.498  0.0418 -0.7481  0.4100
 6065TIP3   OH239609   2.089   6.069  15.753  0.3232  0.1963  0.7479
 6065TIP3    H139610   1.995   6.059  15.737  0.3981  1.5550 -0.7687
 6065TIP3    H239611   2.109   6.158  15.725  2.0183  0.0532  1.3860
 6066TIP3   OH239612   6.668   6.444   4.837  0.2114  0.1393 -0.1995
 6066TIP3    H139613   6.616   6.417   4.913 -1.6684  1.4196 -0.9465
 6066TIP3    H239614   6.624   6.523   4.805  2.2101  0.8536 -1.3596
 6067TIP3   OH239615   6.683   3.460  13.024  0.2980  0.6564 -0.0389
 6067TIP3    H139616   6.768   3.448  12.983 -0.4916 -0.4928 -1.4537
 6067TIP3    H239617   6.678   3.553  13.044  0.9793  1.1732 -2.0573
 6068TIP3   OH239618   3.527   2.334   1.920 -0.0867 -1.0199 -0.0347
 6068TIP3    H139619   3.621   2.345   1.931 -0.2966  1.8385 -0.2251
 6068TIP3    H239620   3.509   2.368   1.832 -1.4168 -0.2086  0.5181
 6069TIP3   OH239621   1.424   2.810  11.450  0.3000 -0.4713 -0.4916
 6069TIP3    H139622   1.424   2.732  11.394  1.3760  0.6261 -2.1017
 6069TIP3    H239623   1.333   2.823  11.474 -0.1725 -1.0723 -1.8738
 6070TIP3   OH239624   3.403   1.357  17.020 -0.2859 -0.3414 -0.0406
 6070TIP3    H139625   3.412   1.452  17.015  0.5200 -0.3663  0.7356
 6070TIP3    H239626   3.435   1.334  17.107 -0.8716 -1.2836 -0.0648
 6071TIP3   OH239627   5.114   4.845  14.964  0.5446  0.5608 -0.1598
 6071TIP3    H139628   5.112   4.770  14.905  0.8941 -0.0250  0.5591
 6071TIP3    H239629   5.206   4.871  14.966  0.9093 -0.7050  1.6880
 6072TIP3   OH239630   3.773   2.697   4.541  0.0559 -0.2551  0.0200
 6072TIP3    H139631   3.691   2.700   4.491  0.3542  0.3755 -0.4415
 6072TIP3    H239632   3.832   2.755   4.494  0.4429  0.1174  0.9463
 6073TIP3   OH239633   4.432   5.621   1.306  0.4534 -0.5801  0.1019
 6073TIP3    H139634   4.505   5.681   1.289  0.5763 -0.4024  1.1384
 6073TIP3    H239635   4.419   5.626   1.401 -1.5221  0.0865 -0.1679
 6074TIP3   OH239636   1.126   1.327   6.458  0.2741 -0.6105 -0.1294
 6074TIP3    H139637   1.140   1.233   6.465  0.6749 -0.5150  0.4071
 6074TIP3    H239638   1.039   1.335   6.418  0.6890 -1.2048 -1.1913
 6075TIP3   OH239639   2.002   1.846   3.445  0.5734  0.3608 -0.1917
 6075TIP3    H139640   1.991   1.909   3.515 -0.8147 -0.9225  0.8157
 6075TIP3    H239641   1.941   1.874   3.377 -1.9302 -1.2087  1.2886
 6076TIP3   OH239642   0.043   4.964   5.454 -0.0541  0.0382  0.5992
 6076TIP3    H139643  -0.020   4.908   5.408  1.1147 -1.6908  0.9886
 6076TIP3    H239644  -0.011   5.026   5.503 -1.3742  0.8081 -1.6603
 6077TIP3   OH239645   0.931   4.152  13.592 -0.3493  0.1030  0.2382
 6077TIP3    H139646   0.940   4.234  13.639  0.2875 -0.3995  1.0125
 6077TIP3    H239647   0.881   4.096  13.652  1.9776 -1.1419  1.1481
 6078TIP3   OH239648   2.882   4.326  12.720 -0.6365  0.5473  0.0466
 6078TIP3    H139649   2.896   4.240  12.681 -2.5932  0.3456 -0.3291
 6078TIP3    H239650   2.856   4.307  12.811 -1.3664  0.7024 -0.1223
 6079TIP3   OH239651   1.836   4.540  14.990  0.3052  0.1863  0.2865
 6079TIP3    H139652   1.923   4.575  15.012  0.6796 -0.8796  0.5758
 6079TIP3    H239653   1.800   4.603  14.929  0.6726  1.4232  1.3026
 6080TIP3   OH239654   1.332   6.691  17.186  0.6931 -0.1939  0.2977
 6080TIP3    H139655   1.405   6.678  17.126 -0.4900 -0.3109 -1.1892
 6080TIP3    H239656   1.318   6.605  17.226  1.1237 -0.2549  0.3263
 6081TIP3   OH239657   5.360   0.556  14.528  0.2452 -0.1861  0.0261
 6081TIP3    H139658   5.442   0.606  14.520  0.7604 -0.8211  1.1169
 6081TIP3    H239659   5.338   0.562  14.621 -1.3810  0.6086 -0.3644
 6082TIP3   OH239660   4.522   4.523  15.257 -0.0578 -0.1260  0.3807
 6082TIP3    H139661   4.552   4.432  15.257  0.4181  0.0174 -0.7752
 6082TIP3    H239662   4.589   4.571  15.305  0.7238 -0.0879 -0.7072
 6083TIP3   OH239663   6.254   3.280  13.854 -0.5287  0.5728 -0.5865
 6083TIP3    H139664   6.199   3.259  13.779 -0.5200 -1.8094 -0.0220
 6083TIP3    H239665   6.344   3.264  13.824 -0.5294 -0.4408 -0.0791
 6084TIP3   OH239666   3.034   0.725  11.267  0.1838  0.1020 -0.3689
 6084TIP3    H139667   3.025   0.672  11.346 -0.4855 -1.0090 -1.1564
 6084TIP3    H239668   2.945   0.729  11.231  0.3923  1.0235 -0.8015
 6085TIP3   OH239669   5.821   1.054   1.715  0.4698 -0.0866  0.0502
 6085TIP3    H139670   5.820   1.012   1.629  2.5690  0.0478 -0.0956
 6085TIP3    H239671   5.772   0.995   1.772 -2.1100  0.4630 -1.4654
 6086TIP3   OH239672   6.524   0.080  13.778 -0.7664 -0.2750  0.0985
 6086TIP3    H139673   6.471   0.139  13.724 -0.2634  0.6581  0.6086
 6086TIP3    H239674   6.470   0.001  13.787 -1.8725  0.4736  0.2252
 6087TIP3   OH239675   1.627   1.554  11.447  0.1348 -0.0862  0.2864
 6087TIP3    H139676   1.630   1.597  11.362  2.1199 -3.5358 -1.6095
 6087TIP3    H239677   1.680   1.609  11.504 -0.5396  1.8762 -0.8809
 6088TIP3   OH239678   0.846   5.421   0.185 -0.0622  0.1389  0.2835
 6088TIP3    H139679   0.867   5.513   0.168 -0.1393 -0.2846 -2.6720
 6088TIP3    H239680   0.923   5.372   0.154 -0.5004 -0.8549  0.7016
 6089TIP3   OH239681   2.283   2.040  11.457 -0.4494 -0.2251 -0.3228
 6089TIP3    H139682   2.325   1.961  11.489 -0.8395  0.6097  2.4856
 6089TIP3    H239683   2.356   2.100  11.440 -0.2676 -0.4220 -0.2491
 6090TIP3   OH239684   5.594   6.155   5.962  0.0263  0.2753  1.5967
 6090TIP3    H139685   5.551   6.209   6.029  0.9607 -0.1970  2.6009
 6090TIP3    H239686   5.590   6.066   5.997  1.5895  0.1847  1.5993
 6091TIP3   OH239687   3.686   4.587  12.264  0.0082  0.3576 -0.6412
 6091TIP3    H139688   3.703   4.562  12.173  0.4720 -1.8656 -0.0007
 6091TIP3    H239689   3.772   4.608  12.300  0.3966 -2.3991  0.2349
 6092TIP3   OH239690   2.082   0.026   1.575 -0.3528  0.0609  0.1312
 6092TIP3    H139691   2.041   0.047   1.491 -1.3756  0.1170  0.6323
 6092TIP3    H239692   2.176   0.039   1.560 -0.6836  2.1847 -0.3959
 6093TIP3   OH239693   3.876   5.377   2.751  0.2244  0.4185  0.1454
 6093TIP3    H139694   3.847   5.461   2.787  0.1072 -0.3659  1.9698
 6093TIP3    H239695   3.815   5.313   2.787  0.5138 -0.4993 -0.9531
 6094TIP3   OH239696   1.277   4.921  14.416 -0.3384 -0.0429 -0.1953
 6094TIP3    H139697   1.305   4.991  14.475  1.2832  0.8510 -1.9180
 6094TIP3    H239698   1.184   4.939  14.400 -0.2816  0.9134  0.4398
 6095TIP3   OH239699   1.216   2.880   3.427  0.2087 -0.4613 -0.0437
 6095TIP3    H139700   1.141   2.862   3.483 -0.5621 -0.8858 -1.1629
 6095TIP3    H239701   1.287   2.825   3.461  1.0252  2.1396  2.9261
 6096TIP3   OH239702   3.662   0.216   3.045  0.5423  0.3408 -0.0575
 6096TIP3    H139703   3.640   0.163   2.968  1.5666  0.0532 -0.1796
 6096TIP3    H239704   3.660   0.306   3.013  1.1770  0.2120 -0.4968
 6097TIP3   OH239705   1.721   2.661  13.749  0.6915  0.5193  0.3365
 6097TIP3    H139706   1.810   2.627  13.763  0.7006  0.8051  0.9725
 6097TIP3    H239707   1.733   2.754  13.731  0.6727  0.2140 -1.5083
 6098TIP3   OH239708   3.131   5.887  12.725 -0.7662 -0.4798 -0.3572
 6098TIP3    H139709   3.188   5.911  12.651  1.0954 -1.9265  0.5316
 6098TIP3    H239710   3.124   5.968  12.776  0.5005 -0.2364 -0.5120
 6099TIP3   OH239711   5.118   1.917  11.460 -0.6042  0.5705 -0.4714
 6099TIP3    H139712   5.051   1.985  11.471 -1.4654  0.2719 -3.0683
 6099TIP3    H239713   5.160   1.939  11.377  0.6732 -0.8034 -0.2234
 6100TIP3   OH239714   4.202   3.967   4.146  0.6761  0.3787  0.0940
 6100TIP3    H139715   4.117   3.931   4.121  1.2776 -1.5590  0.6336
 6100TIP3    H239716   4.182   4.027   4.218 -0.3274  0.7925 -0.5083
 6101TIP3   OH239717   3.096   3.389   2.708 -0.1034 -0.1063 -0.5634
 6101TIP3    H139718   3.031   3.389   2.778  0.4371  1.0138 -0.0402
 6101TIP3    H239719   3.044   3.401   2.628 -0.7568 -1.7937 -0.4326
 6102TIP3   OH239720   3.525   4.338   3.813  0.5172 -0.0776  0.2013
 6102TIP3    H139721   3.533   4.429   3.784 -1.1728  0.3818  0.9981
 6102TIP3    H239722   3.465   4.343   3.888  0.6993 -1.8102  0.4920
 6103TIP3   OH239723   0.398   0.929   3.705  0.0859 -0.3702  0.4574
 6103TIP3    H139724   0.325   0.976   3.745  0.2051 -1.4150  1.9907
 6103TIP3    H239725   0.409   0.851   3.760  0.9939 -1.3100 -0.9995
 6104TIP3   OH239726   3.541   3.599   5.628  0.2117  0.2089 -0.1990
 6104TIP3    H139727   3.626   3.554   5.632 -0.2042 -0.4889  1.6858
 6104TIP3    H239728   3.542   3.658   5.703 -2.0124 -1.8548  1.6138
 6105TIP3   OH239729   1.793   2.142  11.001 -0.2068  0.1284  0.4390
 6105TIP3    H139730   1.828   2.226  11.031 -0.6665  0.2729  0.5768
 6105TIP3    H239731   1.838   2.125  10.919  1.0495 -0.2506  1.1818
 6106TIP3   OH239732   4.568   4.841   2.148 -0.2560  0.0080  0.1077
 6106TIP3    H139733   4.494   4.785   2.170 -0.3471 -0.2178 -0.7464
 6106TIP3    H239734   4.556   4.862   2.056  0.5505  0.2736  0.0524
 6107TIP3   OH239735   6.346   2.651   5.702  0.3328 -0.2000 -0.0023
 6107TIP3    H139736   6.332   2.609   5.617  2.4365 -0.4169 -0.2913
 6107TIP3    H239737   6.311   2.588   5.766 -0.4036 -0.4517 -0.6358
 6108TIP3   OH239738   5.566   1.204  14.446 -0.1084 -0.1027  0.1703
 6108TIP3    H139739   5.496   1.207  14.381  0.5962 -2.5640 -0.7965
 6108TIP3    H239740   5.647   1.205  14.395  0.4834 -0.8189  1.0676
 6109TIP3   OH239741   5.860   6.559  15.583 -0.1243 -0.1436  0.1825
 6109TIP3    H139742   5.887   6.532  15.671  0.5340 -0.9910 -0.2663
 6109TIP3    H239743   5.801   6.490  15.553 -0.7831  0.4163  0.1538
 6110TIP3   OH239744   2.403   0.222  10.445  0.4241  0.6063  0.9799
 6110TIP3    H139745   2.319   0.180  10.426  2.0567 -2.3070 -0.5102
 6110TIP3    H239746   2.401   0.303  10.395 -1.7690  1.0442  1.6488
 6111TIP3   OH239747   6.524   1.861  13.860  0.3522  0.0775 -0.1291
 6111TIP3    H139748   6.489   1.937  13.814 -0.0858  0.9702  1.5573
 6111TIP3    H239749   6.516   1.884  13.953  0.8512 -1.7583  0.4192
 6112TIP3   OH239750   4.072   5.644  13.543  0.2074  0.0469 -0.2289
 6112TIP3    H139751   4.112   5.572  13.494  0.8417 -1.2859  2.0940
 6112TIP3    H239752   4.112   5.723  13.506 -0.3716 -0.7339 -2.7292
 6113TIP3   OH239753   1.020   0.249  13.241 -0.0735 -0.0672 -0.1859
 6113TIP3    H139754   1.101   0.300  13.234 -0.3598  0.4023 -0.0909
 6113TIP3    H239755   0.950   0.314  13.232 -0.4509 -0.2427  1.3027
 6114TIP3   OH239756   6.475   1.260  13.135  0.0416  0.4426 -0.6265
 6114TIP3    H139757   6.382   1.252  13.155  0.1409  0.3581 -0.1698
 6114TIP3    H239758   6.502   1.172  13.108  0.2441  0.1716  0.4116
 6115TIP3   OH239759   4.686   5.089  15.645 -0.1956  0.1613 -0.2739
 6115TIP3    H139760   4.706   5.020  15.709 -2.3583 -0.0233  0.3002
 6115TIP3    H239761   4.629   5.046  15.581  1.4341  0.5088 -2.0551
 6116TIP3   OH239762   6.568   4.026  16.546 -0.3705  0.6883  0.2326
 6116TIP3    H139763   6.556   4.066  16.632 -0.6216  1.7855 -0.3039
 6116TIP3    H239764   6.651   4.062  16.515 -1.3446  2.0510 -0.9123
 6117TIP3   OH239765   4.505   5.848  14.344  0.0627 -0.6743 -0.0726
 6117TIP3    H139766   4.492   5.758  14.313  1.6161 -0.8373 -0.2992
 6117TIP3    H239767   4.551   5.838  14.427  1.9375 -0.0680 -0.9986
 6118TIP3   OH239768   1.855   5.331   6.539  0.1761  0.7384  0.3176
 6118TIP3    H139769   1.925   5.276   6.572 -1.4463 -2.2432 -0.8687
 6118TIP3    H239770   1.885   5.360   6.453  0.1176 -0.2460 -0.0419
 6119TIP3   OH239771   2.135   3.150   5.228  0.5660 -0.4260 -0.0105
 6119TIP3    H139772   2.198   3.082   5.206  0.5287 -0.5921  0.3945
 6119TIP3    H239773   2.058   3.130   5.176  1.0184  0.0685 -0.8972
 6120TIP3   OH239774   3.722   2.974  14.297  0.3665  0.0764  0.7802
 6120TIP3    H139775   3.646   3.021  14.332  0.3864  0.1880  0.6738
 6120TIP3    H239776   3.784   2.972  14.369  0.5610  0.6452  0.6327
 6121TIP3   OH239777   3.566   5.296   5.500  0.2951 -0.0692  0.3927
 6121TIP3    H139778   3.607   5.248   5.571 -0.4779 -0.3399  0.6638
 6121TIP3    H239779   3.568   5.388   5.528  3.3406  0.3489 -0.8815
 6122TIP3   OH239780   6.116   2.469  15.374 -0.5873 -0.5479 -0.2942
 6122TIP3    H139781   6.118   2.374  15.382  3.4715 -0.4924  3.2580
 6122TIP3    H239782   6.183   2.489  15.309 -1.2340 -0.0664 -0.8257
 6123TIP3   OH239783   0.006   2.071  11.382 -0.4221 -0.5209  0.3387
 6123TIP3    H139784   0.008   1.976  11.395  0.2354 -0.6113 -0.3967
 6123TIP3    H239785   0.034   2.084  11.292 -1.9425  0.2855 -0.0608
 6124TIP3   OH239786   5.304   6.009  11.988 -0.2798 -0.5043 -0.2091
 6124TIP3    H139787   5.311   5.937  11.926  1.9837 -0.4762 -0.0738
 6124TIP3    H239788   5.273   6.083  11.935  2.1399 -0.3302 -1.5373
 6125TIP3   OH239789   6.240   6.598  13.978 -0.3196  0.1262  0.4895
 6125TIP3    H139790   6.204   6.581  13.890  0.2899  1.3855 -0.0394
 6125TIP3    H239791   6.310   6.534  13.989 -0.2952  0.0593 -0.0202
 6126TIP3   OH239792   0.860   5.894  12.977 -0.0040 -0.3821  0.4215
 6126TIP3    H139793   0.923   5.894  12.905 -0.1263 -1.4244  0.3044
 6126TIP3    H239794   0.908   5.933  13.050  0.2948  0.1843 -0.0662
 6127TIP3   OH239795   3.016   5.272  14.723 -0.5953  0.3552  0.2265
 6127TIP3    H139796   3.037   5.197  14.667 -0.7318 -0.8179  1.7042
 6127TIP3    H239797   2.950   5.240  14.783  0.8649  0.9980  2.2849
 6128TIP3   OH239798   3.235   3.538  12.874  0.7094 -0.1613  0.0376
 6128TIP3    H139799   3.174   3.534  12.800  0.3379 -2.0512  0.3982
 6128TIP3    H239800   3.309   3.484  12.846  0.4505 -1.1009  1.1289
 6129TIP3   OH239801   0.086   3.761  10.552 -0.4614  0.0225  0.5062
 6129TIP3    H139802   0.169   3.810  10.554  2.1062 -3.8289  3.3537
 6129TIP3    H239803   0.051   3.771  10.640 -1.5856 -0.6345  0.1461
 6130TIP3   OH239804   1.217   0.260   0.952  0.2530  0.6739  0.2667
 6130TIP3    H139805   1.286   0.209   0.908  0.2399  1.6234 -0.9126
 6130TIP3    H239806   1.137   0.235   0.907  0.2921  1.9520 -0.5699
 6131TIP3   OH239807   6.315   3.295   5.593 -0.0894  0.0093  0.0734
 6131TIP3    H139808   6.345   3.349   5.520 -0.9238  1.0051  0.4458
 6131TIP3    H239809   6.220   3.304   5.591 -0.0989  0.3814  1.5234
 6132TIP3   OH239810   0.484   3.197  15.708 -0.2480 -0.1276  0.4017
 6132TIP3    H139811   0.491   3.103  15.719 -0.0938 -0.2555 -0.6257
 6132TIP3    H239812   0.575   3.227  15.705 -0.2872 -0.0281  0.1656
 6133TIP3   OH239813   3.304   5.128  12.626  0.0278 -0.0626  0.2410
 6133TIP3    H139814   3.263   5.196  12.573 -1.2649  1.0874  2.5744
 6133TIP3    H239815   3.276   5.046  12.586  1.2519  0.6724 -2.3548
 6134TIP3   OH239816   4.760   5.626   3.653 -0.0060  0.3215 -0.4067
 6134TIP3    H139817   4.710   5.661   3.727  1.7235  1.7025  0.1688
 6134TIP3    H239818   4.763   5.531   3.669 -0.6529  0.4602  0.6447
 6135TIP3   OH239819   2.436   6.443   1.420 -0.1181 -0.6534  0.5626
 6135TIP3    H139820   2.515   6.415   1.467  0.4896 -0.9129 -0.5868
 6135TIP3    H239821   2.379   6.476   1.489  0.6548 -1.2315  1.5226
 6136TIP3   OH239822   3.380   3.188   3.294  0.2458 -0.5973  0.3224
 6136TIP3    H139823   3.335   3.108   3.268 -0.5917  0.0637 -0.3319
 6136TIP3    H239824   3.311   3.254   3.297  1.1255  0.4011 -0.5242
 6137TIP3   OH239825   2.858   6.073  16.069 -0.0497 -0.0665 -0.1090
 6137TIP3    H139826   2.836   5.989  16.027  1.7761 -0.3456 -0.6041
 6137TIP3    H239827   2.896   6.048  16.154 -0.3394  0.3194  0.1391
 6138TIP3   OH239828   3.105   2.596   3.432 -0.1238 -0.1924 -0.4146
 6138TIP3    H139829   3.105   2.592   3.336  1.5200  0.3284 -0.4667
 6138TIP3    H239830   3.183   2.646   3.454  0.2897 -1.4767  1.2481
 6139TIP3   OH239831   2.720   3.930  16.102  0.1750 -0.0540 -0.3049
 6139TIP3    H139832   2.768   3.999  16.055 -2.1110  0.5106 -2.0365
 6139TIP3    H239833   2.648   3.976  16.145  1.6548 -0.7032  3.2159
 6140TIP3   OH239834   3.611   2.741  11.740 -0.2838  0.0599  0.0966
 6140TIP3    H139835   3.539   2.797  11.771 -0.6137 -0.9897  1.3271
 6140TIP3    H239836   3.690   2.788  11.762 -0.4653 -0.9917  3.4937
 6141TIP3   OH239837   2.683   6.248  13.719  0.1544  0.8433  0.2830
 6141TIP3    H139838   2.648   6.229  13.806 -0.7137 -0.8955 -0.3965
 6141TIP3    H239839   2.769   6.286  13.736 -0.7565  2.2981  1.9228
 6142TIP3   OH239840   1.088   0.235   0.306 -0.0077 -0.0273 -0.4457
 6142TIP3    H139841   1.036   0.311   0.279 -0.6986 -0.7480 -1.2216
 6142TIP3    H239842   1.026   0.180   0.353  0.8242  0.4903  1.3292
 6143TIP3   OH239843   2.103   4.461  16.963 -0.3533 -0.4371 -0.4713
 6143TIP3    H139844   2.170   4.508  16.913 -0.8994 -0.5627 -1.3526
 6143TIP3    H239845   2.130   4.370  16.959 -0.2726 -0.4188 -0.3375
 6144TIP3   OH239846   2.665   0.815   0.453  0.0985 -0.7318  0.0570
 6144TIP3    H139847   2.620   0.870   0.517 -0.2906 -3.2652  2.1714
 6144TIP3    H239848   2.601   0.748   0.430  0.2855  0.0301 -2.9996
 6145TIP3   OH239849   2.781   0.194  14.058 -0.5425  0.5738  1.1105
 6145TIP3    H139850   2.710   0.199  13.994 -0.1263  0.1157  0.6117
 6145TIP3    H239851   2.815   0.283  14.063 -1.3537  0.8753  1.5952
 6146TIP3   OH239852   0.816   3.787   3.037  0.6966 -0.2368  0.0891
 6146TIP3    H139853   0.880   3.790   2.965  1.4306  0.4447  0.7482
 6146TIP3    H239854   0.793   3.695   3.044  1.7444 -0.5289 -0.0602
 6147TIP3   OH239855   0.249   3.990  14.302 -0.0486 -0.5287 -0.5028
 6147TIP3    H139856   0.297   3.942  14.369 -1.3474 -0.0221  0.8509
 6147TIP3    H239857   0.216   4.068  14.347  0.0149  0.4301 -2.0407
 6148TIP3   OH239858   2.882   5.562   3.490 -0.2742 -0.0250 -0.4226
 6148TIP3    H139859   2.846   5.651   3.486  0.0205  0.1615  0.7732
 6148TIP3    H239860   2.901   5.548   3.582  1.5517 -0.5861 -0.8406
 6149TIP3   OH239861   2.698   1.981   0.545 -0.0473  0.0088 -0.3129
 6149TIP3    H139862   2.648   1.988   0.626  3.1382 -0.4534  1.8769
 6149TIP3    H239863   2.744   2.065   0.538  1.6851 -0.8930 -0.1689
 6150TIP3   OH239864   4.986   6.567  11.894 -0.0972  0.6388 -0.3169
 6150TIP3    H139865   4.952   6.637  11.950  0.2380 -0.2948  1.1047
 6150TIP3    H239866   4.966   6.487  11.941  1.4215 -0.1102 -0.8638
 6151TIP3   OH239867   3.489   1.508   0.740 -0.9695 -0.4033  0.5153
 6151TIP3    H139868   3.412   1.565   0.743  0.5083  1.9076 -1.1981
 6151TIP3    H239869   3.483   1.464   0.655 -0.1243  0.3051  0.0684
 6152TIP3   OH239870   4.315   5.904   0.248  0.1036  0.4391 -0.5289
 6152TIP3    H139871   4.336   5.975   0.188  0.3137  0.3593 -0.5531
 6152TIP3    H239872   4.353   5.826   0.207  1.8850  0.6606  0.5785
 6153TIP3   OH239873   4.233   6.597   0.322  0.2988  0.4471 -0.5372
 6153TIP3    H139874   4.189   6.682   0.336  0.7754  0.4921  0.9112
 6153TIP3    H239875   4.190   6.538   0.385  2.3434  0.5261  1.0393
 6154TIP3   OH239876   1.832   2.888  13.147  0.5609  0.2960 -0.6954
 6154TIP3    H139877   1.829   2.793  13.163  1.5936  0.3261 -0.3019
 6154TIP3    H239878   1.806   2.928  13.230  2.0858  0.3807 -0.2382
 6155TIP3   OH239879   3.012   5.566  16.249 -0.6134 -0.9001  0.0174
 6155TIP3    H139880   2.993   5.474  16.270 -2.7973  0.1081  3.2497
 6155TIP3    H239881   3.053   5.600  16.328  0.7860  0.8181 -1.3612
 6156TIP3   OH239882   4.769   2.479   1.906  0.0200 -0.4492  0.0252
 6156TIP3    H139883   4.842   2.460   1.965  1.3416 -0.6131 -1.6050
 6156TIP3    H239884   4.769   2.406   1.843 -1.1070 -0.0845 -0.4286
 6157TIP3   OH239885   4.611   6.383   1.053 -0.4983  0.0810 -0.1348
 6157TIP3    H139886   4.618   6.453   1.118  1.6875 -0.4241  0.2539
 6157TIP3    H239887   4.660   6.310   1.091 -1.1456 -1.0457 -1.3555
 6158TIP3   OH239888   0.975   4.024   4.103  0.4278  0.0430 -0.3376
 6158TIP3    H139889   1.045   3.978   4.059  0.5609 -1.2326  1.1305
 6158TIP3    H239890   0.908   3.957   4.120 -0.0031  0.6751  0.5700
 6159TIP3   OH239891   0.317   2.351  14.123 -0.2775 -0.3682 -0.2154
 6159TIP3    H139892   0.397   2.326  14.168  0.1714 -0.5980 -1.1191
 6159TIP3    H239893   0.346   2.401  14.047 -1.0818  1.2662  0.4967
 6160TIP3   OH239894   0.510   3.262  13.666  0.2283  0.1609  0.3391
 6160TIP3    H139895   0.416   3.279  13.660  0.0050 -0.9312  0.5112
 6160TIP3    H239896   0.548   3.311  13.594 -0.7303 -1.1159 -1.0912
 6161TIP3   OH239897   0.544   1.631  13.807 -0.1674  0.0886  0.0086
 6161TIP3    H139898   0.572   1.722  13.808  3.4960 -0.8703  0.2955
 6161TIP3    H239899   0.462   1.630  13.857  1.0612  2.8518  2.3813
 6162TIP3   OH239900   2.347   1.004  14.770 -0.6695 -1.0093  0.1031
 6162TIP3    H139901   2.342   0.936  14.703 -1.5477 -0.2170 -0.6680
 6162TIP3    H239902   2.441   1.015  14.785 -0.5194 -3.1344  1.0587
 6163TIP3   OH239903   3.141   2.657   4.444 -0.1685  0.3899  0.3349
 6163TIP3    H139904   3.167   2.715   4.515 -1.4349  1.3064  0.0829
 6163TIP3    H239905   3.067   2.702   4.402  0.4862 -0.1648 -1.5034
 6164TIP3   OH239906   0.964   6.532   4.878 -0.0729  0.2188 -0.0953
 6164TIP3    H139907   1.007   6.557   4.797 -0.1744  1.8242  0.3214
 6164TIP3    H239908   1.029   6.476   4.923 -0.4180 -1.5588 -1.6870
 6165TIP3   OH239909   6.596   0.130   2.058  0.1082 -0.1559 -0.0946
 6165TIP3    H139910   6.538   0.073   2.109  0.1890 -0.8701 -0.7895
 6165TIP3    H239911   6.666   0.072   2.029  0.9635  0.6030  0.3795
 6166TIP3   OH239912   2.731   0.580   0.235 -0.0424  0.3205 -0.0957
 6166TIP3    H139913   2.823   0.604   0.249 -0.0853  1.0414 -0.9445
 6166TIP3    H239914   2.720   0.583   0.140 -0.3552 -2.0609 -0.1957
 6167TIP3   OH239915   4.085   5.807   5.203  0.4327 -0.2759  0.2695
 6167TIP3    H139916   4.148   5.750   5.245  2.7861  1.0080 -1.2984
 6167TIP3    H239917   4.108   5.895   5.232 -0.5993  0.2285 -0.3643
 6168TIP3   OH239918   3.344   5.914  16.902 -0.1125  0.1508  0.9654
 6168TIP3    H139919   3.368   5.884  16.814 -1.4839  1.7368 -0.0094
 6168TIP3    H239920   3.303   5.838  16.943  0.9584 -0.7517  0.4202
 6169TIP3   OH239921   1.193   3.704  16.229 -0.5013  0.2940  0.0143
 6169TIP3    H139922   1.277   3.672  16.195 -1.2982 -1.5697 -0.3555
 6169TIP3    H239923   1.208   3.716  16.322 -0.1390 -1.3023  0.1873
 6170TIP3   OH239924   1.145   1.020  13.651  0.4721  0.0470 -0.4404
 6170TIP3    H139925   1.224   1.031  13.703  0.3569  1.0062 -0.4498
 6170TIP3    H239926   1.076   1.064  13.701 -0.2297 -1.4015 -0.0723
 6171TIP3   OH239927   4.787   5.475   5.855  1.0256  0.0228  0.0809
 6171TIP3    H139928   4.798   5.455   5.948 -0.2210  0.5692  0.3586
 6171TIP3    H239929   4.739   5.400   5.821 -1.6478  1.3740  0.6515
 6172TIP3   OH239930   1.486   0.904  12.700  0.5712 -0.1638 -0.0817
 6172TIP3    H139931   1.462   0.812  12.687 -0.5026 -0.1597  1.6251
 6172TIP3    H239932   1.437   0.951  12.633  0.4720 -0.7487 -0.4317
 6173TIP3   OH239933   4.237   2.317   5.225 -0.1989 -0.2586  0.2719
 6173TIP3    H139934   4.228   2.394   5.170 -0.6908 -1.3222 -1.2105
 6173TIP3    H239935   4.185   2.336   5.303 -0.5267  0.7908 -0.1938
 6174TIP3   OH239936   1.367   2.077   0.310 -0.1043 -0.7593 -0.0300
 6174TIP3    H139937   1.363   2.055   0.217 -0.0219 -0.5953 -0.0722
 6174TIP3    H239938   1.302   2.146   0.322  1.1549  0.5078 -0.3289
 6175TIP3   OH239939   0.384   5.788   3.730 -0.3062  0.4414 -0.8353
 6175TIP3    H139940   0.370   5.694   3.737 -2.8601  0.6847 -1.6553
 6175TIP3    H239941   0.386   5.820   3.820  1.3960 -0.4405 -0.5193
 6176TIP3   OH239942   5.614   2.353   4.855 -0.2355  0.0711 -0.1441
 6176TIP3    H139943   5.539   2.305   4.818 -0.7799 -0.5015  1.5828
 6176TIP3    H239944   5.665   2.285   4.900  0.5186  0.6951 -0.0477
 6177TIP3   OH239945   6.404   1.537   2.920  0.0147  0.0141 -0.1854
 6177TIP3    H139946   6.439   1.453   2.952  0.3633  0.1168 -0.2863
 6177TIP3    H239947   6.474   1.600   2.937 -0.9305  0.6572  1.5516
 6178TIP3   OH239948   6.321   3.202  16.198 -0.1353  0.7332  0.0186
 6178TIP3    H139949   6.282   3.231  16.281 -1.9990 -2.3830  0.3776
 6178TIP3    H239950   6.380   3.131  16.222 -1.3491 -0.8122 -1.3144
 6179TIP3   OH239951   1.062   5.280   0.071 -0.1882 -0.4387 -0.3867
 6179TIP3    H139952   1.126   5.215   0.102 -0.3364 -0.3060  0.2049
 6179TIP3    H239953   1.116   5.353   0.039 -0.0312  0.3004  1.4568
 6180TIP3   OH239954   5.798   5.037  12.951  0.4248  0.2440 -0.1504
 6180TIP3    H139955   5.847   5.038  13.033 -0.7195 -0.1434  0.5641
 6180TIP3    H239956   5.836   5.108  12.899  1.0477  0.6152  0.7907
 6181TIP3   OH239957   2.525   3.364   4.647  0.5942 -0.4619  0.1913
 6181TIP3    H139958   2.607   3.399   4.612  1.0023 -2.2268 -0.7407
 6181TIP3    H239959   2.552   3.302   4.715  0.0218 -0.7149  0.1958
 6182TIP3   OH239960   4.043   3.506   4.192 -0.2359  0.2465  0.2765
 6182TIP3    H139961   4.065   3.598   4.209 -0.9065  0.4020  0.3042
 6182TIP3    H239962   3.963   3.490   4.241 -1.1424  0.1589 -1.1593
 6183TIP3   OH239963   1.200   0.718   4.784 -0.1497  0.0184 -0.0211
 6183TIP3    H139964   1.131   0.652   4.795  0.1522 -0.3503 -0.3089
 6183TIP3    H239965   1.216   0.719   4.689  2.5991 -2.3427  0.3016
 6184TIP3   OH239966   1.960   5.846   4.412 -0.4013 -0.1805 -0.2469
 6184TIP3    H139967   1.985   5.938   4.400 -0.5099 -0.1282 -0.0809
 6184TIP3    H239968   2.033   5.807   4.458  0.5521 -0.6649 -2.0729
 6185TIP3   OH239969   6.085   1.414  15.889 -0.4968 -0.3398 -0.5587
 6185TIP3    H139970   6.009   1.405  15.831 -0.0975  1.2609 -1.4014
 6185TIP3    H239971   6.077   1.503  15.923  1.9173  0.5485 -2.0611
 6186TIP3   OH239972   3.707   0.138  14.876 -0.4472 -0.3605  0.1626
 6186TIP3    H139973   3.628   0.084  14.877 -2.1289  1.9585  0.3908
 6186TIP3    H239974   3.682   0.219  14.921  1.3823  1.3255 -1.6343
 6187TIP3   OH239975   5.915   2.602  14.136  0.0162  0.1714 -0.5556
 6187TIP3    H139976   5.845   2.543  14.161  0.3934 -0.3478 -0.6910
 6187TIP3    H239977   5.912   2.604  14.040  0.5548 -0.3268 -0.5914
 6188TIP3   OH239978   4.966   3.764  11.949  0.1110 -0.8195  0.4105
 6188TIP3    H139979   4.933   3.736  12.035 -1.1364  0.3990  0.3675
 6188TIP3    H239980   4.939   3.694  11.890  2.0323 -2.2752  1.1406
 6189TIP3   OH239981   5.686   4.621  14.009  0.1546  0.2465 -0.5636
 6189TIP3    H139982   5.707   4.662  14.094  1.1530 -1.5596  0.1199
 6189TIP3    H239983   5.681   4.528  14.029  1.2851 -0.3106 -2.6516
 6190TIP3   OH239984   6.543   1.823  15.486  0.4718  0.2262  0.3116
 6190TIP3    H139985   6.619   1.878  15.469 -0.0723  1.3662  1.4344
 6190TIP3    H239986   6.472   1.884  15.505 -0.7210 -0.8114 -0.5968
 6191TIP3   OH239987   2.981   2.994  13.507  0.2308 -0.0734 -0.5778
 6191TIP3    H139988   2.971   2.999  13.411 -0.5848  0.4744 -0.4757
 6191TIP3    H239989   3.072   3.017  13.523 -0.2731  2.6864 -1.0541
 6192TIP3   OH239990   4.512   0.871   1.813 -0.4626  0.5151  0.1581
 6192TIP3    H139991   4.605   0.853   1.818 -0.4813  0.0641 -0.9886
 6192TIP3    H239992   4.473   0.815   1.881  0.0779  0.5428  0.4890
 6193TIP3   OH239993   1.597   6.390   2.364  0.0289  0.0735 -0.1123
 6193TIP3    H139994   1.688   6.405   2.340  0.0888 -0.0861  0.0125
 6193TIP3    H239995   1.546   6.441   2.301  0.1911 -0.1907 -0.4619
 6194TIP3   OH239996   4.142   6.769  13.827 -0.2044 -0.2505 -0.7880
 6194TIP3    H139997   4.087   6.846  13.835  0.0630 -0.1915  0.8462
 6194TIP3    H239998   4.193   6.767  13.908  1.7137 -0.6803 -1.9306
 6195TIP3   OH239999   1.778   2.003  17.070  0.3789 -0.0417 -0.4394
 6195TIP3    H140000   1.839   2.075  17.084  1.3119 -0.6701 -1.1843
 6195TIP3    H240001   1.802   1.939  17.137 -1.2449  0.7869  1.0379
 6196TIP3   OH240002   3.445   2.197   5.967  1.2905 -0.3464 -0.0824
 6196TIP3    H140003   3.514   2.142   5.932  0.1664 -0.9531 -1.4522
 6196TIP3    H240004   3.376   2.135   5.992  0.2881  0.3571 -0.9976
 6197TIP3   OH240005   4.035   1.357  15.067 -0.6200  0.1299 -0.6837
 6197TIP3    H140006   4.110   1.299  15.077 -0.8559  0.2453  4.1560
 6197TIP3    H240007   4.072   1.438  15.033  1.4722  0.0991  1.3053
 6198TIP3   OH240008   3.076   6.300   5.542  0.2479  0.2224  0.0786
 6198TIP3    H140009   3.076   6.339   5.455  1.2807 -0.1232 -0.0902
 6198TIP3    H240010   3.062   6.207   5.528 -2.1458  0.4538  0.4812
 6199TIP3   OH240011   1.098   1.392   2.018  0.2668  0.7147 -0.3287
 6199TIP3    H140012   1.156   1.437   2.078  0.9413 -0.4043 -0.1124
 6199TIP3    H240013   1.016   1.442   2.021  0.9267  1.7909  0.0325
 6200TIP3   OH240014   5.911   0.227  16.535 -0.3168 -0.1397 -0.3953
 6200TIP3    H140015   5.983   0.290  16.537  0.4456 -0.9472 -1.1939
 6200TIP3    H240016   5.907   0.198  16.443 -0.9269 -0.9226 -0.1383
 6201TIP3   OH240017   2.472   3.669  13.529 -0.3137  0.2754 -0.0943
 6201TIP3    H140018   2.522   3.696  13.607 -0.2937  0.4072 -0.1533
 6201TIP3    H240019   2.391   3.720  13.534 -1.2591 -1.2254  0.9754
 6202TIP3   OH240020   3.238   1.387   0.305 -0.5659  0.0933  0.0120
 6202TIP3    H140021   3.194   1.382   0.220 -1.0308  0.5161  0.2142
 6202TIP3    H240022   3.245   1.481   0.322 -2.2977  0.0453  1.3314
 6203TIP3   OH240023   5.964   2.533  13.178 -0.1760  0.6920 -0.4406
 6203TIP3    H140024   5.930   2.540  13.267 -0.8256 -0.1661 -0.6068
 6203TIP3    H240025   5.887   2.543  13.122 -0.0090 -0.2783 -0.8574
 6204TIP3   OH240026   4.056   4.674   1.187  0.4898 -0.3171 -0.1990
 6204TIP3    H140027   4.073   4.588   1.225  0.7612  0.0740  0.5863
 6204TIP3    H240028   4.013   4.723   1.257  0.0994  0.1052 -0.7286
 6205TIP3   OH240029   3.461   5.472   5.715  0.0564 -0.0732  0.5907
 6205TIP3    H140030   3.377   5.515   5.697 -0.3685 -1.0366  0.1641
 6205TIP3    H240031   3.436   5.387   5.752  0.8505 -0.3064  0.6036
 6206TIP3   OH240032   4.009   5.927   0.324 -0.5525 -0.0686 -0.1236
 6206TIP3    H140033   3.918   5.914   0.350 -0.8897 -2.2606 -2.1036
 6206TIP3    H240034   4.060   5.895   0.398 -1.3136  1.3871  1.1022
 6207TIP3   OH240035   5.504   3.585   2.329 -0.2435 -0.1258  0.0581
 6207TIP3    H140036   5.562   3.652   2.365 -2.0277  0.2668  2.4101
 6207TIP3    H240037   5.554   3.504   2.334  0.8869  0.5497 -0.0715
 6208TIP3   OH240038   3.368   5.885   5.796 -0.2653 -0.2292  0.2802
 6208TIP3    H140039   3.380   5.954   5.861 -1.3413 -1.8267  2.2906
 6208TIP3    H240040   3.358   5.805   5.847 -2.3562 -1.4107 -1.7813
 6209TIP3   OH240041   1.377   3.338   3.747 -0.2957 -0.4956 -0.0906
 6209TIP3    H140042   1.427   3.403   3.698 -1.4271  1.6225  1.3959
 6209TIP3    H240043   1.322   3.294   3.682  0.5034  0.0213 -1.1339
 6210TIP3   OH240044   1.121   2.643   3.080  0.1631  0.2948  0.0099
 6210TIP3    H140045   1.142   2.701   3.006  0.9195 -0.9312 -0.7682
 6210TIP3    H240046   1.045   2.592   3.051  1.7434 -1.7055 -0.8388
 6211TIP3   OH240047   1.871   0.212  13.848  0.4167 -0.1656  0.7072
 6211TIP3    H140048   1.825   0.190  13.930  0.1564 -0.8217  0.3932
 6211TIP3    H240049   1.956   0.169  13.856  1.6043  2.2182  1.9112
 6212TIP3   OH240050   3.860   4.329   2.824 -0.3441 -0.7697 -0.1174
 6212TIP3    H140051   3.850   4.284   2.908 -1.6063  0.5534  0.4757
 6212TIP3    H240052   3.826   4.266   2.760 -2.2439 -0.6738  0.7094
 6213TIP3   OH240053   2.886   4.783   4.190  0.5408 -0.1433 -0.6949
 6213TIP3    H140054   2.900   4.875   4.213 -1.1632 -0.2151  0.9364
 6213TIP3    H240055   2.924   4.734   4.264 -0.9728 -0.5889 -0.1573
 6214TIP3   OH240056   3.155   0.528  14.889 -0.1366 -0.2293  0.2196
 6214TIP3    H140057   3.165   0.475  14.810  0.6424  0.9864 -0.5276
 6214TIP3    H240058   3.073   0.575  14.876  0.8454  1.2959 -0.7128
 6215TIP3   OH240059   6.414   2.164  14.384 -0.3059 -0.2212 -0.0391
 6215TIP3    H140060   6.495   2.208  14.359  0.6413 -1.7744  0.1315
 6215TIP3    H240061   6.350   2.194  14.320  0.6453  0.3063 -0.7804
 6216TIP3   OH240062   4.932   5.414  14.747 -0.9295  0.1667 -0.3838
 6216TIP3    H140063   4.999   5.404  14.815  0.6415  0.9357 -1.7216
 6216TIP3    H240064   4.849   5.403  14.792  0.1060 -1.9753  1.1835
 6217TIP3   OH240065   5.094   6.294  15.113 -0.0465 -0.3411 -0.1109
 6217TIP3    H140066   5.037   6.291  15.189  1.7419  1.6959  1.4343
 6217TIP3    H240067   5.069   6.374  15.067  0.1790 -0.5373 -0.5857
 6218TIP3   OH240068   3.179   6.477   2.469 -0.7582  0.2107  0.0875
 6218TIP3    H140069   3.086   6.454   2.477 -0.4473 -0.7421  1.2114
 6218TIP3    H240070   3.181   6.572   2.480 -1.6643  0.3345 -0.6661
 6219TIP3   OH240071   1.589   1.181   4.060  0.2530  0.1604 -0.2548
 6219TIP3    H140072   1.541   1.263   4.045 -1.6592 -1.0813 -1.2823
 6219TIP3    H240073   1.561   1.123   3.990  0.3775 -1.8871  1.2950
 6220TIP3   OH240074   4.662   1.669  12.661 -0.3699 -0.2808  0.0328
 6220TIP3    H140075   4.637   1.698  12.749 -3.5640  1.9119 -1.3866
 6220TIP3    H240076   4.630   1.579  12.656 -1.0367 -0.1085  0.8418
 6221TIP3   OH240077   1.414   4.161   2.704  0.0328  0.0338 -0.1635
 6221TIP3    H140078   1.350   4.097   2.735 -0.7945  0.1426 -1.5517
 6221TIP3    H240079   1.444   4.126   2.620  2.6834 -0.5895  0.9523
 6222TIP3   OH240080   0.920   3.222  11.220  0.5380  0.2028  0.1763
 6222TIP3    H140081   0.884   3.198  11.134  2.2863  1.5899 -1.0228
 6222TIP3    H240082   1.004   3.264  11.200  0.2664  2.0615  2.4550
 6223TIP3   OH240083   1.271   3.066  13.216 -0.8592  0.0931 -0.1676
 6223TIP3    H140084   1.222   3.080  13.135 -1.2778  0.5749  0.1659
 6223TIP3    H240085   1.352   3.024  13.188 -0.7768  0.7147 -0.8891
 6224TIP3   OH240086   4.085   4.851  16.203  0.4778  0.2815 -0.3071
 6224TIP3    H140087   4.063   4.817  16.290  0.0809  1.6270  0.1442
 6224TIP3    H240088   4.148   4.788  16.168 -0.7448 -1.2950  0.1865
 6225TIP3   OH240089   0.966   3.890   1.460  0.0490  0.2732 -0.3198
 6225TIP3    H140090   1.041   3.865   1.407 -0.6521 -0.4325 -1.0086
 6225TIP3    H240091   0.947   3.813   1.514 -0.4556  0.2801 -0.4822
 6226TIP3   OH240092   4.479   1.222   0.452  0.4612 -0.3366  0.3687
 6226TIP3    H140093   4.556   1.211   0.506  0.3691  2.0434  1.1118
 6226TIP3    H240094   4.413   1.258   0.511  0.2754  2.1156 -1.1712
 6227TIP3   OH240095   2.236   4.317   2.157  0.2181  0.3525  0.4291
 6227TIP3    H140096   2.177   4.356   2.221  0.7039  0.3035  0.9176
 6227TIP3    H240097   2.202   4.345   2.072 -1.2880 -0.7494  0.6175
 6228TIP3   OH240098   4.160   3.455  12.180  0.4101  0.0834  0.2775
 6228TIP3    H140099   4.176   3.544  12.149 -0.2648  0.5070  1.0866
 6228TIP3    H240100   4.102   3.417  12.114 -0.8772  0.9181  0.8726
 6229TIP3   OH240101   4.342   6.199  15.783  0.7933  0.6105  0.1849
 6229TIP3    H140102   4.290   6.119  15.780 -0.8991  1.6632  0.5515
 6229TIP3    H240103   4.301   6.252  15.852  3.2340  0.9002  1.5303
 6230TIP3   OH240104   5.603   1.993   1.533  0.1276 -0.2930 -0.4975
 6230TIP3    H140105   5.553   1.927   1.581 -1.0202 -0.7269 -2.2177
 6230TIP3    H240106   5.604   1.963   1.443 -0.5645  2.0743 -1.3818
 6231TIP3   OH240107   3.280   3.913   2.671  0.3289  0.1979 -0.1727
 6231TIP3    H140108   3.247   3.845   2.730  1.2469  2.3456  3.1601
 6231TIP3    H240109   3.263   3.880   2.583  1.7063 -4.7429  1.1349
 6232TIP3   OH240110   3.766   5.749  13.730  0.0055 -0.3008 -0.1855
 6232TIP3    H140111   3.785   5.776  13.640  1.7747 -0.0197  0.2405
 6232TIP3    H240112   3.846   5.706  13.760 -1.1589 -1.9602  0.6946
 6233TIP3   OH240113   2.693   4.022  15.691  0.4377 -0.6355  0.6864
 6233TIP3    H140114   2.682   3.927  15.691  0.1051 -0.5986 -0.0292
 6233TIP3    H240115   2.735   4.042  15.608  0.1960 -0.1190  0.6846
 6234TIP3   OH240116   2.415   0.524  16.130 -0.3546  0.1700 -0.3281
 6234TIP3    H140117   2.335   0.528  16.183 -0.8921  0.6653 -1.1640
 6234TIP3    H240118   2.431   0.431  16.119 -1.0496  0.0588 -0.4852
 6235TIP3   OH240119   1.946   1.804   0.296  0.2443  0.3265 -0.6993
 6235TIP3    H140120   1.863   1.781   0.336  1.0618 -0.9266  0.3545
 6235TIP3    H240121   2.011   1.790   0.365  1.4688  0.1005 -1.8494
 6236TIP3   OH240122   5.280   6.203   1.974  0.2604 -0.6400 -0.0298
 6236TIP3    H140123   5.259   6.283   1.926  0.8258 -1.4813 -1.7838
 6236TIP3    H240124   5.196   6.158   1.984  0.2144 -0.7753 -0.9002
 6237TIP3   OH240125   6.052   0.509  14.447  0.2722 -0.3648 -0.0714
 6237TIP3    H140126   6.037   0.490  14.355 -2.0555 -0.4808  0.2609
 6237TIP3    H240127   6.128   0.456  14.471  0.0433 -1.4256 -1.5929
 6238TIP3   OH240128   2.936   1.278  12.565  0.3340  0.2178 -0.1861
 6238TIP3    H140129   2.971   1.225  12.637 -0.4626 -0.2897 -0.1598
 6238TIP3    H240130   2.853   1.235  12.542 -0.3551  1.4865 -0.1356
 6239TIP3   OH240131   2.772   6.571  15.192  0.1289 -0.0602  0.5470
 6239TIP3    H140132   2.764   6.476  15.185 -1.0000  0.0538  0.0403
 6239TIP3    H240133   2.791   6.587  15.284  0.8197 -0.8001  0.5458
 6240TIP3   OH240134   5.286   1.565  13.121  0.8027  0.3856  0.5471
 6240TIP3    H140135   5.307   1.498  13.056  0.2793  0.8016 -0.0624
 6240TIP3    H240136   5.206   1.534  13.163 -0.9775  1.8193 -1.5404
 6241TIP3   OH240137   6.465   2.592  13.923 -0.1030 -0.1333  0.1858
 6241TIP3    H140138   6.387   2.601  13.978  0.0306 -0.7388  0.4824
 6241TIP3    H240139   6.537   2.582  13.984  0.1368 -0.1286 -0.0921
 6242TIP3   OH240140   5.856   3.920   1.029 -0.0986  0.2818 -0.0101
 6242TIP3    H140141   5.928   3.887   1.082 -0.4947  0.7090  0.8117
 6242TIP3    H240142   5.898   3.977   0.964  0.3300  0.3056  0.2862
 6243TIP3   OH240143   0.734   6.387  11.614 -0.4469 -0.0232 -0.3590
 6243TIP3    H140144   0.654   6.339  11.593 -1.5238  0.6274  1.9560
 6243TIP3    H240145   0.713   6.479  11.598 -0.6974  0.2991  1.5558
 6244TIP3   OH240146   2.335   0.936   5.569  0.1616 -0.3660  0.7613
 6244TIP3    H140147   2.272   0.997   5.530 -0.2955 -0.8663  0.7165
 6244TIP3    H240148   2.375   0.892   5.494 -0.4223 -1.0313  0.8299
 6245TIP3   OH240149   1.988   5.126   4.556 -0.1833 -0.4849  0.2589
 6245TIP3    H140150   2.043   5.136   4.478 -0.2292 -0.1631  0.2693
 6245TIP3    H240151   1.973   5.032   4.562  1.6110 -0.7763  1.0876
 6246TIP3   OH240152   4.330   5.786  16.425  0.8502 -0.3297  0.0034
 6246TIP3    H140153   4.349   5.837  16.504  1.5762 -0.3764 -0.1295
 6246TIP3    H240154   4.305   5.851  16.360 -1.7631 -0.4397  0.8004
 6247TIP3   OH240155   4.419   6.610   1.509 -1.0279 -0.3803  0.6186
 6247TIP3    H140156   4.327   6.585   1.504 -0.7279 -1.5239  0.7115
 6247TIP3    H240157   4.464   6.533   1.544 -0.0230  0.1394  0.5171
 6248TIP3   OH240158   5.952   5.172  13.859  0.5424  0.2005  0.2700
 6248TIP3    H140159   5.901   5.152  13.780  2.2336  0.6625 -0.9863
 6248TIP3    H240160   5.952   5.268  13.863  0.9333  0.1896  0.5104
 6249TIP3   OH240161   4.052   3.063  11.059 -0.1716 -0.3295 -0.2142
 6249TIP3    H140162   4.046   2.977  11.099 -0.1964 -0.3350 -0.2300
 6249TIP3    H240163   3.998   3.119  11.114 -0.1099 -0.3121 -0.1718
 6250TIP3   OH240164   6.643   5.829  11.696  0.3143 -0.3346 -0.0525
 6250TIP3    H140165   6.675   5.842  11.607 -0.1654  0.0019 -0.1791
 6250TIP3    H240166   6.722   5.814  11.748  0.7889  1.5566 -0.1669
 6251TIP3   OH240167   1.838   5.131  14.116  0.3338 -0.1288 -0.1506
 6251TIP3    H140168   1.786   5.201  14.077  0.1858 -0.3607 -0.3755
 6251TIP3    H240169   1.840   5.063  14.049  1.7718  0.2780 -0.5506
 6252TIP3   OH240170   0.146   3.840   1.669 -0.1907  0.1833 -0.0240
 6252TIP3    H140171   0.225   3.877   1.708  1.0845  0.0055 -2.2706
 6252TIP3    H240172   0.171   3.751   1.645 -1.7097 -0.5467  0.9300
 6253TIP3   OH240173   5.384   4.712  12.547 -0.3733 -0.1610 -0.8355
 6253TIP3    H140174   5.446   4.781  12.569  0.0905 -0.9245  0.3342
 6253TIP3    H240175   5.430   4.657  12.484  0.7777 -1.5826  1.1444
 6254TIP3   OH240176   0.480   4.212  13.365 -0.0725 -0.2307 -0.0455
 6254TIP3    H140177   0.569   4.242  13.348 -0.3984  0.6665 -0.2552
 6254TIP3    H240178   0.487   4.157  13.443  0.5346  0.5889  0.4934
 6255TIP3   OH240179   2.992   0.984   3.265 -0.2452 -0.6930 -0.1625
 6255TIP3    H140180   3.054   0.963   3.335  1.8556  2.1537 -0.9842
 6255TIP3    H240181   2.937   1.053   3.301 -0.1529 -0.2733 -0.8149
 6256TIP3   OH240182   1.207   1.675  14.434 -0.9374 -0.1622 -0.3260
 6256TIP3    H140183   1.252   1.676  14.350 -2.3918  2.3777 -1.2049
 6256TIP3    H240184   1.132   1.617  14.421 -0.8363 -0.2314 -0.5985
 6257TIP3   OH240185   2.725   4.823   0.682 -0.1663  0.0890  0.1785
 6257TIP3    H140186   2.716   4.782   0.768  0.5066  1.7030  1.0512
 6257TIP3    H240187   2.759   4.753   0.626 -0.9556 -1.0828  1.1115
 6258TIP3   OH240188   0.681   1.136  15.758  0.3148  0.2595 -0.1574
 6258TIP3    H140189   0.685   1.128  15.853  1.5871  1.2524 -0.1147
 6258TIP3    H240190   0.603   1.189  15.742 -1.1213 -1.6379  0.1812
 6259TIP3   OH240191   0.720   6.434  12.041 -0.0867 -0.0370  0.7347
 6259TIP3    H140192   0.759   6.360  11.994  1.4539 -0.1926  2.1530
 6259TIP3    H240193   0.794   6.493  12.057 -0.8818  0.7725  1.5224
 6260TIP3   OH240194   1.518   4.404   5.211 -0.1607 -0.2772  0.0149
 6260TIP3    H140195   1.489   4.486   5.171  0.3941 -0.4600 -0.7963
 6260TIP3    H240196   1.613   4.402   5.195 -0.1614 -1.0454  0.0745
 6261TIP3   OH240197   2.363   3.783   5.404 -0.5862  0.4508  0.3927
 6261TIP3    H140198   2.290   3.749   5.352 -2.1589  1.0670  2.0905
 6261TIP3    H240199   2.339   3.765   5.495  2.4535 -1.3821  0.9936
 6262TIP3   OH240200   3.264   3.744  16.831 -0.0241  0.5963  0.2057
 6262TIP3    H140201   3.328   3.707  16.892 -0.5774  0.4079  0.6858
 6262TIP3    H240202   3.209   3.669  16.807  0.3152  0.6248 -0.6939
 6263TIP3   OH240203   3.514   3.780  14.066  0.0901 -0.1972  0.2429
 6263TIP3    H140204   3.514   3.845  14.136  0.9122  1.6552 -1.3700
 6263TIP3    H240205   3.579   3.715  14.094  0.9234  0.8837  0.8964
 6264TIP3   OH240206   1.260   2.602  13.011 -0.7023 -0.1463  0.4801
 6264TIP3    H140207   1.175   2.597  12.966  0.2312  0.1822 -1.4211
 6264TIP3    H240208   1.319   2.550  12.956  0.5296  0.3071  1.3297
 6265TIP3   OH240209   1.983   2.495  14.808 -0.2807  0.0517 -0.2714
 6265TIP3    H140210   2.008   2.538  14.889  1.0255 -3.7653  1.5919
 6265TIP3    H240211   1.898   2.532  14.786 -1.2549  0.4285  3.5453
 6266TIP3   OH240212   6.157   1.680   6.095  0.4939 -0.2712 -0.2962
 6266TIP3    H140213   6.083   1.677   6.156  0.2452  0.9695 -0.4958
 6266TIP3    H240214   6.214   1.609   6.123 -1.5185 -2.3586 -1.1556
 6267TIP3   OH240215   6.543   3.334  16.417  0.4080 -0.9388 -0.3220
 6267TIP3    H140216   6.608   3.381  16.470 -0.9145 -0.7998  1.2118
 6267TIP3    H240217   6.461   3.345  16.464 -0.4649 -2.4095 -1.4442
 6268TIP3   OH240218   4.375   3.750  13.976 -0.1440  0.3139  0.1873
 6268TIP3    H140219   4.338   3.810  13.910 -0.0977  0.2467  0.1000
 6268TIP3    H240220   4.469   3.768  13.975 -0.4222  2.2464  2.1711
 6269TIP3   OH240221   3.594   1.872  14.250 -0.4220 -0.9998 -0.1414
 6269TIP3    H140222   3.572   1.783  14.278 -0.9219 -0.5253  1.0558
 6269TIP3    H240223   3.624   1.916  14.329 -2.5081  0.5914 -0.1382
 6270TIP3   OH240224   5.264   5.984  13.388  0.4130 -0.3106  0.3185
 6270TIP3    H140225   5.177   5.950  13.407 -0.0182 -0.0282 -1.0625
 6270TIP3    H240226   5.302   5.922  13.327 -0.1839  1.2901 -1.8162
 6271TIP3   OH240227   4.486   1.779   2.247  0.3909 -0.1777 -0.3162
 6271TIP3    H140228   4.454   1.820   2.327 -0.3321 -1.4816  0.0837
 6271TIP3    H240229   4.408   1.766   2.193  0.3157 -2.4889  0.2552
 6272TIP3   OH240230   5.563   2.528  16.128  0.2181  0.3681  1.1207
 6272TIP3    H140231   5.588   2.480  16.049  0.1444  0.5597  0.9789
 6272TIP3    H240232   5.644   2.566  16.160  0.3037  0.0114  1.3248
 6273TIP3   OH240233   6.655   2.931   5.027  0.1768 -0.4774  0.4000
 6273TIP3    H140234   6.724   2.907   5.088  0.9142 -1.0769 -0.6299
 6273TIP3    H240235   6.675   3.022   5.004  1.1463 -0.8900 -0.5111
 6274TIP3   OH240236   6.311   3.294   6.812 -0.2823 -0.0831  0.5776
 6274TIP3    H140237   6.263   3.358   6.760  0.8772 -0.4816 -1.0584
 6274TIP3    H240238   6.387   3.342   6.847  0.8799 -0.6221 -1.0878
 6275TIP3   OH240239   6.315   3.575   4.645  0.2576  0.5245  0.2725
 6275TIP3    H140240   6.373   3.619   4.583 -0.2268 -0.9339 -1.2784
 6275TIP3    H240241   6.269   3.646   4.690  0.3235  1.6255 -1.3328
 6276TIP3   OH240242   1.518   2.726  13.304 -0.0384  0.1457 -0.4512
 6276TIP3    H140243   1.487   2.763  13.222  0.0479 -0.0974 -0.5963
 6276TIP3    H240244   1.514   2.798  13.367  2.6237  1.1603 -1.3027
 6277TIP3   OH240245   4.463   3.561  12.467  0.3396 -0.2132 -0.0310
 6277TIP3    H140246   4.452   3.505  12.544  0.7686 -1.9912 -1.1886
 6277TIP3    H240247   4.555   3.548  12.441  0.6408  1.5548  0.0105
 6278TIP3   OH240248   5.191   1.693  13.611 -0.0499  0.7912 -0.3595
 6278TIP3    H140249   5.220   1.773  13.567  2.1223 -0.5568 -1.5519
 6278TIP3    H240250   5.263   1.670  13.670 -1.1880  0.3635  0.9218
 6279TIP3   OH240251   6.345   4.571   5.453  0.3254 -0.0113  0.2392
 6279TIP3    H140252   6.366   4.641   5.392 -0.1299 -0.9547 -1.0388
 6279TIP3    H240253   6.286   4.612   5.517 -0.4500  0.6293 -0.8550
 6280TIP3   OH240254   3.907   3.144   1.408  0.1868 -0.1929 -0.2143
 6280TIP3    H140255   3.844   3.211   1.435  1.6926  1.4483 -0.6165
 6280TIP3    H240256   3.970   3.140   1.480  0.5380 -0.6399 -0.5405
 6281TIP3   OH240257   4.812   4.339  12.943  0.1125  0.0506  0.1216
 6281TIP3    H140258   4.720   4.319  12.926  0.2510  0.0429 -0.6207
 6281TIP3    H240259   4.817   4.434  12.940  0.2874  0.0214 -0.6940
 6282TIP3   OH240260   0.665   6.237  14.551  0.0508  0.6581  0.6996
 6282TIP3    H140261   0.643   6.241  14.458  1.7718 -1.6249  0.1192
 6282TIP3    H240262   0.724   6.311  14.565  0.7291  0.3348 -0.3340
 6283TIP3   OH240263   1.367   3.486  11.049  0.4315 -0.1711 -0.3540
 6283TIP3    H140264   1.342   3.577  11.067  2.5154  0.6664 -1.4037
 6283TIP3    H240265   1.301   3.434  11.095  0.0116  1.8441  1.4857
 6284TIP3   OH240266   6.668   6.199  14.660 -0.6409  0.2291  0.2995
 6284TIP3    H140267   6.686   6.285  14.624 -1.1771 -0.5027 -1.8989
 6284TIP3    H240268   6.572   6.195  14.667 -0.6424 -0.2564  0.1195
 6285TIP3   OH240269   0.589   3.481  14.091 -0.0775  0.1192 -0.0720
 6285TIP3    H140270   0.516   3.493  14.151  1.0149  0.5192  1.2310
 6285TIP3    H240271   0.548   3.469  14.005 -1.6395  1.5723  0.4079
 6286TIP3   OH240272   5.478   3.478  11.185 -0.6184  0.1980  0.0863
 6286TIP3    H140273   5.443   3.431  11.109 -0.1136  3.2989 -2.2449
 6286TIP3    H240274   5.401   3.495  11.240 -0.8629 -2.8592  0.8854
 6287TIP3   OH240275   5.731   3.336  11.820 -0.7194 -0.4879 -0.9052
 6287TIP3    H140276   5.795   3.390  11.866  0.0012 -1.4764 -0.7094
 6287TIP3    H240277   5.772   3.319  11.734 -0.5934 -1.3126 -0.6938
 6288TIP3   OH240278   1.294   2.209  16.127  0.2604 -0.5321  0.1873
 6288TIP3    H140279   1.263   2.298  16.140 -0.5355 -0.4994 -1.6387
 6288TIP3    H240280   1.344   2.212  16.045  1.5788 -1.4513  0.9229
 6289TIP3   OH240281   4.090   1.986   6.099 -0.0012  0.6994  0.0809
 6289TIP3    H140282   4.124   2.069   6.068  2.3636  0.1667  1.0150
 6289TIP3    H240283   4.147   1.920   6.060  0.4095 -0.2270  2.0852
 6290TIP3   OH240284   4.710   0.714   2.372 -0.0666  0.1468  0.6212
 6290TIP3    H140285   4.732   0.622   2.364  1.9809  0.5244  1.2677
 6290TIP3    H240286   4.751   0.755   2.296 -1.7536  0.4278 -0.1703
 6291TIP3   OH240287   0.313   6.776   1.839 -0.3425 -0.2676  0.2162
 6291TIP3    H140288   0.334   6.691   1.877  1.1663  0.0170  0.0935
 6291TIP3    H240289   0.391   6.800   1.788 -0.5500  1.3836  0.6073
 6292TIP3   OH240290   1.694   0.694  12.844  0.3058 -0.4630 -0.1584
 6292TIP3    H140291   1.680   0.646  12.763  0.2286  0.4617 -0.7028
 6292TIP3    H240292   1.766   0.648  12.888  0.3622 -0.9513 -0.7588
 6293TIP3   OH240293   3.745   3.202  11.979 -0.1182  0.3773  0.7159
 6293TIP3    H140294   3.768   3.200  11.886 -2.6634  2.4770 -0.0822
 6293TIP3    H240295   3.719   3.112  11.999 -0.3978  0.0765 -0.8678
 6294TIP3   OH240296   3.157   6.279   5.792  0.2825 -0.0808  0.0400
 6294TIP3    H140297   3.117   6.310   5.711 -0.5080 -1.5768 -0.1769
 6294TIP3    H240298   3.240   6.239   5.764  0.9274  1.0720  0.2273
 6295TIP3   OH240299   4.313   4.673  16.106  0.5548  0.7265 -0.1646
 6295TIP3    H140300   4.325   4.654  16.013 -1.0632  1.7685 -0.6176
 6295TIP3    H240301   4.388   4.728  16.129 -0.2674  2.4466 -1.4757
 6296TIP3   OH240302   0.739   3.670   5.508  0.4955 -0.1152 -0.8439
 6296TIP3    H140303   0.688   3.627   5.440  1.8497 -0.1584 -1.8562
 6296TIP3    H240304   0.773   3.749   5.466 -0.6450  1.1783  0.5173
 6297TIP3   OH240305   2.542   4.698   2.783 -0.0301 -0.2845  0.5751
 6297TIP3    H140306   2.561   4.619   2.835  1.5039  0.9837  2.0730
 6297TIP3    H240307   2.627   4.728   2.753 -0.7808 -0.3194 -1.8222
 6298TIP3   OH240308   5.480   1.687  15.313 -0.2845  0.1891 -0.4281
 6298TIP3    H140309   5.477   1.768  15.261  0.2316 -0.5111 -1.6028
 6298TIP3    H240310   5.438   1.622  15.257 -0.5378 -0.3926  0.4340
 6299TIP3   OH240311   4.450   3.685  14.467  0.0594 -0.4158 -0.1218
 6299TIP3    H140312   4.373   3.630  14.454  1.7486 -2.5979 -1.6859
 6299TIP3    H240313   4.475   3.711  14.379  1.6477 -0.5887  0.2523
 6300TIP3   OH240314   2.753   2.268  15.830  0.2753 -0.2732  0.3480
 6300TIP3    H140315   2.701   2.193  15.860 -1.3281  1.1717  1.3129
 6300TIP3    H240316   2.719   2.288  15.743  1.5632 -1.3716 -0.4657
 6301TIP3   OH240317   6.270   0.305   4.358 -0.0654 -0.3180 -0.0105
 6301TIP3    H140318   6.242   0.214   4.349 -1.9267  0.2855 -0.6636
 6301TIP3    H240319   6.363   0.299   4.380 -0.6609 -2.4508  2.4461
 6302TIP3   OH240320   0.631   3.779   2.370  0.0712 -0.3688  0.2580
 6302TIP3    H140321   0.617   3.755   2.278  0.8644 -1.2758  0.3701
 6302TIP3    H240322   0.577   3.858   2.382  3.3380  2.5540 -2.2064
 6303TIP3   OH240323   0.327   6.414   4.780 -0.0713  0.3138 -0.4203
 6303TIP3    H140324   0.289   6.453   4.859  1.3082  2.0091 -0.5404
 6303TIP3    H240325   0.292   6.467   4.708 -0.3580 -0.4528 -0.8568
 6304TIP3   OH240326   4.156   0.485  15.170  0.0078  0.1456 -0.1033
 6304TIP3    H140327   4.174   0.453  15.082 -0.8133  1.2132 -0.6867
 6304TIP3    H240328   4.061   0.473  15.181 -1.1096  5.1814 -1.6679
 6305TIP3   OH240329   3.839   5.924   2.914  0.6607 -0.3638  0.3565
 6305TIP3    H140330   3.836   5.885   3.001  0.9370 -1.8206 -0.2593
 6305TIP3    H240331   3.828   6.018   2.929  1.9690 -0.4474  2.0722
 6306TIP3   OH240332   2.340   0.335   0.976  0.0950  0.2538 -0.4797
 6306TIP3    H140333   2.371   0.244   0.972  0.3443  0.1963  1.6186
 6306TIP3    H240334   2.401   0.379   1.034 -1.8478  0.9331  1.1813
 6307TIP3   OH240335   4.860   0.246   2.301  0.2109 -0.2754  0.4427
 6307TIP3    H140336   4.828   0.336   2.300  1.2383  0.1010 -0.0561
 6307TIP3    H240337   4.946   0.251   2.344 -0.5727 -1.3423  2.2367
 6308TIP3   OH240338   0.386   6.545   1.950  0.2788 -0.0132 -0.6089
 6308TIP3    H140339   0.348   6.484   1.886 -1.7729  0.4831  0.0828
 6308TIP3    H240340   0.364   6.508   2.035  1.2553  0.3841 -0.1640
 6309TIP3   OH240341   1.196   2.435  10.918 -0.1448 -0.1202  0.1462
 6309TIP3    H140342   1.210   2.450  10.824  1.3594 -1.8696  0.0332
 6309TIP3    H240343   1.275   2.468  10.960 -0.3575 -0.2995  0.6986
 6310TIP3   OH240344   0.853   4.048   4.928 -0.4669  0.1197  0.0381
 6310TIP3    H140345   0.792   3.978   4.952  0.9927 -1.3020 -0.2149
 6310TIP3    H240346   0.938   4.017   4.961  1.0764 -0.4000 -3.9463
 6311TIP3   OH240347   0.738   4.582  11.230  0.3014 -0.1802  0.1814
 6311TIP3    H140348   0.783   4.500  11.210  1.7406  0.7355 -0.5463
 6311TIP3    H240349   0.780   4.613  11.311  0.2445  0.1594  0.0815
 6312TIP3   OH240350   4.650   5.847  16.970  0.1149  0.6235  0.2566
 6312TIP3    H140351   4.698   5.925  16.941 -2.4218  2.1829 -0.0082
 6312TIP3    H240352   4.649   5.855  17.066 -0.9477  1.4608  0.1881
 6313TIP3   OH240353   1.590   5.003   2.858 -0.3303 -0.0327 -0.4026
 6313TIP3    H140354   1.628   4.951   2.787 -0.2583 -0.7333  0.1381
 6313TIP3    H240355   1.562   4.938   2.923 -1.4644  0.5235 -0.2993
 6314TIP3   OH240356   1.516   2.384   6.359  0.1768 -0.0771 -0.3448
 6314TIP3    H140357   1.587   2.438   6.326 -0.2977 -0.0179 -1.2991
 6314TIP3    H240358   1.534   2.375   6.453  2.0577 -1.0306 -0.7690
 6315TIP3   OH240359   3.489   5.421  11.611 -0.6867 -0.3612  0.5440
 6315TIP3    H140360   3.555   5.369  11.564 -0.8526  0.9677 -1.2846
 6315TIP3    H240361   3.514   5.512  11.593 -3.8585  0.2414 -1.6480
 6316TIP3   OH240362   6.244   6.458   0.649 -0.2793 -0.4782 -0.2126
 6316TIP3    H140363   6.208   6.448   0.561 -0.0474 -0.5111 -0.3040
 6316TIP3    H240364   6.325   6.407   0.648  0.1570  0.2026 -0.2400
 6317TIP3   OH240365   3.801   5.384  10.256 -0.3033  0.1130 -0.1118
 6317TIP3    H140366   3.747   5.414  10.330 -3.0421 -2.1053 -1.0241
 6317TIP3    H240367   3.757   5.419  10.179 -0.8306 -2.1514 -0.9219
 6318TIP3   OH240368   2.959   3.633  11.620 -0.2183  0.2215 -0.3198
 6318TIP3    H140369   2.927   3.548  11.591  1.7174 -0.1543 -1.5115
 6318TIP3    H240370   2.929   3.694  11.553 -0.7145  0.3264 -0.0101
 6319TIP3   OH240371   1.225   3.077  12.911 -0.1353  0.3918  0.3069
 6319TIP3    H140372   1.149   3.029  12.880 -1.4299  1.4072  1.7615
 6319TIP3    H240373   1.300   3.024  12.883 -1.4690 -2.4499  1.6969
 6320TIP3   OH240374   2.742   3.141  13.580  0.1977 -0.3686 -0.3114
 6320TIP3    H140375   2.756   3.151  13.674 -0.7953  0.0768 -0.1911
 6320TIP3    H240376   2.804   3.074  13.553 -0.2050 -1.2374  0.8581
 6321TIP3   OH240377   6.254   2.183   0.577  0.7327  0.2003 -0.3883
 6321TIP3    H140378   6.195   2.187   0.652 -1.6077  2.1980 -2.1996
 6321TIP3    H240379   6.301   2.267   0.579  1.0494  0.0383 -0.8579
 6322TIP3   OH240380   5.548   6.298  15.325 -0.1373  0.7108 -0.2540
 6322TIP3    H140381   5.639   6.324  15.340  0.4663 -0.7744 -1.1503
 6322TIP3    H240382   5.554   6.217  15.275 -1.9802  1.6118 -2.0589
 6323TIP3   OH240383   6.529   0.890   4.951 -0.0190  0.5022 -0.0976
 6323TIP3    H140384   6.579   0.971   4.943 -1.2187  1.1811 -1.1093
 6323TIP3    H240385   6.484   0.898   5.035  0.2008  0.6916  0.0022
 6324TIP3   OH240386   6.453   3.841   3.388  0.3037 -0.0738 -0.4101
 6324TIP3    H140387   6.525   3.904   3.398  0.0276  0.0463  0.9529
 6324TIP3    H240388   6.469   3.800   3.303  1.5515  0.5009 -0.4736
 6325TIP3   OH240389   1.785   6.191   4.005 -0.0977 -0.1573 -0.1793
 6325TIP3    H140390   1.694   6.198   3.977 -0.6849 -2.4903  0.9366
 6325TIP3    H240391   1.782   6.195   4.101  0.8715 -0.8866 -0.0936
 6326TIP3   OH240392   3.764   1.443   0.817 -0.6974 -0.3370  0.0041
 6326TIP3    H140393   3.783   1.378   0.748 -1.7240 -1.1508  0.4558
 6326TIP3    H240394   3.679   1.479   0.793 -1.0253 -0.5633  0.7936
 6327TIP3   OH240395   2.175   1.067  13.530 -0.7485  0.0391  0.1039
 6327TIP3    H140396   2.128   1.150  13.532 -0.4780  0.4414 -3.5218
 6327TIP3    H240397   2.107   1.002  13.509 -0.8796 -0.6747  2.4622
 6328TIP3   OH240398   4.566   2.373  13.024 -0.1235  0.0172 -0.2068
 6328TIP3    H140399   4.487   2.427  13.032  0.9146  1.4341  1.0110
 6328TIP3    H240400   4.638   2.433  13.042  1.0792 -1.8511  1.6074
 6329TIP3   OH240401   1.178   0.857  15.078  0.1136  0.1805 -0.4799
 6329TIP3    H140402   1.153   0.777  15.032 -0.4681  0.7588 -1.2049
 6329TIP3    H240403   1.165   0.927  15.013  0.4029  0.8836  0.2032
 6330TIP3   OH240404   2.119   3.009   3.360 -0.0117  1.2322  0.0137
 6330TIP3    H140405   2.070   2.953   3.421  1.0813 -3.2762 -2.7848
 6330TIP3    H240406   2.192   3.042   3.413  0.1288 -1.3014  1.6065
 6331TIP3   OH240407   1.292   1.164  13.444  0.4168 -0.5941  0.7675
 6331TIP3    H140408   1.239   1.098  13.490  1.7340 -0.9926  1.7761
 6331TIP3    H240409   1.347   1.202  13.512  0.1911  1.0814  0.0713
 6332TIP3   OH240410   1.090   0.867  14.074 -0.2041  0.0369  0.3299
 6332TIP3    H140411   1.004   0.851  14.113 -0.8501 -0.6963 -1.3110
 6332TIP3    H240412   1.074   0.927  14.001  0.8851  0.9037  0.7591
 6333TIP3   OH240413   5.906   0.252   6.594 -0.4258 -0.0434 -0.5076
 6333TIP3    H140414   5.872   0.333   6.556 -1.2084  0.0972  0.4496
 6333TIP3    H240415   5.829   0.196   6.603 -0.0962 -0.4301 -0.0290
 6334TIP3   OH240416   2.113   6.322  13.434  0.0182 -0.0429  0.0686
 6334TIP3    H140417   2.097   6.393  13.497 -0.1092  0.5032 -0.5706
 6334TIP3    H240418   2.025   6.298  13.403  0.1686  0.6022 -0.8845
 6335TIP3   OH240419   5.039   6.586  15.572 -0.6772 -0.1181  0.4161
 6335TIP3    H140420   5.072   6.608  15.485  1.2977 -1.4259  0.7631
 6335TIP3    H240421   4.947   6.567  15.559 -0.4406 -0.2101 -1.3730
 6336TIP3   OH240422   6.589   2.252   4.015 -0.3619  0.4465 -0.4136
 6336TIP3    H140423   6.581   2.256   4.110 -2.3669 -0.1569 -0.5206
 6336TIP3    H240424   6.508   2.290   3.983 -1.0053 -1.9272 -1.8327
 6337TIP3   OH240425   1.495   2.824  14.264 -0.5097 -0.0213 -0.6624
 6337TIP3    H140426   1.463   2.788  14.181  1.4191 -0.6836 -1.1702
 6337TIP3    H240427   1.487   2.919  14.252  1.0520 -0.0303 -2.2264
 6338TIP3   OH240428   3.304   0.114  10.780 -0.0181  0.0508  0.1640
 6338TIP3    H140429   3.324   0.075  10.865  0.4438 -2.4240 -0.9892
 6338TIP3    H240430   3.382   0.099  10.727 -0.3284  1.4500 -0.7463
 6339TIP3   OH240431   6.463   3.754  12.273 -0.6580  0.1982  0.3186
 6339TIP3    H140432   6.423   3.684  12.221 -0.7530 -1.1933  2.1571
 6339TIP3    H240433   6.398   3.775  12.340 -0.2516  1.4171  0.3647
 6340TIP3   OH240434   1.686   4.244  13.710  0.5164  0.0586  0.2597
 6340TIP3    H140435   1.598   4.260  13.745 -0.4925 -0.6009 -1.7445
 6340TIP3    H240436   1.688   4.294  13.628  2.0499  0.1256  0.3237
 6341TIP3   OH240437   5.215   2.565  15.453 -0.2423  0.3343 -0.5468
 6341TIP3    H140438   5.171   2.610  15.380  0.9829  1.3445 -0.6972
 6341TIP3    H240439   5.190   2.616  15.530  0.3460  0.6749 -0.5803
 6342TIP3   OH240440   2.836   5.297   0.097 -0.1245 -0.5443  0.7114
 6342TIP3    H140441   2.865   5.364   0.035 -1.0145  0.7262  1.6266
 6342TIP3    H240442   2.900   5.227   0.088  0.8411  0.4277 -0.2787
 6343TIP3   OH240443   0.805   5.398  11.145  0.6337  0.4991 -0.1983
 6343TIP3    H140444   0.751   5.444  11.081  1.2065  0.6555 -0.5671
 6343TIP3    H240445   0.789   5.305  11.128 -1.9248  0.4683  1.6986
 6344TIP3   OH240446   4.127   2.692   2.876 -0.2944 -0.1983 -0.5700
 6344TIP3    H140447   4.042   2.652   2.861 -0.4680  0.5628 -1.7530
 6344TIP3    H240448   4.107   2.770   2.929  0.0243 -1.4840  1.5921
 6345TIP3   OH240449   5.728   2.677   5.454 -0.3777 -0.1729 -0.2470
 6345TIP3    H140450   5.718   2.736   5.380 -1.3125  0.1046  0.0875
 6345TIP3    H240451   5.800   2.619   5.429  0.7445  1.2548 -0.4697
 6346TIP3   OH240452   0.072   4.182  12.995  0.2482 -0.0285 -0.0003
 6346TIP3    H140453   0.122   4.180  12.914  0.7675 -1.1420  0.3170
 6346TIP3    H240454   0.137   4.194  13.064 -0.2125  1.1518  0.2540
 6347TIP3   OH240455   0.641   4.910  10.974 -0.8925  0.3980  0.2988
 6347TIP3    H140456   0.686   4.826  10.964 -0.4765  0.3631  2.0698
 6347TIP3    H240457   0.552   4.887  10.999 -0.4078  0.4230  2.2291
 6348TIP3   OH240458   2.293   5.914  16.351  0.0379  0.2444 -0.3699
 6348TIP3    H140459   2.361   5.850  16.328  0.5917  0.9255 -0.6754
 6348TIP3    H240460   2.299   5.981  16.283 -1.1668  0.1581 -0.5764
 6349TIP3   OH240461   1.666   3.104  14.189 -0.3552 -0.3182  0.0488
 6349TIP3    H140462   1.726   3.173  14.218 -1.7442  2.3038 -2.7448
 6349TIP3    H240463   1.587   3.117  14.241 -0.5474  0.0907 -0.3415
 6350TIP3   OH240464   1.443   6.467  14.686  0.1121 -0.2202  0.4109
 6350TIP3    H140465   1.398   6.548  14.709 -0.6623 -0.3561 -0.5805
 6350TIP3    H240466   1.536   6.487  14.697 -0.0720  0.7868  0.2025
 6351TIP3   OH240467   3.396   6.426  15.805  0.0223 -0.0843  0.1116
 6351TIP3    H140468   3.468   6.401  15.863  1.0595  2.4495  0.0607
 6351TIP3    H240469   3.436   6.431  15.718 -0.5574 -0.0348 -0.1601
 6352TIP3   OH240470   4.695   5.156  15.202  0.1305 -0.0330  0.3480
 6352TIP3    H140471   4.630   5.197  15.258  0.7723  0.3440  0.8262
 6352TIP3    H240472   4.779   5.175  15.244  0.9487  2.7891 -2.1897
 6353TIP3   OH240473   0.116   2.185  11.132 -0.4082  0.1532  0.3789
 6353TIP3    H140474   0.202   2.192  11.174 -0.9287  1.3250  1.2916
 6353TIP3    H240475   0.094   2.275  11.107 -1.8523  0.0445  1.1522
 6354TIP3   OH240476   4.808   2.512   3.125  0.2291 -0.3198  0.4292
 6354TIP3    H140477   4.833   2.475   3.210  0.3875  0.6533  0.8211
 6354TIP3    H240478   4.713   2.506   3.123  0.0018  1.8961  1.7782
 6355TIP3   OH240479   6.208   6.038   4.782  0.5803  0.1839 -0.0224
 6355TIP3    H140480   6.129   6.010   4.737  0.1262  0.0603  0.8232
 6355TIP3    H240481   6.181   6.115   4.833  0.6636 -0.6355  1.2943
 6356TIP3   OH240482   6.593   4.408   0.623 -0.4693  0.4588  0.1207
 6356TIP3    H140483   6.621   4.414   0.714 -0.0592 -0.6112  0.0783
 6356TIP3    H240484   6.653   4.344   0.584  0.8458  2.5419 -1.4812
 6357TIP3   OH240485   0.894   5.302   3.925  0.2347 -0.4526  0.6489
 6357TIP3    H140486   0.975   5.258   3.949 -0.1282 -1.1857  0.5545
 6357TIP3    H240487   0.853   5.244   3.861 -0.9098 -0.6668  1.5349
 6358TIP3   OH240488   3.330   2.397   3.765 -0.5080 -0.3645  0.1126
 6358TIP3    H140489   3.256   2.377   3.708  0.6700 -2.3029 -0.8629
 6358TIP3    H240490   3.334   2.322   3.825  1.0610 -0.6614 -0.3226
 6359TIP3   OH240491   1.571   4.733   3.859  0.2346  0.0712  0.1090
 6359TIP3    H140492   1.625   4.748   3.782  1.1410  0.9145  0.8671
 6359TIP3    H240493   1.523   4.815   3.870  0.1701 -0.0137  0.4733
 6360TIP3   OH240494   6.205   0.088  14.047 -0.4930 -0.0926 -0.0447
 6360TIP3    H140495   6.205  -0.007  14.046  2.7181 -0.2032  0.0880
 6360TIP3    H240496   6.170   0.113  13.961  0.3706 -1.4645 -0.8340
 6361TIP3   OH240497   3.717   1.511  14.746  0.8373  0.1438 -0.6828
 6361TIP3    H140498   3.723   1.511  14.842  0.8202 -0.9084 -0.6633
 6361TIP3    H240499   3.770   1.435  14.720  1.1186  0.6227 -1.5328
 6362TIP3   OH240500   2.098   3.862  16.337  0.7770  0.4100 -0.0410
 6362TIP3    H140501   2.064   3.910  16.262 -0.1136  1.3774  0.9456
 6362TIP3    H240502   2.141   3.785  16.299  0.2321  0.8001 -1.5141
 6363TIP3   OH240503   2.989   0.158   1.330 -0.1095 -0.1287 -0.3413
 6363TIP3    H140504   2.924   0.206   1.278 -0.4918 -1.3648 -1.0349
 6363TIP3    H240505   3.027   0.096   1.268  3.5362  2.1305 -0.6616
 6364TIP3   OH240506   2.959   6.469   6.639  0.1143 -0.1079 -0.3033
 6364TIP3    H140507   3.028   6.454   6.574  1.5650 -0.2771  1.2309
 6364TIP3    H240508   2.878   6.473   6.587  1.1193 -1.0353 -2.0317
 6365TIP3   OH240509   3.941   6.761   5.371  0.4977 -0.0467  0.4982
 6365TIP3    H140510   3.855   6.803   5.373  0.2298 -0.5325 -0.2928
 6365TIP3    H240511   3.987   6.798   5.446 -0.6855 -0.4003  1.4369
 6366TIP3   OH240512   5.716   4.724   0.660  0.0474  0.3297  0.2787
 6366TIP3    H140513   5.679   4.786   0.723  2.1959  0.4575  1.5048
 6366TIP3    H240514   5.741   4.778   0.585 -1.7310  0.2998 -0.3833
 6367TIP3   OH240515   1.619   4.753   0.436  0.0921 -0.5968  0.5066
 6367TIP3    H140516   1.590   4.683   0.378  2.8356 -2.8274  1.5685
 6367TIP3    H240517   1.692   4.795   0.390  1.3518 -1.4461  1.6294
 6368TIP3   OH240518   1.017   1.292   3.893  0.2017  0.4473 -0.0621
 6368TIP3    H140519   1.061   1.228   3.949 -0.8125 -0.1205  0.0950
 6368TIP3    H240520   1.034   1.262   3.804 -0.8947 -0.4808  0.0251
 6369TIP3   OH240521   6.432   4.394   4.915  0.1863  0.1015 -0.3988
 6369TIP3    H140522   6.392   4.481   4.920 -2.8526 -1.2098  0.5007
 6369TIP3    H240523   6.455   4.373   5.006  1.0377 -0.0129 -0.6286
 6370TIP3   OH240524   0.652   6.365   0.375 -0.7721  0.3543 -0.4574
 6370TIP3    H140525   0.633   6.459   0.381 -0.1820  0.4821 -0.5590
 6370TIP3    H240526   0.594   6.325   0.440  0.8911  1.0755  1.6042
 6371TIP3   OH240527   3.120   0.683   5.901  0.3604  0.2283  0.0171
 6371TIP3    H140528   3.147   0.638   5.982  0.7452 -0.6401 -0.5811
 6371TIP3    H240529   3.067   0.620   5.854 -0.0044  0.7908 -0.3389
 6372TIP3   OH240530   6.303   4.153   1.400 -0.1359  0.3510 -0.4766
 6372TIP3    H140531   6.252   4.154   1.319  0.1946  1.2273 -0.6860
 6372TIP3    H240532   6.239   4.133   1.468 -0.7424  1.2640 -0.7561
 6373TIP3   OH240533   6.338   0.968   1.283 -0.0792  0.1880 -0.4834
 6373TIP3    H140534   6.248   0.941   1.297 -0.1977  0.6450 -0.3300
 6373TIP3    H240535   6.336   1.063   1.294  0.7136  0.0523  1.0827
 6374TIP3   OH240536   2.029   3.928  13.900 -0.4099  0.0946  0.1893
 6374TIP3    H140537   1.938   3.897  13.907 -0.5955  0.6357  0.2082
 6374TIP3    H240538   2.031   3.975  13.817 -0.5141  1.2816  0.8422
 6375TIP3   OH240539   2.994   2.256   1.056 -0.1614 -0.0185 -0.3736
 6375TIP3    H140540   3.086   2.244   1.080 -0.2036  1.8471  0.9687
 6375TIP3    H240541   2.952   2.173   1.078  1.1175 -0.7346 -0.5761
 6376TIP3   OH240542   0.722   4.206   3.196  0.4936 -0.2411 -0.0749
 6376TIP3    H140543   0.667   4.204   3.274  1.4374  0.8303  0.6495
 6376TIP3    H240544   0.686   4.137   3.140 -2.1822  1.0306 -0.0751
 6377TIP3   OH240545   2.321   6.670  10.663  0.0933  0.7438 -0.1816
 6377TIP3    H140546   2.336   6.610  10.589 -0.5227  2.6240 -1.9320
 6377TIP3    H240547   2.239   6.714  10.642  0.2937  1.8721  1.2498
 6378TIP3   OH240548   1.623   2.910   6.153 -0.0820 -0.0077  0.7941
 6378TIP3    H140549   1.669   2.992   6.134 -1.0993  0.2207 -0.9514
 6378TIP3    H240550   1.552   2.934   6.212 -1.2960  0.6997 -0.8922
 6379TIP3   OH240551   3.349   4.014   0.486 -0.7816 -0.0637 -0.3027
 6379TIP3    H140552   3.319   4.103   0.503  1.6143  0.5599  1.1093
 6379TIP3    H240553   3.315   3.963   0.559  0.3233  0.3294  0.4972
 6380TIP3   OH240554   1.059   1.590   1.281  0.0674 -0.2361 -0.5756
 6380TIP3    H140555   0.973   1.627   1.264 -0.3262 -0.1138  1.4374
 6380TIP3    H240556   1.046   1.496   1.282 -0.4576 -0.1796  1.4918
 6381TIP3   OH240557   5.684   5.361  14.646 -0.0273  0.6140  0.1589
 6381TIP3    H140558   5.636   5.285  14.613 -0.0498  0.2881  0.9106
 6381TIP3    H240559   5.634   5.436  14.616 -0.6534  0.2930  0.3955
 6382TIP3   OH240560   3.694   0.317  12.846 -0.0809 -0.4161  0.4426
 6382TIP3    H140561   3.718   0.301  12.754  0.1895  0.1096  0.4154
 6382TIP3    H240562   3.599   0.305  12.848  0.0433 -1.5500  0.3380
 6383TIP3   OH240563   4.274   3.645   0.921  0.2655 -0.1754 -0.4129
 6383TIP3    H140564   4.353   3.633   0.974  0.7142  0.2407 -0.9796
 6383TIP3    H240565   4.268   3.739   0.908  0.0564 -0.2632 -0.9546
 6384TIP3   OH240566   4.731   0.213  13.033  0.0051  0.0615  0.1874
 6384TIP3    H140567   4.817   0.244  13.059 -0.6706  1.2723  1.0673
 6384TIP3    H240568   4.679   0.213  13.114 -0.5428 -1.7071 -0.0997
 6385TIP3   OH240569   5.131   0.700   5.031  0.4555  0.0807 -0.0898
 6385TIP3    H140570   5.058   0.651   4.995  0.6688 -0.7532  0.5746
 6385TIP3    H240571   5.199   0.697   4.964  1.6030 -3.1531  1.0013
 6386TIP3   OH240572   5.848   5.753  12.998 -0.1064  0.1275  0.2815
 6386TIP3    H140573   5.943   5.756  13.001 -0.0176  0.2466 -1.5572
 6386TIP3    H240574   5.824   5.678  13.053  0.8453  1.6330  2.9111
 6387TIP3   OH240575   3.706   5.648   3.665  0.4559  0.3336  0.2398
 6387TIP3    H140576   3.759   5.572   3.642 -0.6709 -0.6848  0.8910
 6387TIP3    H240577   3.769   5.714   3.693  1.4679 -0.2786 -0.5314
 6388TIP3   OH240578   1.253   1.728  12.119  0.0408 -0.7288  0.2972
 6388TIP3    H140579   1.280   1.774  12.198  1.6085  1.2002 -1.2556
 6388TIP3    H240580   1.279   1.786  12.047 -1.0955 -2.4991 -1.6564
 6389TIP3   OH240581   2.454   1.801  15.875  0.3722  0.3640  0.4560
 6389TIP3    H140582   2.487   1.866  15.813  1.4235  0.0034  0.6187
 6389TIP3    H240583   2.477   1.836  15.961  1.5045 -0.5009  0.5216
 6390TIP3   OH240584   5.121   6.673  16.315 -0.0672  0.1818 -0.1729
 6390TIP3    H140585   5.133   6.760  16.354 -0.4473  0.6699 -1.1190
 6390TIP3    H240586   5.157   6.613  16.381 -0.1204  1.0193  0.6535
 6391TIP3   OH240587   6.297   5.222  13.319 -0.3535  0.1323 -0.0772
 6391TIP3    H140588   6.337   5.137  13.337 -1.5173 -0.6984 -1.2585
 6391TIP3    H240589   6.207   5.213  13.350 -0.2546  1.2496  0.5847
 6392TIP3   OH240590   1.791   1.061   6.668 -0.1778 -0.3185 -0.1888
 6392TIP3    H140591   1.734   1.004   6.615  2.2365 -3.3026  0.1351
 6392TIP3    H240592   1.767   1.040   6.758 -0.2204  0.2581 -0.0653
 6393TIP3   OH240593   0.497   5.118  15.764  0.9762  0.3485 -0.1513
 6393TIP3    H140594   0.511   5.209  15.791  2.6047 -0.4449  1.9059
 6393TIP3    H240595   0.541   5.112  15.679  0.6329  1.5210 -0.4376
 6394TIP3   OH240596   5.245   1.292  12.328 -0.0251 -0.5467 -0.3596
 6394TIP3    H140597   5.301   1.217  12.307 -0.9521 -0.8592 -1.9001
 6394TIP3    H240598   5.207   1.318  12.244 -1.6287  0.0924  0.5183
 6395TIP3   OH240599   3.801   1.804   6.676  0.1091 -0.5621 -0.1477
 6395TIP3    H140600   3.712   1.838   6.683 -0.1999 -0.6235 -2.7036
 6395TIP3    H240601   3.793   1.729   6.616  1.6262 -1.6857  0.9917
 6396TIP3   OH240602   3.807   5.591  13.329  0.4841 -0.5700 -0.1081
 6396TIP3    H140603   3.902   5.604  13.326  0.5134 -0.7642 -0.0267
 6396TIP3    H240604   3.790   5.553  13.415  0.0709  1.4732  0.7737
 6397TIP3   OH240605   2.921   5.812  14.943  0.0045  0.5181 -0.1137
 6397TIP3    H140606   2.985   5.851  15.003  1.0759 -1.0966 -0.1439
 6397TIP3    H240607   2.929   5.718  14.957 -0.1036  0.1130 -2.4020
 6398TIP3   OH240608   1.219   0.859   1.947  0.1722  0.4709  0.3439
 6398TIP3    H140609   1.273   0.936   1.962  0.3889  0.0884  1.7224
 6398TIP3    H240610   1.281   0.789   1.927  0.1463  0.2298  1.0567
 6399TIP3   OH240611   1.966   6.273  12.503 -0.0577  0.7456 -0.4396
 6399TIP3    H140612   1.987   6.236  12.589 -1.6333  0.1006 -0.2919
 6399TIP3    H240613   1.969   6.198  12.443  2.5913  1.4443 -1.3102
 6400TIP3   OH240614   6.506   2.094   5.864 -0.1228  0.1312 -0.4360
 6400TIP3    H140615   6.444   2.042   5.916  0.4223 -0.7614 -0.6568
 6400TIP3    H240616   6.463   2.102   5.778 -0.8217  1.2272 -0.0028
 6401TIP3   OH240617   5.557   4.452   0.534  0.3261  0.2858  0.4696
 6401TIP3    H140618   5.572   4.534   0.486 -0.6595 -0.1223 -0.5820
 6401TIP3    H240619   5.484   4.471   0.592 -0.4686 -0.0766 -0.3946
 6402TIP3   OH240620   2.299   2.011  14.296  0.3691 -0.5738 -0.4598
 6402TIP3    H140621   2.267   1.965  14.219 -0.5415 -1.0767  0.2032
 6402TIP3    H240622   2.221   2.045  14.339  0.7518 -1.2510  0.8288
 6403TIP3   OH240623   1.321   5.436   5.070 -0.2355 -0.1106  0.3568
 6403TIP3    H140624   1.391   5.426   5.134  0.4025 -0.8771 -0.4480
 6403TIP3    H240625   1.316   5.352   5.025 -0.0083  0.6912 -1.2563
 6404TIP3   OH240626   2.407   1.214   4.479 -0.7311  0.2486  0.2941
 6404TIP3    H140627   2.498   1.201   4.505 -1.2190 -1.3925  1.2871
 6404TIP3    H240628   2.358   1.215   4.561 -1.7315  0.1033 -0.2843
 6405TIP3   OH240629   2.384   0.559  12.751  0.3786 -0.0339  0.4426
 6405TIP3    H140630   2.437   0.542  12.672 -1.9228  0.2895 -1.2688
 6405TIP3    H240631   2.349   0.473  12.774  0.9698 -0.1095  1.0794
 6406TIP3   OH240632   3.624   4.498  12.659 -0.2233  0.6692 -0.2572
 6406TIP3    H140633   3.554   4.470  12.599 -0.0036 -0.2788 -0.0879
 6406TIP3    H240634   3.609   4.447  12.738  0.4328  0.7518 -0.0747
 6407TIP3   OH240635   0.055   6.705  10.986  0.0154 -0.2918  0.7683
 6407TIP3    H140636   0.031   6.628  10.935 -1.1349 -0.9992  2.2763
 6407TIP3    H240637   0.018   6.778  10.938  0.8301 -0.6869 -0.5158
 6408TIP3   OH240638   2.458   2.249  13.359  0.5141 -0.5771 -0.4144
 6408TIP3    H140639   2.395   2.321  13.355 -1.8359 -2.3933  1.1670
 6408TIP3    H240640   2.542   2.289  13.336 -1.1094  2.0556 -2.2057
 6409TIP3   OH240641   2.979   0.232  12.228  0.4315  0.0295  0.5396
 6409TIP3    H140642   3.058   0.279  12.201  0.6350  0.5879  2.0446
 6409TIP3    H240643   2.940   0.203  12.145  1.3553  1.1182 -0.3197
 6410TIP3   OH240644   6.508   4.851  11.870 -0.0963  0.3667 -0.1730
 6410TIP3    H140645   6.555   4.930  11.896  0.5931 -0.3271  0.7632
 6410TIP3    H240646   6.576   4.790  11.841 -0.4180 -0.5205  0.8453
 6411TIP3   OH240647   5.875   5.310   1.570 -0.1185  0.1415  0.2212
 6411TIP3    H140648   5.854   5.223   1.538 -0.5385  0.1262  0.5301
 6411TIP3    H240649   5.857   5.306   1.664  2.2436 -0.1795  0.7331
 6412TIP3   OH240650   0.038   5.967  14.586  1.1055 -0.2667  0.0094
 6412TIP3    H140651   0.049   5.933  14.675 -0.6832 -0.6910  0.1011
 6412TIP3    H240652  -0.011   6.048  14.597 -1.4456 -1.6196 -0.7017
 6413TIP3   OH240653   0.910   0.756  10.545 -0.3105 -0.0438 -0.4188
 6413TIP3    H140654   0.856   0.678  10.535 -1.4727  0.3834  1.8623
 6413TIP3    H240655   0.855   0.828  10.515 -0.9209  0.3347  1.4501
 6414TIP3   OH240656   1.298   6.295  16.963  0.3476 -0.0076  0.0949
 6414TIP3    H140657   1.301   6.226  16.896 -0.2710 -0.0962  0.1511
 6414TIP3    H240658   1.246   6.257  17.034 -2.5190  1.4856 -1.0441
 6415TIP3   OH240659   4.644   5.492  16.948 -0.7466 -0.2136  0.0145
 6415TIP3    H140660   4.719   5.517  17.000  0.2476 -2.1467 -0.3824
 6415TIP3    H240661   4.640   5.558  16.878 -0.6884  1.0544  1.1758
 6416TIP3   OH240662   6.196   0.362   3.700  0.1000  0.8358 -0.3148
 6416TIP3    H140663   6.132   0.310   3.747  0.7840  0.8719  0.6858
 6416TIP3    H240664   6.146   0.436   3.664 -0.6605  0.0960 -0.7901
 6417TIP3   OH240665   1.269   4.658  11.898 -0.6353  0.4938  0.1755
 6417TIP3    H140666   1.183   4.643  11.859 -0.8698  0.0508  0.8415
 6417TIP3    H240667   1.318   4.578  11.876 -1.4061 -0.6897  2.4480
 6418TIP3   OH240668   2.404   4.731   3.155 -0.1227 -0.3891 -0.4446
 6418TIP3    H140669   2.366   4.646   3.132  1.2803 -0.7728 -1.4642
 6418TIP3    H240670   2.328   4.787   3.171 -1.1005 -2.2217  1.9381
 6419TIP3   OH240671   6.189   4.918   1.985 -0.4174  0.3861 -0.3306
 6419TIP3    H140672   6.145   4.860   2.047  2.9232  0.1498  2.1171
 6419TIP3    H240673   6.220   4.860   1.916 -0.3507 -0.1489  0.1387
 6420TIP3   OH240674   0.522   2.678  12.202 -0.0004  0.2887  0.2576
 6420TIP3    H140675   0.438   2.634  12.211 -1.5333  3.0186  0.4677
 6420TIP3    H240676   0.518   2.752  12.263  1.8000  1.5512 -1.0238
 6421TIP3   OH240677   2.952   2.088   3.565 -0.0579 -0.1381 -0.0186
 6421TIP3    H140678   2.895   2.026   3.519  0.7531 -0.8839 -0.0357
 6421TIP3    H240679   3.041   2.064   3.538  0.3600  0.1335  1.0633
 6422TIP3   OH240680   0.226   3.113  11.275  0.4290  0.3824  0.2211
 6422TIP3    H140681   0.195   3.090  11.187  0.4353 -0.0828  0.3392
 6422TIP3    H240682   0.318   3.085  11.275  0.2190 -0.3263  0.6316
 6423TIP3   OH240683   5.053   2.859   6.280 -0.7499 -0.9025  0.0695
 6423TIP3    H140684   5.088   2.853   6.191  0.0411  0.5307  0.2534
 6423TIP3    H240685   5.063   2.771   6.316  1.1989 -0.9316 -0.4437
 6424TIP3   OH240686   5.754   0.263   0.685 -0.1913  0.3179  0.0722
 6424TIP3    H140687   5.812   0.294   0.616 -1.7215 -0.7931 -1.8241
 6424TIP3    H240688   5.813   0.236   0.756  1.6502 -0.8625 -1.7940
 6425TIP3   OH240689   5.962   4.829  16.899  0.7639 -0.2630 -0.2634
 6425TIP3    H140690   6.037   4.771  16.905  0.5152 -0.5168  0.5530
 6425TIP3    H240691   5.935   4.843  16.990 -0.2371 -0.2589 -0.5487
 6426TIP3   OH240692   1.671   4.103  11.683  0.4227 -0.5644 -0.0180
 6426TIP3    H140693   1.734   4.046  11.640  1.4049 -0.6752  1.4783
 6426TIP3    H240694   1.653   4.060  11.767  0.2018  0.6840  0.6039
 6427TIP3   OH240695   3.898   4.804  11.960 -0.4702  0.1774  0.6887
 6427TIP3    H140696   3.836   4.734  11.981  0.4826 -1.2069 -0.8492
 6427TIP3    H240697   3.858   4.852  11.888 -0.6614  0.6025  1.0699
 6428TIP3   OH240698   5.032   0.224  16.068  0.4737  0.1591 -0.2357
 6428TIP3    H140699   5.085   0.235  15.989 -0.5238  1.3476 -0.7860
 6428TIP3    H240700   4.979   0.304  16.072 -3.2137 -1.9771 -1.1994
 6429TIP3   OH240701   2.250   2.503   4.534  0.2671 -0.5965  0.1377
 6429TIP3    H140702   2.254   2.597   4.517  1.4531 -0.4524  1.0437
 6429TIP3    H240703   2.303   2.491   4.613  0.7889 -2.1300 -0.4087
 6430TIP3   OH240704   4.201   1.805  13.595 -0.1395 -0.6409 -0.5123
 6430TIP3    H140705   4.212   1.737  13.529  0.6809  0.0234 -1.0847
 6430TIP3    H240706   4.276   1.794  13.655 -2.0131 -2.6269  1.6417
 6431TIP3   OH240707   0.465   5.064  14.852  0.0213  0.4403 -0.1169
 6431TIP3    H140708   0.519   4.986  14.846  0.4474  0.8357 -2.0408
 6431TIP3    H240709   0.435   5.080  14.762 -0.7370  2.0086  0.3709
 6432TIP3   OH240710   0.451   1.894   3.763  0.3608 -0.2005 -0.3478
 6432TIP3    H140711   0.388   1.966   3.757  1.1981  0.4237 -2.4814
 6432TIP3    H240712   0.460   1.879   3.857 -2.5444  0.0061  0.0668
 6433TIP3   OH240713   4.355   1.483  16.287 -0.2799 -0.9743 -0.0352
 6433TIP3    H140714   4.406   1.426  16.230 -0.2905 -1.2538  0.2374
 6433TIP3    H240715   4.273   1.497  16.240 -0.1638 -0.9474 -0.2311
 6434TIP3   OH240716   5.390   6.494   3.822  0.1847 -0.2789  0.2798
 6434TIP3    H140717   5.399   6.469   3.914  3.2342 -0.1842  0.1049
 6434TIP3    H240718   5.464   6.552   3.805 -0.3730 -0.1772 -2.1977
 6435TIP3   OH240719   1.964   4.674  14.361  0.0183  0.0879  0.1075
 6435TIP3    H140720   2.056   4.699  14.375 -0.2641  0.9748  0.4252
 6435TIP3    H240721   1.934   4.733  14.291 -0.7304  0.8177  1.0263
 6436TIP3   OH240722   0.542   2.360   1.926  0.1812 -0.1056  0.2752
 6436TIP3    H140723   0.551   2.405   1.842  2.8289 -0.8261  0.0895
 6436TIP3    H240724   0.447   2.358   1.942 -0.3338  0.8846 -2.1983
 6437TIP3   OH240725   1.482   3.469  12.227 -0.2222  0.2583  0.3748
 6437TIP3    H140726   1.406   3.485  12.171  0.3520 -0.0362 -0.5114
 6437TIP3    H240727   1.444   3.447  12.313 -1.2787 -2.4397 -0.6522
 6438TIP3   OH240728   4.744   4.775  11.382 -0.3335  0.2462 -0.1729
 6438TIP3    H140729   4.708   4.688  11.371 -0.7336  0.4347 -0.3692
 6438TIP3    H240730   4.794   4.791  11.302  1.3843 -0.5660  0.6800
 6439TIP3   OH240731   3.525   2.648   4.382 -0.0850 -0.1133 -0.0571
 6439TIP3    H140732   3.430   2.642   4.366  0.1932 -2.0026 -1.3138
 6439TIP3    H240733   3.560   2.567   4.344  2.0062  0.4123  0.6759
 6440TIP3   OH240734   0.205   3.659   6.098 -0.7824  0.3442  0.0615
 6440TIP3    H140735   0.256   3.614   6.165  2.3862 -0.5227 -2.6557
 6440TIP3    H240736   0.149   3.591   6.060  1.0687 -0.4706 -1.3626
 6441TIP3   OH240737   6.379   4.480  10.875 -0.6138 -1.0598 -0.2192
 6441TIP3    H140738   6.441   4.541  10.915 -0.6369 -0.7713 -0.6288
 6441TIP3    H240739   6.322   4.535  10.821 -0.5242 -1.4638 -0.7277
 6442TIP3   OH240740   0.333   1.886  12.313  0.1705 -0.5937  0.2745
 6442TIP3    H140741   0.274   1.837  12.370 -2.3996  0.7097 -1.0933
 6442TIP3    H240742   0.331   1.976  12.346  1.3873 -0.4895  0.1423
 6443TIP3   OH240743   4.574   5.894  10.535  0.5149  0.2564 -0.7223
 6443TIP3    H140744   4.667   5.892  10.513  1.3003 -0.2490  2.2012
 6443TIP3    H240745   4.552   5.803  10.553 -0.2262  0.5353 -0.1904
 6444TIP3   OH240746   1.924   0.278  12.223 -0.5058  0.0089 -0.1960
 6444TIP3    H140747   1.958   0.189  12.215 -0.2947  0.0952 -0.2768
 6444TIP3    H240748   1.978   0.330  12.163  1.7949  0.8863  2.4144
 6445TIP3   OH240749   5.220   0.299   0.059  0.4528 -0.5472  0.5937
 6445TIP3    H140750   5.169   0.298  -0.022  0.9516 -0.5853  0.2724
 6445TIP3    H240751   5.199   0.216   0.102 -0.8019  0.0305  1.1391
 6446TIP3   OH240752   2.362   2.448   6.680  0.5806 -0.8384  0.0527
 6446TIP3    H140753   2.361   2.389   6.756  0.7317 -1.8973 -0.7397
 6446TIP3    H240754   2.393   2.393   6.608 -1.4133 -0.3844 -1.2133
 6447TIP3   OH240755   0.955   6.548   6.331  0.0754  0.5359  0.0071
 6447TIP3    H140756   0.982   6.631   6.292 -1.4348 -0.1374 -2.7412
 6447TIP3    H240757   1.024   6.486   6.306  0.8706  0.7866  1.4950
 6448TIP3   OH240758   3.480   3.932   5.568 -0.5169 -0.3647  0.0373
 6448TIP3    H140759   3.517   3.899   5.650  1.3780  2.4606  0.4366
 6448TIP3    H240760   3.552   3.930   5.506 -1.6382 -1.3858 -1.3149
 6449TIP3   OH240761   3.174   4.594   1.058  0.2171  0.6613  0.0692
 6449TIP3    H140762   3.174   4.555   1.145  0.4086  0.7808  0.1246
 6449TIP3    H240763   3.261   4.634   1.050  0.4298  0.1288 -0.4074
 6450TIP3   OH240764   5.838   0.170  12.039 -0.1590 -0.6042 -0.5584
 6450TIP3    H140765   5.795   0.244  11.996 -0.5353 -0.4376  0.0940
 6450TIP3    H240766   5.813   0.094  11.987  1.2819 -0.1390 -2.0144
 6451TIP3   OH240767   3.915   2.023  12.688 -0.0409  0.0584  0.1904
 6451TIP3    H140768   3.892   2.062  12.603  0.6348  0.1431  0.0434
 6451TIP3    H240769   3.843   2.048  12.746 -0.7622 -0.4284 -0.4818
 6452TIP3   OH240770   2.818   4.340   1.905  0.4681 -0.6506 -0.3806
 6452TIP3    H140771   2.740   4.334   1.959  0.3149 -1.3622 -0.6573
 6452TIP3    H240772   2.800   4.410   1.843  0.2995 -0.4081 -0.0587
 6453TIP3   OH240773   5.597   0.098   0.451 -0.4139 -0.1383  0.1755
 6453TIP3    H140774   5.644   0.016   0.464  0.3881  0.2894 -0.0017
 6453TIP3    H240775   5.617   0.150   0.529 -1.3894 -0.3184  0.5640
 6454TIP3   OH240776   3.054   6.592  15.841  0.5125  0.1938 -0.3961
 6454TIP3    H140777   3.069   6.514  15.894 -0.8502 -0.3807 -0.8179
 6454TIP3    H240778   3.034   6.558  15.753 -1.5013  0.9062 -0.2708
 6455TIP3   OH240779   1.397   1.419   2.508 -0.1354 -0.2841  0.2219
 6455TIP3    H140780   1.421   1.363   2.434 -0.9593 -0.8623  0.3788
 6455TIP3    H240781   1.360   1.359   2.573  0.6988  0.2011  1.1698
 6456TIP3   OH240782   4.457   4.960  15.535  0.1303 -0.3463 -0.5330
 6456TIP3    H140783   4.483   4.873  15.505 -0.0870 -0.2195 -1.1148
 6456TIP3    H240784   4.406   4.945  15.614  0.4707 -0.7143 -0.3823
 6457TIP3   OH240785   5.397   6.499  16.942 -0.1698 -0.1493 -0.0249
 6457TIP3    H140786   5.446   6.420  16.921  0.8367  0.5980 -0.5677
 6457TIP3    H240787   5.328   6.502  16.876  1.4749  0.8612 -1.8049
 6458TIP3   OH240788   4.238   5.452  11.727  0.5770 -0.1984  0.3897
 6458TIP3    H140789   4.280   5.367  11.714  1.0932  0.1990 -0.6708
 6458TIP3    H240790   4.309   5.512  11.750 -0.0014 -0.3662  2.8885
 6459TIP3   OH240791   6.525   5.654  11.099  0.3372 -0.0032  0.5425
 6459TIP3    H140792   6.580   5.724  11.064  1.2252 -1.5764 -1.4694
 6459TIP3    H240793   6.435   5.681  11.079  0.6189  0.8202  0.3483
 6460TIP3   OH240794   4.350   5.728  15.236  0.2556  0.1677  0.3431
 6460TIP3    H140795   4.290   5.661  15.271  0.6778  0.6105  1.9978
 6460TIP3    H240796   4.309   5.811  15.260  1.8389  0.4915  2.2041
 6461TIP3   OH240797   2.742   3.869  14.959 -0.2068 -0.5097 -0.0550
 6461TIP3    H140798   2.777   3.956  14.972  0.6547 -0.8195 -0.2688
 6461TIP3    H240799   2.698   3.873  14.873 -0.3922 -0.2238  0.0532
 6462TIP3   OH240800   5.104   3.787   0.714 -0.0179  0.5259  0.1256
 6462TIP3    H140801   5.189   3.826   0.733 -0.5554  2.0177 -0.4457
 6462TIP3    H240802   5.040   3.855   0.736 -1.1361 -0.8120  1.2217
 6463TIP3   OH240803   5.471   6.236   3.205  0.2185 -0.1782  0.6750
 6463TIP3    H140804   5.526   6.224   3.282 -1.8680  0.1021  2.2985
 6463TIP3    H240805   5.501   6.319   3.167  1.4287 -0.4320  1.0317
 6464TIP3   OH240806   0.920   1.655  12.873  0.1282 -0.2074  0.0798
 6464TIP3    H140807   0.956   1.638  12.786 -2.3390 -1.8748 -0.7072
 6464TIP3    H240808   0.985   1.711  12.915  2.0741 -0.5181 -2.3064
 6465TIP3   OH240809   3.222   1.800  15.554  0.2359  0.8460  0.0955
 6465TIP3    H140810   3.190   1.855  15.482  0.4968 -1.0250 -1.5335
 6465TIP3    H240811   3.317   1.796  15.541  0.0778 -1.1807 -0.7739
 6466TIP3   OH240812   3.173   2.760   2.970 -0.4289  0.5277  0.3663
 6466TIP3    H140813   3.231   2.775   2.895 -0.8602  1.5374  0.2173
 6466TIP3    H240814   3.203   2.677   3.007  0.7352  0.7319 -0.0567
 6467TIP3   OH240815   2.765   3.159   3.527  0.1891 -0.0255 -0.0371
 6467TIP3    H140816   2.839   3.157   3.587 -0.1999 -1.1604  0.4282
 6467TIP3    H240817   2.731   3.070   3.527 -1.8661  0.6935  0.6057
 6468TIP3   OH240818   6.377   0.874  16.918  0.2653 -0.3983 -0.1795
 6468TIP3    H140819   6.342   0.941  16.860  0.5209 -0.3471 -0.2727
 6468TIP3    H240820   6.335   0.793  16.890  0.0625 -0.3009 -0.1551
 6469TIP3   OH240821   5.302   1.209  14.765 -0.1977 -0.0905 -0.2724
 6469TIP3    H140822   5.238   1.275  14.736 -2.4763 -1.4253  1.3963
 6469TIP3    H240823   5.262   1.125  14.743  1.4623 -0.9960 -0.0038
 6470TIP3   OH240824   0.772   2.966   4.928 -0.0267 -0.2817 -0.5795
 6470TIP3    H140825   0.703   2.906   4.899  1.1785 -2.3043  0.5212
 6470TIP3    H240826   0.852   2.931   4.888  0.6967  0.7475 -0.0821
 6471TIP3   OH240827   0.398   3.977  17.111 -0.2910 -0.2376  0.1653
 6471TIP3    H140828   0.411   3.970  17.205 -0.6891  0.5058  0.2868
 6471TIP3    H240829   0.327   4.040  17.101 -0.4149 -0.4875 -0.6264
 6472TIP3   OH240830   4.613   5.749   2.470 -0.9036 -0.5828  0.8089
 6472TIP3    H140831   4.639   5.662   2.501  0.5270 -0.5458 -0.1564
 6472TIP3    H240832   4.618   5.742   2.375 -1.0309  0.4906  0.7216
 6473TIP3   OH240833   1.066   1.946  17.043 -0.1923  0.1194  0.2029
 6473TIP3    H140834   1.026   2.032  17.032 -0.9524  0.0027  1.7654
 6473TIP3    H240835   1.138   1.944  16.980  0.6064  2.3704  0.9784
 6474TIP3   OH240836   0.566   3.443   1.351  0.2494  0.4007 -0.2549
 6474TIP3    H140837   0.621   3.521   1.345 -0.1627  0.6834 -0.3344
 6474TIP3    H240838   0.608   3.390   1.419  1.9541 -0.4539 -1.8974
 6475TIP3   OH240839   2.276   2.835   1.164  0.3676 -0.0151 -0.6027
 6475TIP3    H140840   2.224   2.900   1.211  0.5356  0.4048 -0.9843
 6475TIP3    H240841   2.211   2.779   1.121  0.1821 -1.0630  0.9619
 6476TIP3   OH240842   0.794   1.916  11.212  0.1007 -0.1899  0.1223
 6476TIP3    H140843   0.865   1.853  11.202 -0.7581 -1.1022 -0.4479
 6476TIP3    H240844   0.735   1.876  11.276 -0.7846 -0.2884 -0.7387
 6477TIP3   OH240845   5.898   2.033   1.465 -0.5924 -0.3875  0.1452
 6477TIP3    H140846   5.857   1.959   1.422  0.4664  0.3686 -2.3478
 6477TIP3    H240847   5.992   2.016   1.458 -0.0774  2.6439 -3.7404
 6478TIP3   OH240848   2.516   0.134  11.616 -1.0306 -0.4665  0.0979
 6478TIP3    H140849   2.519   0.225  11.648  0.3982  0.0577 -1.3897
 6478TIP3    H240850   2.604   0.101  11.632 -0.8487 -0.8108 -1.4618
 6479TIP3   OH240851   3.794   0.282   4.034 -0.0957  0.5094  0.3957
 6479TIP3    H140852   3.870   0.283   4.092  0.1652  1.0148  0.0578
 6479TIP3    H240853   3.820   0.338   3.961 -0.0349 -0.8760 -0.6929
 6480TIP3   OH240854   3.175   6.289   1.296 -0.6039 -0.2503  0.2178
 6480TIP3    H140855   3.254   6.328   1.260 -0.6489 -0.8915 -0.6007
 6480TIP3    H240856   3.113   6.362   1.303  0.1630  0.3230  1.2064
 6481TIP3   OH240857   6.661   5.631  14.139  0.7658  0.0375 -0.3068
 6481TIP3    H140858   6.715   5.710  14.136 -0.1894  0.8452  1.7936
 6481TIP3    H240859   6.705   5.574  14.201  0.3171 -0.1826 -0.1881
 6482TIP3   OH240860   0.154   3.058   0.456 -0.6915  0.0214 -0.1267
 6482TIP3    H140861   0.165   2.965   0.472 -0.2973  0.4769  3.0513
 6482TIP3    H240862   0.060   3.069   0.441 -1.1259 -0.6979  1.7644
 6483TIP3   OH240863   2.534   5.642  14.348 -0.4017  0.1346  0.0268
 6483TIP3    H140864   2.479   5.720  14.355  1.2836  1.4988 -0.8133
 6483TIP3    H240865   2.594   5.648  14.422  0.0745 -0.0598 -0.3351
 6484TIP3   OH240866   5.773   5.010   5.845  0.1076 -0.1176  0.0072
 6484TIP3    H140867   5.855   5.013   5.797  1.1612  3.0873  1.7631
 6484TIP3    H240868   5.718   5.076   5.803 -1.7466 -2.3339 -1.2587
 6485TIP3   OH240869   3.267   2.148  15.837  0.4138 -0.3192 -0.6190
 6485TIP3    H140870   3.271   2.053  15.845  1.3421 -0.3462 -1.2753
 6485TIP3    H240871   3.176   2.166  15.814  0.3415 -1.0820 -0.9523
 6486TIP3   OH240872   2.794   1.118   1.078  0.0375  0.7234 -0.3767
 6486TIP3    H140873   2.769   1.110   1.170  0.6725 -0.1969 -0.2722
 6486TIP3    H240874   2.877   1.166   1.079  0.1783  0.4812 -0.4548
 6487TIP3   OH240875   0.676   3.493  13.216 -0.0135  0.1167  0.0884
 6487TIP3    H140876   0.758   3.447  13.197 -0.7131 -1.9599  1.6955
 6487TIP3    H240877   0.650   3.531  13.132  2.2857  0.3763 -0.5793
 6488TIP3   OH240878   2.890   5.951  11.460 -0.4402  0.5495  0.0121
 6488TIP3    H140879   2.878   5.861  11.492 -0.7749  0.9413  1.0272
 6488TIP3    H240880   2.808   5.973  11.417  0.2041 -0.1711 -1.6436
 6489TIP3   OH240881   0.466   1.361  16.582  0.2925  0.1204  0.4865
 6489TIP3    H140882   0.395   1.423  16.597 -0.7268 -0.8147 -0.3167
 6489TIP3    H240883   0.422   1.281  16.552  1.8089  0.2967 -2.6073
 6490TIP3   OH240884   0.919   2.538  13.259  0.1531  0.0682  0.5431
 6490TIP3    H140885   0.866   2.586  13.323 -2.4613 -0.8628 -0.7981
 6490TIP3    H240886   0.998   2.591  13.249 -0.7619  1.8576  2.2171
 6491TIP3   OH240887   5.374   4.771  15.630 -0.6321  0.0313 -0.1078
 6491TIP3    H140888   5.281   4.795  15.637 -1.2955 -2.2406 -0.4399
 6491TIP3    H240889   5.415   4.811  15.707 -2.2520 -0.5342  1.0977
 6492TIP3   OH240890   0.207   5.983   5.419  0.2552 -0.0588  0.6450
 6492TIP3    H140891   0.225   6.074   5.395  1.9594 -0.1407  1.4914
 6492TIP3    H240892   0.111   5.977   5.421  0.1011  1.3764 -0.6211
 6493TIP3   OH240893   5.743   3.891   1.432 -0.0834  0.0923  0.4035
 6493TIP3    H140894   5.833   3.909   1.404 -0.0820 -1.6502 -0.8851
 6493TIP3    H240895   5.714   3.973   1.473  1.3339  1.4440 -1.1119
 6494TIP3   OH240896   1.881   6.655  16.823 -0.2872 -0.3653  0.1760
 6494TIP3    H140897   1.796   6.616  16.841 -0.3153  0.5068  2.3558
 6494TIP3    H240898   1.863   6.728  16.764 -0.7808 -1.2051 -0.7286
 6495TIP3   OH240899   1.614   1.510  13.960  0.4367  0.1469 -0.2769
 6495TIP3    H140900   1.536   1.476  14.003  0.7305 -1.1044 -0.6893
 6495TIP3    H240901   1.656   1.565  14.025  0.2657 -0.7847  0.6395
 6496TIP3   OH240902   3.602   2.475   3.170  0.0619  0.1955 -0.0664
 6496TIP3    H140903   3.595   2.390   3.125 -1.7565  0.7202 -0.8991
 6496TIP3    H240904   3.588   2.455   3.262 -1.3949 -0.3200 -0.3752
 6497TIP3   OH240905   3.754   2.244  14.901  0.0422 -0.1416 -0.4597
 6497TIP3    H140906   3.771   2.259  14.994 -0.0025 -2.0852 -0.1055
 6497TIP3    H240907   3.698   2.167  14.899 -0.8488  0.5051 -2.0741
 6498TIP3   OH240908   3.719   1.774  11.799  0.6119 -0.2397 -0.2945
 6498TIP3    H140909   3.644   1.747  11.746 -0.6344  0.2100  1.1845
 6498TIP3    H240910   3.766   1.693  11.818 -1.2678 -1.0174  1.3618
 6499TIP3   OH240911   0.167   1.470   1.883 -0.3768  0.8768  0.1499
 6499TIP3    H140912   0.208   1.533   1.824  2.6981 -1.3181 -0.3533
 6499TIP3    H240913   0.196   1.497   1.970 -1.0145  1.4566  0.1878
 6500TIP3   OH240914   0.010   2.787  14.370  0.3145 -0.2068 -0.1751
 6500TIP3    H140915  -0.047   2.809  14.296 -0.0364  1.3294  0.5250
 6500TIP3    H240916   0.093   2.760  14.329 -1.1527 -3.6616 -1.2730
 6501TIP3   OH240917   3.870   6.757  11.390  0.3432 -0.2076 -0.9753
 6501TIP3    H140918   3.909   6.813  11.457  0.3835 -2.8552  1.3620
 6501TIP3    H240919   3.799   6.810  11.353 -0.7909  0.8140  2.3507
 6502TIP3   OH240920   3.711   6.395   1.350 -0.8431  0.0419  0.5063
 6502TIP3    H140921   3.742   6.382   1.440  1.8259  2.4018  0.0815
 6502TIP3    H240922   3.777   6.353   1.295 -2.0546 -0.7390 -0.3922
 6503TIP3   OH240923   1.742   2.572   5.527  1.0289  0.0336  0.3118
 6503TIP3    H140924   1.815   2.634   5.526  0.5597  0.5987 -0.7529
 6503TIP3    H240925   1.669   2.621   5.491  0.4249 -0.8951  0.2461
 6504TIP3   OH240926   6.445   5.127   1.330 -0.3049  0.0692  0.0397
 6504TIP3    H140927   6.478   5.053   1.381 -3.2577 -1.3016  0.1725
 6504TIP3    H240928   6.424   5.194   1.395  0.5842  0.3096  0.0962
 6505TIP3   OH240929   3.878   0.275  15.564  0.1486 -0.3853  0.3816
 6505TIP3    H140930   3.879   0.258  15.658 -0.9694 -0.0170  0.4810
 6505TIP3    H240931   3.832   0.199  15.527  1.2413 -0.8918  0.0429
 6506TIP3   OH240932   3.907   1.633   1.299 -0.4958  0.7073  0.0436
 6506TIP3    H140933   3.838   1.668   1.355  1.1597  1.8933  1.4464
 6506TIP3    H240934   3.922   1.544   1.331  0.3072  1.3089  1.4242
 6507TIP3   OH240935   6.775   1.358   3.828 -0.1585  0.0294  0.1654
 6507TIP3    H140936   6.710   1.412   3.874  0.3983  0.7122  0.1701
 6507TIP3    H240937   6.815   1.305   3.897 -0.6774 -0.3788  0.1668
 6508TIP3   OH240938   2.777   0.749   2.185  0.3541 -0.2527  0.1726
 6508TIP3    H140939   2.692   0.724   2.148 -1.2831 -0.4453  3.6461
 6508TIP3    H240940   2.817   0.667   2.213 -0.3607  0.0953  2.3994
 6509TIP3   OH240941   1.199   5.040  12.344  0.8283 -0.8483  0.3231
 6509TIP3    H140942   1.137   5.019  12.273  0.0916  1.1911  0.3050
 6509TIP3    H240943   1.284   5.013  12.309  0.3978 -0.4800 -1.0983
 6510TIP3   OH240944   4.777   6.462  13.684 -0.4571 -0.4844  0.7897
 6510TIP3    H140945   4.788   6.555  13.706  1.3830 -0.7769  1.2706
 6510TIP3    H240946   4.752   6.462  13.592  3.2036  0.4485 -0.3613
 6511TIP3   OH240947   3.511   0.383  10.833 -0.3787  0.3668  0.1525
 6511TIP3    H140948   3.430   0.424  10.803 -1.0739 -1.1458 -0.1778
 6511TIP3    H240949   3.532   0.320  10.764  0.7048  0.2547  0.5687
 6512TIP3   OH240950   0.798   3.500   1.016 -0.5492  0.1383  0.0803
 6512TIP3    H140951   0.795   3.537   0.928  0.8899 -2.7991 -1.3536
 6512TIP3    H240952   0.725   3.438   1.019  0.7816 -1.4963  0.0344
 6513TIP3   OH240953   0.835   2.611  15.197  0.2818 -0.7546 -0.3261
 6513TIP3    H140954   0.819   2.570  15.112 -0.5630  0.9301 -1.0213
 6513TIP3    H240955   0.885   2.690  15.177 -1.0394  0.3597  0.5626
 6514TIP3   OH240956   5.862   0.156  12.428 -0.6336  0.2327  0.0166
 6514TIP3    H140957   5.819   0.162  12.514  0.4194 -0.6703  0.6477
 6514TIP3    H240958   5.820   0.224  12.375 -0.4131  1.7096  1.6379
 6515TIP3   OH240959   4.781   3.695  12.207  0.0319 -0.0618  0.3966
 6515TIP3    H140960   4.754   3.781  12.239  1.6711  1.3595 -1.7850
 6515TIP3    H240961   4.834   3.659  12.278  1.6056  1.9611  0.3283
 6516TIP3   OH240962   6.090   0.486  12.484 -0.3595  0.2671 -0.6163
 6516TIP3    H140963   6.141   0.544  12.541  0.1984 -1.0920  0.3138
 6516TIP3    H240964   6.016   0.458  12.537 -1.1912  0.9011 -1.4060
 6517TIP3   OH240965   0.352   5.492  11.507  0.7575  0.0959 -0.0629
 6517TIP3    H140966   0.307   5.414  11.474  0.4597  1.0621 -2.1230
 6517TIP3    H240967   0.444   5.478  11.485  0.6671  0.4145 -0.6681
 6518TIP3   OH240968   6.611   3.244   0.196  0.0000 -0.2955 -0.4759
 6518TIP3    H140969   6.516   3.250   0.188 -0.1546 -2.0503 -0.4566
 6518TIP3    H240970   6.626   3.205   0.282  0.6009 -1.9302 -1.2675
 6519TIP3   OH240971   3.545   2.363  16.613  0.2556  0.5985 -0.0936
 6519TIP3    H140972   3.451   2.354  16.599  0.4234  1.5088 -2.1791
 6519TIP3    H240973   3.583   2.281  16.582  0.1464  0.0448  1.1784
 6520TIP3   OH240974   0.232   0.005  13.500  0.6264 -0.5535 -0.9013
 6520TIP3    H140975   0.256   0.098  13.492 -1.5336  0.1313 -0.3597
 6520TIP3    H240976   0.137   0.007  13.514  0.7200 -2.7854  0.5361
 6521TIP3   OH240977   2.599   1.913  14.472  0.0788  0.1598  0.2932
 6521TIP3    H140978   2.508   1.889  14.456 -0.3952  2.3938 -0.8099
 6521TIP3    H240979   2.646   1.879  14.396 -0.2148  0.7994 -0.1851
 6522TIP3   OH240980   5.914   2.958   1.153  0.2324  0.0355 -0.0665
 6522TIP3    H140981   5.818   2.962   1.153  0.2522  2.7788 -1.6218
 6522TIP3    H240982   5.942   3.049   1.155  2.8429 -0.6690 -0.1982
 6523TIP3   OH240983   3.966   5.782  15.357 -0.6402  0.2023 -0.0269
 6523TIP3    H140984   3.989   5.774  15.265 -0.7322  1.7547 -0.2192
 6523TIP3    H240985   4.045   5.816  15.399 -0.6566 -0.3121  0.4396
 6524TIP3   OH240986   3.024   5.695  14.188 -0.3068  0.2454 -0.1033
 6524TIP3    H140987   2.943   5.648  14.207  0.1663 -0.4296  0.2836
 6524TIP3    H240988   2.998   5.764  14.127 -1.2345  0.2695  0.3038
 6525TIP3   OH240989   1.837   3.690   5.547  0.1835  0.1076 -0.0330
 6525TIP3    H140990   1.773   3.643   5.493  1.0631 -0.8847 -0.2413
 6525TIP3    H240991   1.786   3.720   5.623 -0.5639 -0.5192 -0.2707
 6526TIP3   OH240992   6.692   0.070   5.481  0.5647  0.0826  0.0464
 6526TIP3    H140993   6.740  -0.006   5.512  0.3350 -0.6428 -1.3015
 6526TIP3    H240994   6.641   0.099   5.557  0.9045 -0.9035  0.6673
 6527TIP3   OH240995   2.452   4.068  15.849 -0.1086 -0.0892  0.0349
 6527TIP3    H140996   2.525   4.076  15.788  0.3524  2.8783  0.7999
 6527TIP3    H240997   2.420   3.979  15.837  1.5011 -0.4119 -2.7230
 6528TIP3   OH240998   3.456   1.483  12.107 -0.2150 -0.4547  0.3382
 6528TIP3    H140999   3.388   1.548  12.090  0.6903 -0.1535 -2.7481
 6528TIP3    H241000   3.535   1.534  12.123 -0.0618 -0.8073  0.7270
 6529TIP3   OH241001   3.747   6.194   2.267 -0.0060 -0.2352  0.4886
 6529TIP3    H141002   3.670   6.247   2.291  1.0891  0.4334  2.8245
 6529TIP3    H241003   3.710   6.112   2.234 -1.7175  0.9526 -0.7443
 6530TIP3   OH241004   2.765   4.942   2.198 -0.0308 -0.0096 -0.6851
 6530TIP3    H141005   2.833   4.903   2.253  1.8561  0.5121 -2.5031
 6530TIP3    H241006   2.705   4.985   2.259 -0.0243 -2.4155  1.1210
 6531TIP3   OH241007   2.382   2.030  15.263  0.3935 -0.3443 -0.2873
 6531TIP3    H141008   2.429   1.978  15.328 -0.4208  1.1569  1.6049
 6531TIP3    H241009   2.301   1.980  15.247  0.7444 -0.8802 -0.4205
 6532TIP3   OH241010   2.325   1.694   2.938 -0.1065  0.1721  0.5265
 6532TIP3    H141011   2.283   1.660   2.858 -0.7156  0.8491  0.5497
 6532TIP3    H241012   2.358   1.780   2.912 -0.7151  0.5901  1.1327
 6533TIP3   OH241013   4.779   5.268  16.464 -0.3009 -0.0273 -0.0828
 6533TIP3    H141014   4.825   5.337  16.513 -2.8672  1.8547 -0.1041
 6533TIP3    H241015   4.744   5.313  16.387 -1.9091 -1.4159 -0.2025
 6534TIP3   OH241016   1.692   2.902   1.142 -0.0267  0.5655 -0.3874
 6534TIP3    H141017   1.722   2.857   1.221  0.6520  1.6764  0.0053
 6534TIP3    H241018   1.599   2.879   1.136 -0.2875  1.0411  1.1639
 6535TIP3   OH241019   1.914   2.738  16.388 -0.0055 -0.0066  0.2059
 6535TIP3    H141020   1.904   2.802  16.317  0.3366  0.4889  0.5935
 6535TIP3    H241021   1.994   2.690  16.365 -0.7800 -0.9743 -0.5916
 6536TIP3   OH241022   1.446   5.997  11.354 -0.4910 -0.3990  0.3875
 6536TIP3    H141023   1.420   6.086  11.331  0.9175  0.4340  1.7908
 6536TIP3    H241024   1.505   5.970  11.284 -0.4394  0.0125  0.2718
 6537TIP3   OH241025   3.957   2.451  13.895  0.3406  0.7231 -0.2568
 6537TIP3    H141026   3.983   2.528  13.945 -0.2436  1.6213 -1.2793
 6537TIP3    H241027   3.871   2.427  13.931  1.1582 -0.3648  1.0411
 6538TIP3   OH241028   4.198   2.276   0.007  0.5991  0.2448  0.3553
 6538TIP3    H141029   4.128   2.279   0.072  0.8929  0.6111  0.6622
 6538TIP3    H241030   4.245   2.195   0.028 -1.7415 -1.9087 -2.0077
 6539TIP3   OH241031   6.392   5.217  11.720  0.0528 -0.0648 -0.3109
 6539TIP3    H141032   6.347   5.142  11.760 -1.0795  0.9617  0.4247
 6539TIP3    H241033   6.468   5.231  11.776 -0.3982  0.0729  0.2886
 6540TIP3   OH241034   5.607   3.391   3.688  0.1252 -0.5313 -0.2750
 6540TIP3    H141035   5.550   3.436   3.750  0.5321  0.9254 -0.9056
 6540TIP3    H241036   5.653   3.326   3.740 -0.9759 -0.6892  0.5451
 6541TIP3   OH241037   3.473   6.515   2.705 -0.1218  0.4907 -0.0509
 6541TIP3    H141038   3.476   6.541   2.613  2.3861 -1.3264 -0.5905
 6541TIP3    H241039   3.481   6.598   2.753  2.7783  1.2424 -1.5815
 6542TIP3   OH241040   3.802   6.057   1.373  0.0193  0.0193 -0.2273
 6542TIP3    H141041   3.710   6.074   1.392 -0.0007 -1.1523  0.8065
 6542TIP3    H241042   3.807   6.052   1.277 -0.7736  1.1882 -0.3403
 6543TIP3   OH241043   3.082   0.302  13.445  0.1390  0.3820  0.2658
 6543TIP3    H141044   3.078   0.235  13.376 -0.6164  0.4171  0.2671
 6543TIP3    H241045   2.991   0.313  13.473  0.4373  0.3624  1.2751
 6544TIP3   OH241046   2.340   3.849   1.206  0.3815  0.1185  0.7463
 6544TIP3    H141047   2.292   3.796   1.143  1.7730 -0.2647 -0.0412
 6544TIP3    H241048   2.305   3.823   1.292 -0.7871 -0.1327  0.2108
 6545TIP3   OH241049   1.953   2.038   3.653 -0.8276  0.2374  0.1329
 6545TIP3    H141050   1.945   2.129   3.683 -0.3760  0.3307 -0.0097
 6545TIP3    H241051   1.904   1.987   3.717  0.5998  0.3704  1.3901
 6546TIP3   OH241052   6.446   2.978   5.940 -0.5086 -0.3245 -0.6114
 6546TIP3    H141053   6.521   3.015   5.986 -1.0080 -0.6086  0.4710
 6546TIP3    H241054   6.485   2.921   5.873  0.2375  0.1056 -0.5535
 6547TIP3   OH241055   2.395   6.474   3.479 -0.0067 -0.4024  0.3146
 6547TIP3    H141056   2.368   6.383   3.470 -2.2570  0.3592 -1.8357
 6547TIP3    H241057   2.368   6.499   3.568 -0.2365 -1.5416  0.5727
 6548TIP3   OH241058   1.104   3.744  15.456  0.3203 -0.1031 -0.2181
 6548TIP3    H141059   1.019   3.789  15.457 -1.0122 -2.3187 -2.1941
 6548TIP3    H241060   1.162   3.804  15.408 -0.8689  0.3180 -1.1713
 6549TIP3   OH241061   4.063   0.757  13.160  0.2289  0.2451  0.2034
 6549TIP3    H141062   4.034   0.822  13.096 -0.6183 -0.4032 -0.0915
 6549TIP3    H241063   4.122   0.805  13.218 -0.3083  1.2512 -0.0614
 6550TIP3   OH241064   0.130   1.487  12.483 -0.1673 -0.2418  0.2750
 6550TIP3    H141065   0.042   1.507  12.515 -1.1410 -3.4743 -0.1074
 6550TIP3    H241066   0.170   1.435  12.552  1.0136  0.1554 -0.0807
 6551TIP3   OH241067   6.258   5.832  15.283  0.0295  0.2005  0.3113
 6551TIP3    H141068   6.307   5.765  15.331  0.4785  0.9832  0.9606
 6551TIP3    H241069   6.227   5.892  15.350  1.4432  1.8275 -0.4059
 6552TIP3   OH241070   4.403   1.944  16.478 -0.9419  0.2818 -0.3282
 6552TIP3    H141071   4.416   1.864  16.426  0.4082 -0.1886  0.6779
 6552TIP3    H241072   4.308   1.954  16.484 -1.1790 -1.9711  0.5616
 6553TIP3   OH241073   5.863   3.761  13.646 -0.1071 -0.1058 -0.0232
 6553TIP3    H141074   5.838   3.834  13.703 -0.1555 -0.6200  0.6412
 6553TIP3    H241075   5.874   3.800  13.560  1.5237  1.0058  0.6318
 6554TIP3   OH241076   4.374   2.757   4.805  0.1539  0.0215 -0.0431
 6554TIP3    H141077   4.364   2.662   4.809  1.5215 -0.3020 -2.2178
 6554TIP3    H241078   4.360   2.787   4.894 -1.6646 -2.0516  0.4550
 6555TIP3   OH241079   4.425   1.317  15.151 -0.6867  0.4901  1.1403
 6555TIP3    H141080   4.436   1.411  15.165  0.2862  1.1176 -2.6874
 6555TIP3    H241081   4.512   1.286  15.126 -1.7303 -0.5324 -1.5704
 6556TIP3   OH241082   6.712   6.436  16.280 -0.5178  0.0086 -0.0779
 6556TIP3    H141083   6.675   6.522  16.259  0.9086  0.9585  1.0949
 6556TIP3    H241084   6.780   6.422  16.214 -1.1417 -0.5064 -0.6227
 6557TIP3   OH241085   4.875   5.662  15.519 -0.2377 -0.5298  0.3105
 6557TIP3    H141086   4.831   5.579  15.539 -0.3289 -0.5632 -0.0215
 6557TIP3    H241087   4.804   5.721  15.494 -0.4225  0.2779  2.5355
 6558TIP3   OH241088   1.721   0.064  16.672  0.1978  0.1538 -0.6050
 6558TIP3    H141089   1.671   0.133  16.629 -1.2399 -0.6010 -0.2196
 6558TIP3    H241090   1.713  -0.011  16.614 -0.1574 -0.3225  0.0398
 6559TIP3   OH241091   2.440   6.468  16.941 -0.1833  0.1035  0.3059
 6559TIP3    H141092   2.452   6.428  17.027  1.2181  0.0048  0.0926
 6559TIP3    H241093   2.469   6.401  16.880 -0.1667  0.5641 -0.1912
 6560TIP3   OH241094   6.370   5.414   6.476 -0.0025  0.0979  0.1781
 6560TIP3    H141095   6.431   5.346   6.505  0.2813 -0.2837 -1.2239
 6560TIP3    H241096   6.283   5.376   6.487  0.1087 -0.0730  0.4429
 6561TIP3   OH241097   3.417   2.415   0.600  0.4322  0.4018 -0.0093
 6561TIP3    H141098   3.331   2.426   0.560  0.5526 -0.0924 -0.4175
 6561TIP3    H241099   3.403   2.355   0.673  0.5786 -0.3998 -0.6267
 6562TIP3   OH241100   4.274   2.203  16.225 -0.1222  0.3509 -0.0178
 6562TIP3    H141101   4.264   2.283  16.278  0.3268  0.3804  0.0334
 6562TIP3    H241102   4.207   2.144  16.258  0.0714  0.4157  0.5029
 6563TIP3   OH241103   3.808   2.512  11.841  0.0351 -0.0375  0.1803
 6563TIP3    H141104   3.857   2.443  11.797  3.4744  2.7691 -0.8717
 6563TIP3    H241105   3.751   2.548  11.773  1.5902  0.9712 -0.6588
 6564TIP3   OH241106   6.666   2.593  11.425 -0.1956 -0.6219 -0.7822
 6564TIP3    H141107   6.718   2.513  11.421 -0.7056 -0.9701 -0.4823
 6564TIP3    H241108   6.575   2.563  11.424 -0.4506  0.0193 -2.7992
 6565TIP3   OH241109   3.237   3.868   2.201  0.3775 -0.0378  0.7676
 6565TIP3    H141110   3.324   3.885   2.164 -0.3158  1.5833 -0.2172
 6565TIP3    H241111   3.217   3.778   2.173  0.6860  0.4682 -1.2594
 6566TIP3   OH241112   5.269   4.621   0.414  0.3746  0.3594  0.5240
 6566TIP3    H141113   5.220   4.668   0.347  1.1278 -0.7016 -0.8464
 6566TIP3    H241114   5.298   4.688   0.475  1.5252  1.7275 -1.4221
 6567TIP3   OH241115   1.400   5.368  12.633  0.1534  0.1506 -0.6289
 6567TIP3    H141116   1.407   5.353  12.539 -0.1283  0.7210 -0.7427
 6567TIP3    H241117   1.412   5.462  12.643  0.6760  0.0310 -0.0437
 6568TIP3   OH241118   3.782   0.042   1.477  0.6440  0.2924  0.0108
 6568TIP3    H141119   3.776   0.086   1.562 -0.4644 -1.1764  0.7492
 6568TIP3    H241120   3.703   0.071   1.431  0.9300  0.6097 -0.2792
 6569TIP3   OH241121   1.364   6.278   5.248  0.0792  0.3847 -0.3711
 6569TIP3    H141122   1.294   6.331   5.286 -1.0407  1.4156 -3.4822
 6569TIP3    H241123   1.341   6.188   5.270  0.8492  0.9144  3.2158
 6570TIP3   OH241124   4.265   0.828  15.122 -0.1657 -0.1376  0.3003
 6570TIP3    H141125   4.284   0.760  15.186 -0.3970 -0.8717 -0.4061
 6570TIP3    H241126   4.255   0.782  15.039 -1.9804  0.5583  0.0918
 6571TIP3   OH241127   4.992   4.193   4.939 -0.2845 -0.0996 -0.0327
 6571TIP3    H141128   4.905   4.215   4.907  0.4188  1.8533 -0.7431
 6571TIP3    H241129   4.996   4.231   5.027 -0.3511 -0.7403  0.2539
 6572TIP3   OH241130   4.996   4.081   3.313  0.0448  0.3991 -0.2652
 6572TIP3    H141131   5.077   4.061   3.360 -0.6340 -0.3499  0.6155
 6572TIP3    H241132   5.015   4.162   3.265  1.9158 -0.7427 -1.5664
 6573TIP3   OH241133   4.802   6.050   0.457 -0.2917  0.1396 -0.4398
 6573TIP3    H141134   4.774   6.097   0.536 -0.7303  0.5830 -0.8528
 6573TIP3    H241135   4.824   5.962   0.488 -0.7460  0.2209  0.1323
 6574TIP3   OH241136   1.855   2.158  12.192  0.4071 -0.1991  0.3235
 6574TIP3    H141137   1.821   2.153  12.282 -1.5224  1.8746 -0.1953
 6574TIP3    H241138   1.781   2.131  12.138  1.3228 -0.7202 -0.6796
 6575TIP3   OH241139   4.578   3.166  10.710  0.1166 -0.3399 -0.6627
 6575TIP3    H141140   4.632   3.237  10.743 -2.8585  1.6024  0.4017
 6575TIP3    H241141   4.597   3.093  10.769 -0.7968  1.3073  1.8354
 6576TIP3   OH241142   0.428   3.852   1.384  0.2213  0.6609  0.4001
 6576TIP3    H141143   0.338   3.827   1.362 -0.5008  2.1603  1.4365
 6576TIP3    H241144   0.426   3.947   1.389  1.5621  0.6657  1.6398
 6577TIP3   OH241145   2.623   2.965  14.246  0.0095 -0.3752 -0.1269
 6577TIP3    H141146   2.553   2.921  14.197 -0.9166 -0.5890  1.3151
 6577TIP3    H241147   2.598   2.954  14.337  1.8723 -0.2939  0.4231
 6578TIP3   OH241148   2.540   6.787   2.961 -0.4869  0.0994 -0.1477
 6578TIP3    H141149   2.572   6.723   3.025 -0.9849  0.2698  0.2781
 6578TIP3    H241150   2.586   6.868   2.982  0.3333 -0.1732 -0.8479
 6579TIP3   OH241151   1.920   5.435  14.820 -0.3828  0.2921 -0.0866
 6579TIP3    H141152   1.832   5.440  14.784 -0.1820  0.8397 -0.5078
 6579TIP3    H241153   1.950   5.526  14.825  0.0785  0.1286  0.2584
 6580TIP3   OH241154   0.271   6.273  11.513  0.0885  0.1841 -0.0631
 6580TIP3    H141155   0.255   6.275  11.419 -0.6885  1.4137  0.0699
 6580TIP3    H241156   0.186   6.253  11.552  0.1623  0.7773  0.4165
 6581TIP3   OH241157   1.064   1.304   0.811 -0.1016  0.5239 -0.1120
 6581TIP3    H141158   1.105   1.307   0.724  0.3660 -2.5971 -0.1159
 6581TIP3    H241159   1.138   1.298   0.871 -0.3152 -3.1955  0.0065
 6582TIP3   OH241160   5.946   1.149  12.465  0.4818 -0.1589 -0.4737
 6582TIP3    H141161   5.957   1.207  12.389  0.5980  2.5612  1.4527
 6582TIP3    H241162   5.856   1.119  12.459  0.5519 -0.1691 -1.7865
 6583TIP3   OH241163   4.334   1.498  16.952  0.1229  0.2402  0.5845
 6583TIP3    H141164   4.289   1.498  17.037  1.8039 -3.9212  1.6997
 6583TIP3    H241165   4.420   1.536  16.971  0.9642 -1.8366  1.1511
 6584TIP3   OH241166   6.287   0.536  15.510 -0.2682  0.2688 -0.3541
 6584TIP3    H141167   6.308   0.577  15.426 -3.8126 -1.2176 -2.2139
 6584TIP3    H241168   6.360   0.476  15.527  1.9765  2.7487 -0.7083
 6585TIP3   OH241169   2.991   1.417   3.937  0.0603  0.0718  0.1429
 6585TIP3    H141170   3.061   1.425   3.872 -0.6247 -1.1951 -0.8042
 6585TIP3    H241171   2.911   1.411   3.885 -0.5466 -0.5898  1.1259
 6586TIP3   OH241172   0.066   5.573   0.792  0.1544  0.1272 -0.2612
 6586TIP3    H141173   0.025   5.493   0.823  0.7124 -0.2964 -0.5896
 6586TIP3    H241174   0.154   5.571   0.829  0.4751  0.1314 -1.0024
 6587TIP3   OH241175   5.407   1.557   5.239 -0.1997 -0.1289  0.4055
 6587TIP3    H141176   5.486   1.550   5.185  0.5417  0.5102  1.3715
 6587TIP3    H241177   5.394   1.651   5.251 -2.3342 -0.1163 -1.4312
 6588TIP3   OH241178   0.886   3.911   2.398  0.4604 -0.3026 -0.0982
 6588TIP3    H141179   0.815   3.958   2.441  0.1704  0.1081 -1.0211
 6588TIP3    H241180   0.855   3.896   2.309  1.6412  0.1340 -0.6003
 6589TIP3   OH241181   4.929   2.887   5.861 -0.5849 -0.3473 -0.1362
 6589TIP3    H141182   4.851   2.941   5.871 -2.3437 -2.6996 -0.2305
 6589TIP3    H241183   4.930   2.863   5.769  1.0491  0.6868 -0.4329
 6590TIP3   OH241184   1.343   0.953   2.880  0.3036 -0.1657 -0.1655
 6590TIP3    H141185   1.379   0.949   2.791  0.2187  0.0583 -0.2114
 6590TIP3    H241186   1.419   0.965   2.937  0.2341  1.4882 -0.3547
 6591TIP3   OH241187   0.380   2.072   0.922  0.4061  0.1740  0.4003
 6591TIP3    H141188   0.413   2.000   0.870  0.2253 -0.8549  1.6573
 6591TIP3    H241189   0.445   2.142   0.910 -0.7261  0.8311 -2.9139
 6592TIP3   OH241190   6.209   4.221   6.338 -0.2276  0.1940  0.1108
 6592TIP3    H141191   6.157   4.160   6.390  0.1980 -0.8808 -0.6895
 6592TIP3    H241192   6.150   4.249   6.269 -0.8661  1.7978  1.2445
 6593TIP3   OH241193   0.721   1.939  15.486  0.1172  0.3258 -0.8677
 6593TIP3    H141194   0.793   1.923  15.547 -0.3728  2.1191  0.2514
 6593TIP3    H241195   0.757   1.997  15.420 -0.5784  2.4082  0.4746
 6594TIP3   OH241196   3.470   2.525   0.947 -0.2908  0.2605 -0.0591
 6594TIP3    H141197   3.490   2.618   0.960  0.1826  0.4446 -1.8507
 6594TIP3    H241198   3.555   2.482   0.954  0.1534  0.4710 -2.9788
 6595TIP3   OH241199   0.501   6.115   2.070  0.2438  0.4343  0.2626
 6595TIP3    H141200   0.507   6.031   2.116  1.5732  1.2441  1.6740
 6595TIP3    H241201   0.407   6.134   2.068  0.1042  0.2478  2.5169
 6596TIP3   OH241202   4.545   4.300  12.077  0.8995  0.5215 -0.3229
 6596TIP3    H141203   4.515   4.305  11.987  1.8213 -0.8103 -0.7239
 6596TIP3    H241204   4.626   4.352  12.079 -0.1426  2.2195  0.2361
 6597TIP3   OH241205   2.606   6.149  13.472 -0.4390 -0.0790  0.1005
 6597TIP3    H141206   2.536   6.208  13.445 -0.8846 -1.1843 -1.2566
 6597TIP3    H241207   2.631   6.179  13.559 -1.4207  1.3929 -0.0978
 6598TIP3   OH241208   0.317   4.886   3.649 -0.1950  0.3783 -0.0648
 6598TIP3    H141209   0.278   4.945   3.714 -2.3993 -0.4898 -0.5207
 6598TIP3    H241210   0.314   4.800   3.690  0.2975  0.1367 -0.5312
 6599TIP3   OH241211   6.764   5.845   1.206 -0.1594  0.2740 -0.3666
 6599TIP3    H141212   6.848   5.811   1.175 -0.5581  0.2097 -1.4361
 6599TIP3    H241213   6.699   5.785   1.170 -0.5936 -0.7120  1.9192
 6600TIP3   OH241214   0.056   3.633   0.578  0.1853  0.6921 -0.2710
 6600TIP3    H141215   0.083   3.718   0.614 -0.2667  1.4181 -1.5644
 6600TIP3    H241216  -0.037   3.628   0.597  0.3169  0.2335  0.2680
 6601TIP3   OH241217   1.442   3.150   1.118  0.1082 -0.6434 -0.2484
 6601TIP3    H141218   1.443   3.154   1.023 -1.2561 -1.7903 -0.3489
 6601TIP3    H241219   1.525   3.110   1.141  0.2482 -0.7874 -0.9889
 6602TIP3   OH241220   2.741   0.704   5.039  0.8243  0.1637 -0.0372
 6602TIP3    H141221   2.647   0.720   5.041  0.8913  0.7099 -0.7025
 6602TIP3    H241222   2.753   0.622   5.087  0.1902  0.8581  1.3391
 6603TIP3   OH241223   5.734   5.119   4.703  0.7092 -0.2398  0.7202
 6603TIP3    H141224   5.735   5.191   4.639 -0.0553 -0.8019  0.0432
 6603TIP3    H241225   5.778   5.155   4.780  0.3944  0.9419  0.3844
 6604TIP3   OH241226   5.642   6.490   0.501  0.3875 -0.4915  0.2513
 6604TIP3    H141227   5.586   6.541   0.560  1.0115 -0.3181  0.6987
 6604TIP3    H241228   5.619   6.521   0.413  0.3367  0.1386  0.4801
 6605TIP3   OH241229   5.310   1.925  12.528 -0.1130  0.1765 -0.8706
 6605TIP3    H141230   5.217   1.902  12.518  0.4453 -3.1951  0.1871
 6605TIP3    H241231   5.354   1.840  12.536  2.7796  1.7013  0.9586
 6606TIP3   OH241232   3.304   1.622  15.871 -0.3744 -0.3081  0.4936
 6606TIP3    H141233   3.341   1.701  15.909 -0.0118  0.1787 -0.8040
 6606TIP3    H241234   3.212   1.644  15.853 -0.4970 -0.4756  0.9008
 6607TIP3   OH241235   6.632   3.054  15.094 -0.0125 -0.0077 -0.3368
 6607TIP3    H141236   6.637   3.081  15.186 -1.3261 -1.8724  0.3434
 6607TIP3    H241237   6.560   3.106  15.058 -0.4145 -0.2629  0.0849
 6608TIP3   OH241238   5.674   4.445  15.499  0.2167  0.3358 -0.3034
 6608TIP3    H141239   5.712   4.454  15.587  0.8412 -0.9038 -0.4293
 6608TIP3    H241240   5.749   4.452  15.440 -0.0503  0.0530 -0.6761
 6609TIP3   OH241241   4.313   1.354   4.517 -0.0769 -0.5808 -0.0967
 6609TIP3    H141242   4.289   1.433   4.468  0.9257 -0.3362 -0.2178
 6609TIP3    H241243   4.306   1.379   4.609 -0.0852 -0.4541 -0.1318
 6610TIP3   OH241244   0.048   0.829   4.108 -1.1573 -0.1905  0.0633
 6610TIP3    H141245   0.052   0.815   4.014  0.8389  0.5977 -0.0150
 6610TIP3    H241246  -0.034   0.876   4.122 -0.4889  1.5789 -1.5648
 6611TIP3   OH241247   3.370   4.341  15.469  0.0090  0.4957  0.3719
 6611TIP3    H141248   3.337   4.386  15.391 -0.9384 -1.7201 -0.6215
 6611TIP3    H241249   3.462   4.323  15.449 -0.2916 -0.2826 -0.3884
 6612TIP3   OH241250   3.773   4.650  15.189 -0.6751  0.2777 -0.3435
 6612TIP3    H141251   3.765   4.625  15.281  2.8130 -0.1377 -0.0037
 6612TIP3    H241252   3.704   4.601  15.144 -1.7667 -0.3545  1.8994
 6613TIP3   OH241253   6.275   2.293   4.454  0.3012  0.5847  0.2783
 6613TIP3    H141254   6.327   2.220   4.488 -1.2544 -1.1096 -0.8108
 6613TIP3    H241255   6.274   2.280   4.359 -1.2392  1.1429  0.1896
 6614TIP3   OH241256   6.197   0.035  13.067 -0.2172  0.2750 -0.3151
 6614TIP3    H141257   6.196  -0.057  13.038 -0.0370  0.3296 -0.4929
 6614TIP3    H241258   6.175   0.031  13.160  0.6846 -0.0239 -0.1056
 6615TIP3   OH241259   0.604   1.759   0.439  0.7090  0.0480 -0.2177
 6615TIP3    H141260   0.657   1.702   0.382  0.2940  1.7676 -2.4626
 6615TIP3    H241261   0.516   1.722   0.433  0.9069 -0.5544  0.4222
 6616TIP3   OH241262   3.905   0.563  13.301 -1.0625 -0.0718  0.0052
 6616TIP3    H141263   3.936   0.637  13.249 -3.1679  0.4707 -0.5780
 6616TIP3    H241264   3.975   0.547  13.364  1.0044  0.1078 -2.0991
 6617TIP3   OH241265   5.591   4.633   2.901  0.7073  0.1247  0.3892
 6617TIP3    H141266   5.632   4.715   2.870  1.2351 -0.2594  0.0569
 6617TIP3    H241267   5.613   4.629   2.994  1.7148 -0.2290  0.1546
 6618TIP3   OH241268   4.393   1.278  12.845 -0.3762  0.1970 -0.9956
 6618TIP3    H141269   4.331   1.352  12.845  1.5653  1.9228 -0.8314
 6618TIP3    H241270   4.473   1.314  12.884  0.2200 -2.4345  0.4511
 6619TIP3   OH241271   4.009   5.653  16.415 -0.3046  0.2435  0.4188
 6619TIP3    H141272   3.998   5.704  16.495  0.4019  0.1463  0.5799
 6619TIP3    H241273   4.090   5.685  16.376 -0.5859  0.2152 -0.2102
 6620TIP3   OH241274   0.916   2.139   3.559 -0.2512  0.3955  0.0922
 6620TIP3    H141275   0.832   2.184   3.550 -0.2548  0.5248  0.6964
 6620TIP3    H241276   0.896   2.047   3.543 -1.1197 -0.0584  3.0155
 6621TIP3   OH241277   4.777   2.277  15.026  0.1571 -0.1189 -0.4582
 6621TIP3    H141278   4.792   2.345  15.092 -0.1428  0.0217 -0.5363
 6621TIP3    H241279   4.727   2.210  15.073  1.2540 -0.7266 -0.1145
 6622TIP3   OH241280   3.291   2.096   3.497  0.5610  0.1903  0.7527
 6622TIP3    H141281   3.365   2.068   3.443  0.7952  0.4970  0.9118
 6622TIP3    H241282   3.315   2.069   3.586 -0.5683 -1.8568  0.5115
 6623TIP3   OH241283   4.381   2.492   4.832 -0.3379  0.1453 -0.1343
 6623TIP3    H141284   4.395   2.401   4.858 -0.8680 -0.2927 -1.3265
 6623TIP3    H241285   4.420   2.499   4.745  0.8361  1.4059  0.4675
 6624TIP3   OH241286   5.904   3.791   3.668  0.5422  0.0199  0.0291
 6624TIP3    H141287   5.864   3.712   3.631  0.6083 -0.4008  0.8280
 6624TIP3    H241288   5.922   3.846   3.592 -1.5602  0.2451 -0.3645
 6625TIP3   OH241289   3.753   5.053   1.218 -0.4927 -0.1313  0.8152
 6625TIP3    H141290   3.744   5.105   1.298 -2.1704  1.6283 -0.4262
 6625TIP3    H241291   3.702   5.101   1.153  1.2668 -1.2059 -1.4770
 6626TIP3   OH241292   6.775   4.061  11.761  0.1858 -0.5496  0.1358
 6626TIP3    H141293   6.830   4.000  11.811  0.6792 -1.2213 -1.1762
 6626TIP3    H241294   6.820   4.069  11.677 -0.7721  0.3260 -0.3045
 6627TIP3   OH241295   1.728   3.543  12.661 -0.2680 -0.3199 -0.2962
 6627TIP3    H141296   1.728   3.626  12.613 -0.1493  0.4488  0.9880
 6627TIP3    H241297   1.665   3.557  12.732 -0.4611 -1.4409 -0.2291
 6628TIP3   OH241298   2.540   1.596  14.198 -0.3429 -0.1135  0.2453
 6628TIP3    H141299   2.553   1.679  14.153  1.0994 -0.3788  0.1283
 6628TIP3    H241300   2.552   1.617  14.291  0.3017 -0.2449  0.1913
 6629TIP3   OH241301   6.236   2.975  12.304 -0.7284  0.7764 -0.4590
 6629TIP3    H141302   6.166   2.982  12.369  0.2820 -2.0218  1.1116
 6629TIP3    H241303   6.234   3.059  12.258 -3.6724  1.6196  0.9353
 6630TIP3   OH241304   6.321   6.485  16.837 -0.5636 -0.3065  0.3658
 6630TIP3    H141305   6.397   6.485  16.778 -1.2635  1.1105 -0.5806
 6630TIP3    H241306   6.291   6.394  16.837  1.2199 -0.9422  0.9140
 6631TIP3   OH241307   1.447   5.723  12.054 -0.3056 -0.3914 -0.2690
 6631TIP3    H141308   1.487   5.636  12.054  0.4306 -0.0633 -0.0955
 6631TIP3    H241309   1.398   5.728  12.136 -0.7220 -0.8066 -0.4909
 6632TIP3   OH241310   5.879   4.307   1.949 -0.2677 -0.6974  0.2847
 6632TIP3    H141311   5.923   4.392   1.951 -2.3495  0.6305 -2.1902
 6632TIP3    H241312   5.942   4.248   1.907  0.1668  0.4491 -0.7554
 6633TIP3   OH241313   3.985   2.327   2.782  0.2617  0.1065  0.3900
 6633TIP3    H141314   3.975   2.380   2.703  0.2736  1.3192  1.1949
 6633TIP3    H241315   3.963   2.238   2.753 -0.3645  0.6313 -0.8301
 6634TIP3   OH241316   6.510   6.362   4.217  0.1658 -0.2809  0.2885
 6634TIP3    H141317   6.592   6.359   4.168 -0.2847 -1.2271 -0.4349
 6634TIP3    H241318   6.444   6.386   4.152  0.0001  1.6725  1.0903
 6635TIP3   OH241319   0.420   2.625   1.450  0.1393 -0.1523 -0.4663
 6635TIP3    H141320   0.366   2.619   1.371 -0.6727  1.9239 -0.1256
 6635TIP3    H241321   0.359   2.609   1.522  1.1963 -3.8607 -0.1850
 6636TIP3   OH241322   2.145   1.286  16.851  0.1724  0.1422 -0.3568
 6636TIP3    H141323   2.165   1.196  16.825 -0.7229 -0.3040  0.3950
 6636TIP3    H241324   2.120   1.279  16.943  0.5755  1.2421 -0.1500
 6637TIP3   OH241325   5.737   3.056   4.103 -0.6864  0.2025 -0.0246
 6637TIP3    H141326   5.674   3.029   4.169  0.6023 -1.1505  0.7129
 6637TIP3    H241327   5.787   3.126   4.144  0.6305 -1.1650  0.7836
 6638TIP3   OH241328   1.174   3.387  11.774 -0.0982 -0.1123 -0.7486
 6638TIP3    H141329   1.119   3.330  11.828  0.7126  0.8154  1.1246
 6638TIP3    H241330   1.118   3.460  11.750 -0.0824  0.1528  0.0087
 6639TIP3   OH241331   6.533   5.631   5.709 -0.1972  0.1661  0.8816
 6639TIP3    H141332   6.599   5.578   5.754 -0.8397 -1.3353  0.0970
 6639TIP3    H241333   6.566   5.640   5.620  0.6069  2.3428  1.3294
 6640TIP3   OH241334   6.206   0.087   5.265 -0.3111 -0.3695  0.9214
 6640TIP3    H141335   6.189   0.013   5.207 -0.5755 -0.1636  0.7326
 6640TIP3    H241336   6.230   0.047   5.349 -1.9442 -0.6915  1.2747
 6641TIP3   OH241337   0.556   6.659   2.337 -0.0167  0.2280 -0.0843
 6641TIP3    H141338   0.592   6.649   2.425 -1.6631 -1.3179  0.4972
 6641TIP3    H241339   0.601   6.592   2.285 -0.2403 -0.0256  0.0384
 6642TIP3   OH241340   1.822   5.793  13.009  0.4027 -0.0612 -0.1292
 6642TIP3    H141341   1.914   5.811  12.987  0.8345 -2.0506 -0.2210
 6642TIP3    H241342   1.824   5.776  13.103  0.7213 -2.7903 -0.5243
 6643TIP3   OH241343   0.960   4.963  11.205 -0.3189  0.1240 -0.0709
 6643TIP3    H141344   1.017   5.031  11.169 -0.1513 -0.5085 -1.0508
 6643TIP3    H241345   0.940   4.992  11.294  1.3154  0.4801  0.2045
 6644TIP3   OH241346   4.791   3.177  10.393 -0.5757 -0.1074 -0.0504
 6644TIP3    H141347   4.732   3.240  10.435  2.2566  1.0875  2.5055
 6644TIP3    H241348   4.824   3.223  10.316 -1.2672  0.0923 -0.2312
 6645TIP3   OH241349   6.034   5.986  15.409  0.0770  0.5002 -0.6103
 6645TIP3    H141350   5.957   5.994  15.353  0.3219 -0.1754 -1.0580
 6645TIP3    H241351   5.999   5.979  15.497 -0.3805  0.1429 -0.8167
 6646TIP3   OH241352   4.879   2.008  13.923  0.3321 -0.3917 -0.3219
 6646TIP3    H141353   4.906   1.938  13.863  0.0903 -0.0598 -0.8281
 6646TIP3    H241354   4.800   1.974  13.966  0.3805 -0.5435 -0.3533
 6647TIP3   OH241355   6.183   0.935   4.934 -0.2325  0.0125  0.5931
 6647TIP3    H141356   6.098   0.904   4.904 -0.1465  0.1532  0.2040
 6647TIP3    H241357   6.171   0.951   5.028 -0.2207 -1.4138  0.8706
 6648TIP3   OH241358   2.219   1.817  16.968 -0.1698  0.0564 -0.2094
 6648TIP3    H141359   2.228   1.826  17.063  1.6647 -0.3027 -0.3158
 6648TIP3    H241360   2.240   1.726  16.950  1.2011  0.5173 -1.1050
 6649TIP3   OH241361   4.812   3.983   2.233 -0.4562  0.1015 -0.4891
 6649TIP3    H141362   4.872   3.917   2.198 -2.1348 -1.0221 -1.4274
 6649TIP3    H241363   4.750   3.932   2.286 -0.1166  1.3265  1.1346
 6650TIP3   OH241364   6.081   1.081   2.446  0.1497  0.1791  0.4962
 6650TIP3    H141365   5.994   1.115   2.424  0.3588  1.4560  1.5038
 6650TIP3    H241366   6.071   1.042   2.532  0.2930 -0.8870  0.0427
 6651TIP3   OH241367   4.770   4.194  15.074  0.5935  0.0994  0.6193
 6651TIP3    H141368   4.683   4.227  15.054  1.3159  1.5191 -0.4319
 6651TIP3    H241369   4.793   4.235  15.157  0.2541 -0.3084  0.9174
 6652TIP3   OH241370   2.589   6.567   0.050  0.2398 -0.8974 -0.1299
 6652TIP3    H141371   2.542   6.484   0.037  0.7627 -1.3633  0.8893
 6652TIP3    H241372   2.670   6.542   0.093  0.8224  0.0552 -0.6552
 6653TIP3   OH241373   2.181   2.565   4.883 -0.4817 -0.1121 -0.2278
 6653TIP3    H141374   2.187   2.614   4.965  0.4535  0.8883 -0.8791
 6653TIP3    H241375   2.195   2.630   4.815  0.5117 -1.2308 -1.1273
 6654TIP3   OH241376   6.139   2.464  11.513 -0.6147 -0.0001 -0.2491
 6654TIP3    H141377   6.118   2.490  11.602  1.2269  1.6832 -0.2314
 6654TIP3    H241378   6.235   2.466  11.510 -0.6462  1.7737 -2.7269
 6655TIP3   OH241379   3.818   0.698   0.328 -0.3802  0.0265  0.0031
 6655TIP3    H141380   3.725   0.721   0.324 -0.3163  0.1670 -0.7062
 6655TIP3    H241381   3.861   0.759   0.268  0.0878 -0.4820 -0.1866
 6656TIP3   OH241382   0.770   1.300   2.196 -0.1788  0.0088 -0.1307
 6656TIP3    H141383   0.762   1.362   2.123  2.1031  0.1651 -0.3153
 6656TIP3    H241384   0.799   1.219   2.156 -1.4197 -0.7034  0.3416
 6657TIP3   OH241385   6.111   6.554   3.185  0.1336 -0.8847  0.1853
 6657TIP3    H141386   6.064   6.509   3.255  0.7210 -0.0129  1.1726
 6657TIP3    H241387   6.115   6.491   3.114 -0.2766 -1.8745  1.0212
 6658TIP3   OH241388   3.268   6.330  13.324  0.0617 -0.2104 -0.4671
 6658TIP3    H141389   3.198   6.393  13.341 -1.3740 -1.4540 -1.5486
 6658TIP3    H241390   3.300   6.305  13.411  0.3930  1.6544  0.0015
 6659TIP3   OH241391   1.887   0.027   2.917 -0.0231 -1.0537  0.0917
 6659TIP3    H141392   1.900  -0.004   2.827 -0.4324 -1.2530  0.0995
 6659TIP3    H241393   1.958   0.089   2.931 -0.1061 -0.8266 -0.4605
 6660TIP3   OH241394   5.133   1.172   1.555 -0.0103 -0.4507  0.2012
 6660TIP3    H141395   5.188   1.124   1.493 -0.1555 -0.6745  0.2459
 6660TIP3    H241396   5.072   1.221   1.500 -0.9310 -1.5812  0.1804
 6661TIP3   OH241397   2.162   0.615  14.351  0.1678 -0.2155  0.4180
 6661TIP3    H141398   2.140   0.601  14.443  0.4328  0.3415  0.5735
 6661TIP3    H241399   2.169   0.527  14.314 -0.7352 -0.4328  0.7336
 6662TIP3   OH241400   5.808   4.992   3.368  0.6965 -0.3300  0.5157
 6662TIP3    H141401   5.871   5.062   3.350 -0.8533  0.5123 -2.3279
 6662TIP3    H241402   5.745   5.031   3.429 -0.5423  1.1409 -1.5664
 6663TIP3   OH241403   5.394   3.634  13.668  0.4241  0.9423 -0.1614
 6663TIP3    H141404   5.356   3.630  13.580 -1.5384 -0.2542  0.6751
 6663TIP3    H241405   5.473   3.580  13.663 -0.2109  0.0582 -0.9652
 6664TIP3   OH241406   4.695   3.757   0.652  0.1851 -0.1467 -0.4804
 6664TIP3    H141407   4.680   3.846   0.621  1.8234  0.5192  0.4984
 6664TIP3    H241408   4.704   3.705   0.573  1.5123  0.9988 -1.1331
 6665TIP3   OH241409   2.114   4.461  16.202  0.1031 -0.6773 -0.4429
 6665TIP3    H141410   2.095   4.382  16.252 -2.4574 -0.4945 -0.9733
 6665TIP3    H241411   2.109   4.532  16.266 -0.9575 -0.6577 -0.5272
 6666TIP3   OH241412   4.177   3.378  13.000 -0.2104  0.6396  0.4800
 6666TIP3    H141413   4.119   3.371  13.076  0.9516 -2.5326  1.2469
 6666TIP3    H241414   4.264   3.355  13.034  0.5307  0.1520 -1.6031
 6667TIP3   OH241415   2.168   2.439   5.252 -0.5149  0.3980  0.0682
 6667TIP3    H141416   2.096   2.421   5.313  0.1294  0.4187  0.8402
 6667TIP3    H241417   2.146   2.388   5.174 -0.8857 -0.3646  0.6576
 6668TIP3   OH241418   5.869   4.074  12.442  1.2270 -0.1531  0.1254
 6668TIP3    H141419   5.913   4.079  12.358  2.7355  0.8805  0.9207
 6668TIP3    H241420   5.814   4.152  12.445 -0.3529 -1.1901 -0.6641
 6669TIP3   OH241421   6.035   6.094   3.891  0.0720  0.0178  0.0008
 6669TIP3    H141422   6.062   6.073   3.802  1.6416 -1.1576  0.7088
 6669TIP3    H241423   5.964   6.033   3.910 -0.4108  0.4178 -0.5059
 6670TIP3   OH241424   0.214   2.140   2.296 -0.0620 -0.0849  0.4763
 6670TIP3    H141425   0.281   2.118   2.360  0.6905  0.5065 -0.0856
 6670TIP3    H241426   0.163   2.210   2.337  1.2052  1.1835 -0.0433
 6671TIP3   OH241427   2.137   5.591   1.197  0.4693 -0.1419  0.2900
 6671TIP3    H141428   2.215   5.554   1.239  0.8610  1.6926  1.2831
 6671TIP3    H241429   2.073   5.520   1.199  1.6342 -1.2182  0.8108
 6672TIP3   OH241430   0.346   5.460  13.645 -0.4025  0.5977  0.0226
 6672TIP3    H141431   0.368   5.419  13.729 -0.2526 -0.1370 -0.3765
 6672TIP3    H241432   0.408   5.533  13.638  0.7781 -0.3978 -0.2680
 6673TIP3   OH241433   2.040   0.211   3.053  0.0558 -0.1542  0.9509
 6673TIP3    H141434   1.998   0.294   3.076  1.1699  0.9093 -0.6901
 6673TIP3    H241435   2.132   0.233   3.038  0.3671 -1.6804  0.3982
 6674TIP3   OH241436   4.755   6.423  15.213 -0.2589 -0.0434  0.9713
 6674TIP3    H141437   4.820   6.362  15.246  0.9656  0.5413 -0.2566
 6674TIP3    H241438   4.701   6.371  15.154  1.2612  0.1487 -0.6864
 6675TIP3   OH241439   0.055   5.465  17.134  1.0393  0.4409 -0.4005
 6675TIP3    H141440   0.075   5.427  17.048 -1.2419 -1.1410 -0.3243
 6675TIP3    H241441   0.013   5.549  17.114 -1.3565 -0.8254 -1.0019
 6676TIP3   OH241442   6.426   5.503  12.801  0.5675 -0.1228 -0.6289
 6676TIP3    H141443   6.405   5.562  12.873  0.0553  1.6962 -2.2000
 6676TIP3    H241444   6.346   5.497  12.750  0.0347 -3.6097  0.3399
 6677TIP3   OH241445   4.411   2.225   2.900  0.3293 -0.9310  0.1319
 6677TIP3    H141446   4.345   2.174   2.948  0.2304 -0.3079  0.6850
 6677TIP3    H241447   4.467   2.160   2.859 -0.0913 -1.4807  0.4151
 6678TIP3   OH241448   6.476   3.274   4.102 -0.7135  0.3959  0.5436
 6678TIP3    H141449   6.397   3.327   4.116  0.0089  1.8035 -0.4666
 6678TIP3    H241450   6.454   3.189   4.139 -2.1353  1.2133  1.7009
 6679TIP3   OH241451   5.374   6.559   1.555 -0.1628 -0.6857  0.0999
 6679TIP3    H141452   5.400   6.485   1.610 -0.4588 -1.1225 -0.3384
 6679TIP3    H241453   5.457   6.592   1.519  0.3084  1.0283  2.5158
 6680TIP3   OH241454   6.605   5.590   5.446 -0.1847  0.2678 -0.0033
 6680TIP3    H141455   6.554   5.648   5.390 -0.2006  0.3743  0.1202
 6680TIP3    H241456   6.674   5.556   5.389 -0.2572  0.3008 -0.1118
 6681TIP3   OH241457   0.975   6.478  11.724  0.4137  0.0105  0.6081
 6681TIP3    H141458   0.888   6.465  11.686  1.1097 -0.6355 -0.8364
 6681TIP3    H241459   0.995   6.570  11.706 -0.0903  0.2621  1.2654
 6682TIP3   OH241460   3.846   5.361  15.438  0.2540  0.0066 -0.1530
 6682TIP3    H141461   3.774   5.423  15.452  1.2309  0.7662  1.9269
 6682TIP3    H241462   3.845   5.345  15.343 -1.7348  1.0821 -0.3788
 6683TIP3   OH241463   2.814   3.465   4.945 -0.1544 -0.3624 -0.2841
 6683TIP3    H141464   2.880   3.480   4.877 -0.9694  1.0162 -0.8364
 6683TIP3    H241465   2.820   3.372   4.965  2.5700 -0.1234  0.3516
 6684TIP3   OH241466   1.355   3.897   4.317  0.2340 -0.4843  0.5061
 6684TIP3    H141467   1.282   3.958   4.323  0.0587 -0.6891  0.4543
 6684TIP3    H241468   1.398   3.919   4.234 -0.3137 -0.9703  0.0884
 6685TIP3   OH241469   4.078   6.206   2.547 -0.2957 -0.3110  0.4829
 6685TIP3    H141470   4.161   6.233   2.587  1.8177  0.0843 -3.5722
 6685TIP3    H241471   4.028   6.287   2.538  0.0977 -0.0642  0.5018
 6686TIP3   OH241472   3.561   2.315  12.262  0.4522  0.4427 -0.1745
 6686TIP3    H141473   3.538   2.234  12.218  0.3413 -1.2975  2.8043
 6686TIP3    H241474   3.636   2.349  12.213 -0.9900 -0.1072 -2.9199
 6687TIP3   OH241475   2.249   3.931  14.373 -0.0182  0.2763 -0.2720
 6687TIP3    H141476   2.327   3.876  14.370 -0.5159 -0.4669 -0.0083
 6687TIP3    H241477   2.245   3.972  14.286  0.5141  0.1108 -0.3745
 6688TIP3   OH241478   6.179   1.566   5.857  0.6084  0.2967  0.1827
 6688TIP3    H141479   6.170   1.643   5.801 -4.7097 -0.4912 -0.5825
 6688TIP3    H241480   6.195   1.601   5.944  4.2161  1.7629 -0.8821
 6689TIP3   OH241481   4.997   6.180   2.075  0.1356 -0.2569 -0.2773
 6689TIP3    H141482   5.023   6.253   2.132 -1.5022 -0.6670  1.0822
 6689TIP3    H241483   4.922   6.212   2.026 -1.8785 -1.5346  1.7639
 6690TIP3   OH241484   6.669   4.781   2.173  0.0777  0.0431 -0.1384
 6690TIP3    H141485   6.619   4.850   2.129 -1.9832 -1.0842  0.3541
 6690TIP3    H241486   6.624   4.700   2.152  1.0950 -0.9206  1.1765
 6691TIP3   OH241487   6.176   0.438  11.463 -0.3226 -0.0984 -0.3261
 6691TIP3    H141488   6.173   0.449  11.558  2.4612  0.2452 -0.1937
 6691TIP3    H241489   6.145   0.523  11.428  3.5713  1.8581  0.4603
 6692TIP3   OH241490   4.738   2.671  14.533 -0.6950 -0.0755  0.6330
 6692TIP3    H141491   4.767   2.679  14.624  0.0104  1.3159  0.3235
 6692TIP3    H241492   4.819   2.666  14.482 -1.0182  1.1026 -0.0484
 6693TIP3   OH241493   6.305   2.716   4.664  0.1890 -0.0544  0.4988
 6693TIP3    H141494   6.308   2.622   4.679 -1.4056  0.0172  1.5598
 6693TIP3    H241495   6.365   2.753   4.729 -0.8956 -0.2262  1.6301
 6694TIP3   OH241496   1.028   0.474   1.517  0.4187 -0.4776 -0.3830
 6694TIP3    H141497   1.084   0.474   1.595  1.6386  2.0744 -1.1614
 6694TIP3    H241498   1.056   0.397   1.468  0.6816 -1.2751  0.9691
 6695TIP3   OH241499   2.175   2.994  13.012  0.2827 -0.2524  0.4165
 6695TIP3    H141500   2.175   3.037  13.098  0.4467  1.2150 -0.2827
 6695TIP3    H241501   2.215   3.059  12.953  0.7385 -1.4671 -0.6586
 6696TIP3   OH241502   6.031   6.098   4.543 -0.8968  0.6588 -0.2671
 6696TIP3    H141503   5.973   6.141   4.606  0.8737  0.4017  1.6476
 6696TIP3    H241504   6.074   6.170   4.497 -0.1373  0.9365  0.8361
 6697TIP3   OH241505   2.049   3.533   5.615  0.0486  0.3672 -0.3710
 6697TIP3    H141506   1.993   3.611   5.624 -0.7473 -0.1426 -0.7542
 6697TIP3    H241507   2.024   3.496   5.530 -2.0973 -2.2381  1.2573
 6698TIP3   OH241508   3.646   1.586   1.390  0.5851 -0.7995  0.6732
 6698TIP3    H141509   3.621   1.646   1.319  1.8878 -1.1598 -0.1218
 6698TIP3    H241510   3.651   1.641   1.468 -1.9181 -0.5724  0.7652
 6699TIP3   OH241511   5.627   4.880   0.854  0.3015 -0.2499 -0.2089
 6699TIP3    H141512   5.547   4.845   0.894 -2.1932  2.7284 -2.1121
 6699TIP3    H241513   5.671   4.927   0.926  0.7431 -2.3559  0.9877
 6700TIP3   OH241514   2.050   3.717   3.187 -0.1056  0.2321  0.0909
 6700TIP3    H141515   2.100   3.760   3.256  1.2910 -0.2933 -0.5610
 6700TIP3    H241516   2.095   3.741   3.106 -0.7857 -0.4409 -0.5023
 6701TIP3   OH241517   4.043   2.952   0.310 -0.3298 -0.2375  0.1116
 6701TIP3    H141518   4.132   2.928   0.283 -1.1034 -3.7215  0.1477
 6701TIP3    H241519   4.054   3.005   0.389  1.7115 -0.0356 -0.2746
 6702TIP3   OH241520   4.440   2.640   1.374 -0.1780 -0.4188 -0.0367
 6702TIP3    H141521   4.427   2.728   1.409  0.3175 -0.7098  0.9299
 6702TIP3    H241522   4.479   2.591   1.447 -1.4608 -1.7364 -0.1803
 6703TIP3   OH241523   3.421   2.206  14.589  0.0833  0.2424 -0.2801
 6703TIP3    H141524   3.379   2.291  14.584 -1.4118 -0.4618 -0.1177
 6703TIP3    H241525   3.395   2.170  14.673  0.2192 -0.6131 -0.5891
 6704TIP3   OH241526   1.078   1.151   3.638  0.1518  0.5805  0.2787
 6704TIP3    H141527   1.106   1.093   3.709 -0.6905  1.2482  1.1825
 6704TIP3    H241528   1.153   1.209   3.625  0.3565  0.3808  0.5506
 6705TIP3   OH241529   5.084   3.396  12.746 -0.2694  0.4528  0.0146
 6705TIP3    H141530   5.105   3.303  12.739  0.4588  0.6725 -0.9896
 6705TIP3    H241531   4.998   3.405  12.705 -0.0036  0.3302 -0.5783
 6706TIP3   OH241532   6.389   3.990  14.046 -0.1741  0.1799  0.4488
 6706TIP3    H141533   6.295   3.972  14.052  0.0731 -0.8738  1.5969
 6706TIP3    H241534   6.409   3.982  13.953 -0.9979 -0.9326  0.3428
 6707TIP3   OH241535   3.648   2.416   2.277  0.3935 -0.5689 -0.1099
 6707TIP3    H141536   3.607   2.483   2.222  0.6147 -0.0759  0.3100
 6707TIP3    H241537   3.742   2.434   2.270  0.5186 -1.4043 -0.7042
 6708TIP3   OH241538   2.958   5.520  14.529 -0.2647  0.5399  0.4646
 6708TIP3    H141539   2.887   5.495  14.470 -0.4518  0.1282  0.8542
 6708TIP3    H241540   2.950   5.459  14.603  1.3258 -0.4435 -0.1105
 6709TIP3   OH241541   4.959   3.045   4.542  0.2605 -0.2857 -0.3744
 6709TIP3    H141542   4.997   3.088   4.465  0.6513  0.3680  0.1649
 6709TIP3    H241543   5.035   3.019   4.594  0.0087  1.6393  1.0501
 6710TIP3   OH241544   2.244   1.509  15.108 -0.1655  0.3664  0.0017
 6710TIP3    H141545   2.295   1.441  15.064 -0.4292 -1.0263  1.7389
 6710TIP3    H241546   2.289   1.591  15.086  0.3438 -0.3689 -1.8872
 6711TIP3   OH241547   2.416   5.482  13.439  0.2111 -0.1151 -0.6013
 6711TIP3    H141548   2.427   5.387  13.448 -1.9215 -0.3618  0.0105
 6711TIP3    H241549   2.359   5.492  13.363 -1.1155  0.5408  0.4520
 6712TIP3   OH241550   1.318   0.471  14.679 -0.0638 -0.2465 -1.0668
 6712TIP3    H141551   1.244   0.471  14.739  0.2279  1.8967 -0.6183
 6712TIP3    H241552   1.288   0.523  14.604  0.6517 -0.1891 -1.3212
 6713TIP3   OH241553   5.650   2.977  11.173 -0.0955  0.1412 -0.7236
 6713TIP3    H141554   5.612   2.903  11.220  0.9078  0.2591  0.3019
 6713TIP3    H241555   5.593   2.988  11.097 -0.5190 -1.3907 -0.6599
 6714TIP3   OH241556   2.188   2.145  15.438  0.2311  0.1600 -0.8540
 6714TIP3    H141557   2.276   2.148  15.475 -0.1964 -0.4657  0.2400
 6714TIP3    H241558   2.201   2.106  15.351  1.2395  1.6823 -1.4368
 6715TIP3   OH241559   3.534   2.464  14.433 -0.1237  0.3967 -0.1177
 6715TIP3    H141560   3.543   2.507  14.348  1.2194  1.1460  0.3649
 6715TIP3    H241561   3.471   2.518  14.481 -0.2040  0.4885 -0.3286
 6716TIP3   OH241562   5.883   3.933  12.741 -0.4008 -0.2491  0.0607
 6716TIP3    H141563   5.850   3.853  12.699 -2.2381  0.1141  0.7237
 6716TIP3    H241564   5.807   3.990  12.748  0.9131  1.7149 -0.6488
 6717TIP3   OH241565   0.008   1.724  12.732 -0.0877 -0.2713  0.7597
 6717TIP3    H141566  -0.064   1.763  12.683  1.9066  2.2502 -0.4518
 6717TIP3    H241567   0.005   1.767  12.818 -0.4587 -0.7504  0.9915
 6718TIP3   OH241568   4.488   3.827   3.804 -0.3773  0.2905  0.5167
 6718TIP3    H141569   4.439   3.903   3.837 -0.2849 -0.2726  2.0187
 6718TIP3    H241570   4.577   3.861   3.792 -0.3834  0.4904  0.9832
 6719TIP3   OH241571   3.678   2.355  15.623 -0.0267 -0.0041  0.2987
 6719TIP3    H141572   3.695   2.405  15.544 -0.4363  1.1144  0.8995
 6719TIP3    H241573   3.582   2.344  15.625 -0.0851  0.5542  0.9715
 6720TIP3   OH241574   4.707   4.967   5.770  0.1045  0.3848 -0.9385
 6720TIP3    H141575   4.749   4.934   5.849 -0.6598 -0.6360 -0.9280
 6720TIP3    H241576   4.779   4.994   5.714  0.6763  0.6192 -0.1035
 6721TIP3   OH241577   0.495   5.243  10.525  0.0209  0.0032  0.6896
 6721TIP3    H141578   0.457   5.322  10.566  1.3665  0.9084  0.2513
 6721TIP3    H241579   0.552   5.206  10.592  0.4668  0.1977  0.4209
 6722TIP3   OH241580   0.438   3.032   4.459 -0.3748 -0.1625 -0.3175
 6722TIP3    H141581   0.470   3.071   4.378  1.5180 -1.1687 -0.0992
 6722TIP3    H241582   0.462   2.940   4.453 -1.6065 -0.5786  0.7186
 6723TIP3   OH241583   4.362   1.460  12.589 -0.2945 -0.1345  0.8519
 6723TIP3    H141584   4.427   1.391  12.599 -2.2429 -2.1310  0.6210
 6723TIP3    H241585   4.297   1.441  12.658 -1.8385  0.2878 -0.4300
 6724TIP3   OH241586   3.089   5.559   6.346 -0.0045  0.1648 -0.5546
 6724TIP3    H141587   3.072   5.542   6.254  0.2528 -0.5286 -0.4847
 6724TIP3    H241588   3.003   5.575   6.384 -0.1435  0.1265 -0.8508
 6725TIP3   OH241589   3.437   1.184   0.819 -0.3984 -0.3894 -0.0817
 6725TIP3    H141590   3.370   1.234   0.774  1.8560  1.6186 -1.4412
 6725TIP3    H241591   3.485   1.139   0.749  0.8657 -0.1751  0.6057
 6726TIP3   OH241592   2.773   6.189   1.854 -0.4221  0.1513 -0.0768
 6726TIP3    H141593   2.709   6.229   1.913 -0.4510  0.5783 -0.3993
 6726TIP3    H241594   2.857   6.229   1.880 -0.1348 -1.0228  0.9155
 6727TIP3   OH241595   0.172   2.638  10.873 -0.5960  0.2664 -0.1452
 6727TIP3    H141596   0.188   2.700  10.802  1.0387 -0.6181 -0.6088
 6727TIP3    H241597   0.087   2.599  10.852 -1.4632  2.0204 -0.0557
 6728TIP3   OH241598   4.935   4.127  16.480 -0.2650 -0.0276  0.8502
 6728TIP3    H141599   4.928   4.142  16.386  0.6093  0.5896  0.8750
 6728TIP3    H241600   4.848   4.148  16.514 -0.2038  1.0844  0.3529
 6729TIP3   OH241601   3.087   6.115   3.751  0.6804  0.2948  0.3920
 6729TIP3    H141602   3.066   6.194   3.801  1.0447 -0.1279  1.2321
 6729TIP3    H241603   3.086   6.144   3.659  0.2129  1.1304  0.6485
 6730TIP3   OH241604   3.371   0.936   2.018  0.1325 -0.4377  0.2857
 6730TIP3    H141605   3.350   0.916   1.927 -1.6872  2.2008 -0.0028
 6730TIP3    H241606   3.453   0.890   2.034  0.4677 -1.0878 -2.6450
 6731TIP3   OH241607   2.253   5.290  16.108 -0.1818  1.0041 -0.4108
 6731TIP3    H141608   2.329   5.282  16.050  0.0452 -0.3904  0.0279
 6731TIP3    H241609   2.179   5.300  16.049 -0.0199 -0.9297 -1.0192
 6732TIP3   OH241610   6.092   4.560  16.964  0.2501 -1.2029  0.3306
 6732TIP3    H141611   6.116   4.551  17.056 -1.2021 -1.8556  0.6603
 6732TIP3    H241612   6.022   4.497  16.950 -0.4366 -0.2249 -0.8979
 6733TIP3   OH241613   0.780   0.348  14.017  0.3716 -0.4498  0.1375
 6733TIP3    H141614   0.705   0.290  14.026  0.1280 -0.2145 -0.3982
 6733TIP3    H241615   0.796   0.380  14.106 -0.3838 -0.2101  0.1851
 6734TIP3   OH241616   6.239   5.843   4.417  0.0122  0.2196 -0.0396
 6734TIP3    H141617   6.257   5.826   4.510  0.7665  0.1282 -0.1954
 6734TIP3    H241618   6.215   5.757   4.382  0.7194  0.0508 -0.1377
 6735TIP3   OH241619   3.986   4.680  13.313  0.4507 -0.0788  0.6535
 6735TIP3    H141620   3.987   4.738  13.237  2.2707 -0.3627  0.4073
 6735TIP3    H241621   3.954   4.597  13.278 -1.2552  0.4953  0.8015
 6736TIP3   OH241622   2.152   0.102  14.721 -0.5578  0.2473  0.4685
 6736TIP3    H141623   2.090   0.160  14.676 -0.2177  0.7060  0.5834
 6736TIP3    H241624   2.229   0.157  14.737  0.2818 -0.5689 -0.5617
 6737TIP3   OH241625   6.613   4.371  15.773 -0.0150 -0.0130  0.5874
 6737TIP3    H141626   6.681   4.372  15.841  0.3594  0.8890  0.2021
 6737TIP3    H241627   6.651   4.418  15.700 -0.8709  0.0531  0.1750
 6738TIP3   OH241628   1.893   5.975  17.141  0.5939  0.1044 -0.3816
 6738TIP3    H141629   1.948   6.021  17.078 -1.4035 -0.6367 -2.8161
 6738TIP3    H241630   1.872   6.041  17.207  0.4066  1.7968 -2.0546
 6739TIP3   OH241631   1.575   0.896   5.901  0.4768  0.5160  0.1082
 6739TIP3    H141632   1.613   0.853   5.978  0.9482  1.4495  0.4136
 6739TIP3    H241633   1.629   0.866   5.828  0.8985  0.7029  0.3389
 6740TIP3   OH241634   4.945   3.601  15.857 -0.0707 -0.2543 -0.0931
 6740TIP3    H141635   5.041   3.596  15.861  0.0627  1.8521  0.9019
 6740TIP3    H241636   4.919   3.626  15.946 -1.3957  0.8534 -0.7497
 6741TIP3   OH241637   0.418   5.497   5.626  0.1736  0.0581 -0.3421
 6741TIP3    H141638   0.369   5.574   5.596 -0.8777  0.1066  1.3422
 6741TIP3    H241639   0.358   5.453   5.687  1.2228 -1.4173 -0.3222
 6742TIP3   OH241640   4.811   1.458  14.208 -0.4448 -0.5133 -0.0131
 6742TIP3    H141641   4.903   1.453  14.234 -0.4236  0.9345  0.2897
 6742TIP3    H241642   4.768   1.505  14.280 -1.1475  0.0672 -0.7889
 6743TIP3   OH241643   1.262   1.312  14.986 -0.1953  0.1876  0.1105
 6743TIP3    H141644   1.332   1.312  15.051  0.4589  0.0553 -0.5862
 6743TIP3    H241645   1.182   1.328  15.037  0.3484  0.4524  0.8933
 6744TIP3   OH241646   0.596   4.540  14.877 -0.0240 -0.1576 -0.6845
 6744TIP3    H141647   0.666   4.526  14.813 -0.3122 -1.9002 -0.6699
 6744TIP3    H241648   0.569   4.451  14.902  1.4333  0.3529  3.3836
 6745TIP3   OH241649   3.252   4.241   2.620 -0.1165 -0.4538  0.3074
 6745TIP3    H141650   3.243   4.198   2.706 -1.2203 -2.2768 -0.6627
 6745TIP3    H241651   3.256   4.169   2.558  3.2899  0.7093 -1.0444
 6746TIP3   OH241652   2.212   1.123  15.428 -0.5629  0.0298 -0.0418
 6746TIP3    H141653   2.152   1.192  15.456 -0.5091 -0.0661  0.3177
 6746TIP3    H241654   2.215   1.063  15.502 -0.4146 -0.2297 -0.2557
 6747TIP3   OH241655   6.293   1.907   6.020  0.4525 -0.0845  0.1426
 6747TIP3    H141656   6.256   1.820   6.033  0.2984  0.0188  0.4081
 6747TIP3    H241657   6.280   1.951   6.104 -1.2014  0.8427 -0.5589
 6748TIP3   OH241658   1.296   4.197   0.126  0.1241  0.2850 -0.0594
 6748TIP3    H141659   1.239   4.248   0.184  0.2064 -0.6152  0.8411
 6748TIP3    H241660   1.236   4.137   0.081  0.1032  0.7599 -0.6726
 6749TIP3   OH241661   1.386   1.921   5.126 -0.4935 -0.4361  0.4046
 6749TIP3    H141662   1.424   1.944   5.041 -0.3524  1.9003  1.0162
 6749TIP3    H241663   1.415   1.832   5.143  0.0154 -0.7125 -1.6889
 6750TIP3   OH241664   2.414   5.513  16.637 -0.5917 -0.2585 -0.3763
 6750TIP3    H141665   2.479   5.584  16.635  1.1638 -1.7665 -0.3324
 6750TIP3    H241666   2.379   5.511  16.548 -0.8278  0.7800 -0.3264
 6751TIP3   OH241667   4.597   2.398  14.153  0.1297 -0.3979  0.2496
 6751TIP3    H141668   4.626   2.409  14.062 -0.4675 -0.0882  0.0907
 6751TIP3    H241669   4.531   2.329  14.148 -0.7638  0.4315  0.2539
 6752TIP3   OH241670   6.325   5.109  15.886  0.0871  0.0119  0.4124
 6752TIP3    H141671   6.237   5.071  15.888  1.2011 -2.8840 -0.0849
 6752TIP3    H241672   6.343   5.123  15.793  1.3505 -2.7807  0.1363
 6753TIP3   OH241673   6.225   4.167  14.312 -0.6317  0.0326 -0.2753
 6753TIP3    H141674   6.312   4.130  14.300 -1.4882 -1.6529 -1.9559
 6753TIP3    H241675   6.205   4.151  14.404  0.5595 -0.1630 -0.0320
 6754TIP3   OH241676   0.622   3.172  12.004 -0.1429 -0.9674 -0.4979
 6754TIP3    H141677   0.530   3.147  12.003 -0.0780 -1.2971  0.5006
 6754TIP3    H241678   0.636   3.217  11.921 -0.9578 -1.7818 -1.1013
 6755TIP3   OH241679   3.169   5.322   3.581 -0.4944  0.1828 -0.1075
 6755TIP3    H141680   3.116   5.307   3.660 -0.2911 -0.0246 -0.0099
 6755TIP3    H241681   3.163   5.241   3.532  1.2666 -0.5675  0.8122
 6756TIP3   OH241682   2.891   2.663  16.095  0.0530  0.2309 -0.4094
 6756TIP3    H141683   2.871   2.570  16.088  0.8736 -0.1434  1.5508
 6756TIP3    H241684   2.987   2.667  16.090  0.1957  0.6750  1.6275
 6757TIP3   OH241685   2.082   3.201   2.032 -0.6070 -0.1350  0.1114
 6757TIP3    H141686   2.125   3.285   2.045 -0.3438 -0.5870  2.5941
 6757TIP3    H241687   2.038   3.183   2.115 -1.2120 -2.1407 -0.5820
 6758TIP3   OH241688   2.885   3.419   3.483  0.3037 -0.3559  0.5652
 6758TIP3    H141689   2.923   3.461   3.560 -1.9166  0.3754  1.3404
 6758TIP3    H241690   2.848   3.337   3.516 -0.1713 -0.3111  0.1524
 6759TIP3   OH241691   6.065   3.585   4.475 -0.0837 -0.0972 -0.0921
 6759TIP3    H141692   5.974   3.584   4.506 -0.7068 -0.8540 -1.8194
 6759TIP3    H241693   6.117   3.584   4.555 -1.6033 -0.9754  0.9481
 6760TIP3   OH241694   4.720   1.788  11.429 -0.5418 -0.4057 -0.0398
 6760TIP3    H141695   4.658   1.819  11.363 -0.4070 -0.2718 -0.1048
 6760TIP3    H241696   4.693   1.698  11.447  0.1011 -0.8400 -1.1107
 6761TIP3   OH241697   2.982   2.237  13.089 -0.9653  0.2031 -0.9578
 6761TIP3    H141698   3.062   2.194  13.119 -1.3295  0.5676  0.6239
 6761TIP3    H241699   2.964   2.197  13.004  0.0601 -0.9872 -0.6488
 6762TIP3   OH241700   3.286   5.589   4.231  0.0242 -0.1487 -0.7735
 6762TIP3    H141701   3.329   5.670   4.202  0.1804 -0.7789 -2.4285
 6762TIP3    H241702   3.207   5.618   4.276  1.2307  0.9758  0.7151
 6763TIP3   OH241703   4.944   6.665  15.837  0.3689  0.1220 -0.1921
 6763TIP3    H141704   4.980   6.684  15.750  2.3155 -2.0254  0.0354
 6763TIP3    H241705   4.993   6.722  15.896  0.1800  0.4388 -0.3397
 6764TIP3   OH241706   0.725   1.210  11.871  0.1150  0.2167  0.0123
 6764TIP3    H141707   0.759   1.141  11.928 -1.7325 -0.9022 -0.1827
 6764TIP3    H241708   0.732   1.290  11.924  1.6433 -0.2005  0.4894
 6765TIP3   OH241709   2.303   4.545  15.178  0.7104 -0.1097  1.1749
 6765TIP3    H141710   2.376   4.488  15.197  2.6300  2.3264  1.6695
 6765TIP3    H241711   2.336   4.604  15.110 -1.8888 -0.8460 -0.9183
 6766TIP3   OH241712   1.836   0.527  14.521  0.0828 -0.5024 -0.5515
 6766TIP3    H141713   1.914   0.558  14.566  0.5540  0.0128 -1.6805
 6766TIP3    H241714   1.764   0.547  14.581  0.8029 -0.9161  0.4665
 6767TIP3   OH241715   0.206   1.781  11.618 -0.3006  0.7747 -0.0180
 6767TIP3    H141716   0.162   1.865  11.632 -2.0493  0.2330 -1.8578
 6767TIP3    H241717   0.147   1.732  11.562  0.3801 -1.9829  1.5042
 6768TIP3   OH241718   2.561   5.374  11.596 -0.0146  0.2607  0.3258
 6768TIP3    H141719   2.568   5.446  11.659 -0.8414  0.9798 -0.3822
 6768TIP3    H241720   2.468   5.350  11.596  0.0600 -0.0509 -0.2720
 6769TIP3   OH241721   4.423   2.629   0.019 -0.1829 -0.4757  1.0711
 6769TIP3    H141722   4.464   2.705   0.060 -1.1800  0.7076 -0.0009
 6769TIP3    H241723   4.481   2.607  -0.054 -1.6930  1.7464 -0.9907
 6770TIP3   OH241724   0.704   1.418   1.370 -0.0641  0.3314 -0.8120
 6770TIP3    H141725   0.713   1.503   1.412 -1.8541  0.9267 -1.5535
 6770TIP3    H241726   0.692   1.439   1.277  1.8676 -0.8620 -1.3926
 6771TIP3   OH241727   2.845   1.666  11.465 -0.4801  0.4669  0.4817
 6771TIP3    H141728   2.761   1.620  11.466  0.1283 -0.6576  1.3805
 6771TIP3    H241729   2.864   1.679  11.372 -1.6152  0.6851  0.2649
 6772TIP3   OH241730   3.081   5.532   2.738  0.3592  0.2834  0.0442
 6772TIP3    H141731   3.118   5.451   2.774  0.9854 -0.1964 -1.5429
 6772TIP3    H241732   3.158   5.580   2.706 -0.1243  0.8468 -0.2812
 6773TIP3   OH241733   3.466   5.854   1.611 -0.0208  0.1366  0.1041
 6773TIP3    H141734   3.474   5.772   1.562 -1.4914  1.4648 -2.5757
 6773TIP3    H241735   3.373   5.860   1.631  0.2870  0.5451  1.4724
 6774TIP3   OH241736   1.466   1.355   5.853 -0.5006  0.5848  0.2284
 6774TIP3    H141737   1.414   1.379   5.930  0.6817  1.1543  0.8815
 6774TIP3    H241738   1.432   1.410   5.782 -2.7862 -1.1863 -0.1468
 6775TIP3   OH241739   0.926   0.013  16.165  0.4502  0.2119  0.3640
 6775TIP3    H141740   0.916   0.091  16.110 -0.5661  0.2082  0.5162
 6775TIP3    H241741   0.890  -0.058  16.112  0.0952  0.0923  0.7609
 6776TIP3   OH241742   1.243   5.520   2.731  0.7703 -0.1217  0.4531
 6776TIP3    H141743   1.165   5.495   2.682  1.3748  2.1474 -1.8562
 6776TIP3    H241744   1.227   5.487   2.819 -2.1519 -0.9503 -0.2758
 6777TIP3   OH241745   4.685   0.352  16.272 -0.0369  0.5470  0.2366
 6777TIP3    H141746   4.706   0.364  16.179  3.3799 -1.0856  0.6401
 6777TIP3    H241747   4.685   0.440  16.308  0.0057  1.0958 -1.0517
 6778TIP3   OH241748   0.304   5.759  12.148 -0.7801  0.7995 -0.0412
 6778TIP3    H141749   0.221   5.717  12.170  0.0953 -0.1956  1.4775
 6778TIP3    H241750   0.324   5.815  12.223  1.1819 -0.9712  0.8424
 6779TIP3   OH241751   5.474   6.123   4.493 -0.1350  0.1616 -0.1639
 6779TIP3    H141752   5.514   6.036   4.491 -0.5517 -0.0152 -1.5231
 6779TIP3    H241753   5.450   6.136   4.585  1.2930 -0.5128  0.3331
 6780TIP3   OH241754   1.994   5.228  10.856  0.4287  0.2449  0.4348
 6780TIP3    H141755   1.957   5.225  10.768 -0.3277 -0.5894  0.7755
 6780TIP3    H241756   1.938   5.290  10.904 -2.0574 -2.6650  1.5912
 6781TIP3   OH241757   2.029   1.952  13.514 -0.2890 -0.2465  0.0799
 6781TIP3    H141758   1.967   2.025  13.510 -0.1704 -0.1242  0.4343
 6781TIP3    H241759   2.016   1.905  13.432  0.8514  1.1598 -0.9529
 6782TIP3   OH241760   4.700   4.014  15.341 -0.0736 -0.1624  0.1965
 6782TIP3    H141761   4.682   3.927  15.306 -2.4374  0.8443 -1.3269
 6782TIP3    H241762   4.709   4.000  15.435  3.4337 -2.5172 -0.2902
 6783TIP3   OH241763   5.009   1.090  13.593 -0.2632  0.0305 -0.0859
 6783TIP3    H141764   4.937   1.115  13.536 -0.9078 -3.6742 -1.1689
 6783TIP3    H241765   5.083   1.077  13.535 -0.0220 -0.6300  0.3515
 6784TIP3   OH241766   5.344   4.447  16.396 -0.5487 -0.4498 -1.0525
 6784TIP3    H141767   5.330   4.461  16.302  0.5462 -1.5841 -1.4148
 6784TIP3    H241768   5.439   4.446  16.406 -0.6162 -1.8547 -0.2048
 6785TIP3   OH241769   3.158   4.795  16.360 -0.0439 -0.0202  0.4919
 6785TIP3    H141770   3.108   4.725  16.400 -0.1856 -0.3002 -0.1712
 6785TIP3    H241771   3.175   4.765  16.271  0.7915  0.3299  0.5239
 6786TIP3   OH241772   0.719   5.714  16.685 -0.1272  0.1890 -0.5652
 6786TIP3    H141773   0.698   5.756  16.768 -3.5346  1.7359 -1.9880
 6786TIP3    H241774   0.676   5.629  16.690  0.0221  0.1126 -0.5879
 6787TIP3   OH241775   1.270   5.912   1.707 -0.0451  0.2820 -0.8784
 6787TIP3    H141776   1.197   5.850   1.706  0.7122 -0.6614  0.1828
 6787TIP3    H241777   1.268   5.951   1.794  1.4631 -0.7029 -0.3609
 6788TIP3   OH241778   3.865   4.076  14.078 -0.0401 -0.0133 -0.3171
 6788TIP3    H141779   3.953   4.065  14.043 -0.1252 -0.6262 -0.3513
 6788TIP3    H241780   3.872   4.049  14.170 -0.1130  0.2875 -0.2227
 6789TIP3   OH241781   0.798   0.664   0.581 -0.4648  0.2444  0.1758
 6789TIP3    H141782   0.803   0.645   0.674  0.5337 -0.4762  0.0006
 6789TIP3    H241783   0.739   0.598   0.545 -1.7095  1.1795  0.4349
 6790TIP3   OH241784   5.152   2.313   0.463 -0.0792  0.1311  0.3904
 6790TIP3    H141785   5.092   2.388   0.453 -0.6775 -0.3004  0.7038
 6790TIP3    H241786   5.239   2.350   0.446 -0.4268  0.7738 -0.0457
 6791TIP3   OH241787   4.601   4.252   5.479 -0.1559  0.3468 -0.0330
 6791TIP3    H141788   4.589   4.180   5.417 -2.6128  1.1013 -0.5306
 6791TIP3    H241789   4.529   4.243   5.541  0.8035  1.0976  1.2489
 6792TIP3   OH241790   1.604   0.433  12.991 -0.2600 -0.0416  0.7672
 6792TIP3    H141791   1.686   0.385  12.981  0.0561  0.5734  0.3182
 6792TIP3    H241792   1.602   0.459  13.083 -2.0405 -3.7169  1.9667
 6793TIP3   OH241793   1.986   1.144   0.979 -0.3715  0.4751  0.1427
 6793TIP3    H141794   1.983   1.176   1.069 -3.9953  1.1982 -0.1045
 6793TIP3    H241795   1.937   1.062   0.981  0.0246  0.1954 -1.0806
 6794TIP3   OH241796   1.985   4.284   2.654  0.4379  0.0526  0.3049
 6794TIP3    H141797   2.012   4.195   2.633  2.1903  1.0262 -1.9019
 6794TIP3    H241798   2.065   4.326   2.687  0.2141  1.4111 -0.8129
 6795TIP3   OH241799   2.392   3.442  13.680 -0.1822 -0.0518  0.3437
 6795TIP3    H141800   2.438   3.507  13.627  0.0069 -0.7463 -0.3647
 6795TIP3    H241801   2.428   3.452  13.768  0.7885 -0.0718 -0.0379
 6796TIP3   OH241802   4.697   0.803  16.868  0.0950 -0.0847  0.2209
 6796TIP3    H141803   4.653   0.860  16.931 -0.6001 -0.1864 -0.1692
 6796TIP3    H241804   4.627   0.768  16.813  0.6365 -0.4198 -0.2711
 6797TIP3   OH241805   5.894   0.993  16.557  0.5618 -0.0152  0.0627
 6797TIP3    H141806   5.860   1.045  16.629 -1.3310 -1.2527  0.1625
 6797TIP3    H241807   5.816   0.975  16.503  2.0632  1.8045 -2.9391
 6798TIP3   OH241808   0.774   2.826  16.632 -0.1023  0.3348 -0.4022
 6798TIP3    H141809   0.710   2.878  16.585  0.0448  1.5347  0.6764
 6798TIP3    H241810   0.728   2.745  16.654 -1.3790  1.2945  0.6161
 6799TIP3   OH241811   5.445   4.747  13.969 -0.0215  0.3342  0.3496
 6799TIP3    H141812   5.472   4.784  13.886  0.3657 -1.0911 -0.1892
 6799TIP3    H241813   5.518   4.692  13.997 -0.3178  0.4513  1.4220
 6800TIP3   OH241814   0.744   4.227  14.272  0.0164 -0.2169 -0.2130
 6800TIP3    H141815   0.721   4.203  14.182  0.3032 -1.6556  0.0615
 6800TIP3    H241816   0.777   4.316  14.265  0.3383 -0.4108 -1.5941
 6801TIP3   OH241817   6.101   1.697   5.389 -0.0951  0.4911 -0.3569
 6801TIP3    H141818   6.196   1.698   5.379  0.4739 -0.4847  3.4734
 6801TIP3    H241819   6.069   1.657   5.308  3.0711 -2.7355 -0.2543
 6802TIP3   OH241820   3.094   3.219   5.349  0.1405 -0.3059  0.0746
 6802TIP3    H141821   3.086   3.131   5.311 -0.4650 -0.3635  0.3203
 6802TIP3    H241822   3.081   3.206   5.443  2.6500 -0.3128  0.4942
 6803TIP3   OH241823   5.551   4.302  15.296 -0.0864 -0.4913  0.3129
 6803TIP3    H141824   5.519   4.221  15.335  1.8839 -1.1820  0.6177
 6803TIP3    H241825   5.591   4.349  15.369 -1.4510  0.9244  0.1940
 6804TIP3   OH241826   1.504   5.787   1.601  0.2955 -0.3683  1.1114
 6804TIP3    H141827   1.506   5.780   1.505 -0.3691  0.5456  1.0163
 6804TIP3    H241828   1.425   5.837   1.619 -0.9616 -2.6350  2.3073
 6805TIP3   OH241829   4.644   3.545   0.819 -0.0664 -0.1031  0.1030
 6805TIP3    H141830   4.660   3.616   0.757 -1.3802  1.3266  1.3072
 6805TIP3    H241831   4.726   3.535   0.867  0.5909 -0.4369 -1.0451
 6806TIP3   OH241832   5.852   4.646  16.397 -0.2741 -0.0574 -0.2848
 6806TIP3    H141833   5.850   4.741  16.383 -1.9343  0.0962  0.7468
 6806TIP3    H241834   5.872   4.636  16.490 -2.2882 -0.6169  0.1255
 6807TIP3   OH241835   1.670   5.019  17.038 -0.2249  0.2596  0.6558
 6807TIP3    H141836   1.696   5.063  17.119  1.9499  0.0153  0.1585
 6807TIP3    H241837   1.726   4.942  17.033 -0.1999  0.3435 -1.1393
 6808TIP3   OH241838   4.753   6.644  13.101  0.5676 -0.3913  0.3715
 6808TIP3    H141839   4.719   6.727  13.067 -1.7034 -0.6482  1.7947
 6808TIP3    H241840   4.698   6.577  13.059 -0.6595 -0.8418  2.5440
 6809TIP3   OH241841   4.577   5.925  11.761 -0.1703  0.2664 -0.4567
 6809TIP3    H141842   4.668   5.946  11.782 -0.4105  1.4930 -0.5450
 6809TIP3    H241843   4.580   5.899  11.669  0.0631  0.5320 -0.5277
 6810TIP3   OH241844   4.453   5.818  11.504  0.8145  0.4831 -0.8222
 6810TIP3    H141845   4.511   5.741  11.503  0.7969  0.4106  1.0143
 6810TIP3    H241846   4.397   5.805  11.581  0.9777  2.4389 -0.3265
 6811TIP3   OH241847   4.664   5.479   5.155  0.3683 -0.0383 -0.0400
 6811TIP3    H141848   4.697   5.547   5.214 -0.5522  0.1613  0.2685
 6811TIP3    H241849   4.615   5.420   5.212 -2.4923  1.3745 -0.8132
 6812TIP3   OH241850   3.684   1.176   4.252  0.3612  0.4179  0.0060
 6812TIP3    H141851   3.607   1.124   4.273 -0.4405  1.5664  0.0139
 6812TIP3    H241852   3.758   1.118   4.267 -0.4981 -0.6767  0.0895
 6813TIP3   OH241853   6.374   0.178   2.349 -0.5804 -0.2519 -0.1106
 6813TIP3    H141854   6.451   0.132   2.382 -1.0780 -1.4382 -0.5675
 6813TIP3    H241855   6.409   0.238   2.283 -0.0417 -0.8671 -0.3993
 6814TIP3   OH241856   1.997   3.885  14.908  0.1041 -0.5038 -0.5256
 6814TIP3    H141857   2.008   3.879  15.003  0.8120 -1.6954 -0.6689
 6814TIP3    H241858   1.916   3.836  14.889  0.2746 -0.7594 -0.5960
 6815TIP3   OH241859   5.761   0.905   3.844 -0.4624  0.2011  0.2869
 6815TIP3    H141860   5.767   1.000   3.831  0.2710  0.2515  0.8864
 6815TIP3    H241861   5.846   0.872   3.816 -0.7489 -0.2914 -0.0046
 6816TIP3   OH241862   6.631   6.471   3.666  0.0821 -0.8902  0.9048
 6816TIP3    H141863   6.685   6.520   3.603 -2.4509  0.1589 -0.6089
 6816TIP3    H241864   6.640   6.380   3.638 -0.3517 -0.5288 -0.5203
 6817TIP3   OH241865   3.132   2.963   5.186 -0.1348 -0.1784 -0.1217
 6817TIP3    H141866   3.052   2.935   5.230 -1.8048  1.5034 -1.8687
 6817TIP3    H241867   3.200   2.952   5.252 -1.7499 -1.8180  1.3983
 6818TIP3   OH241868   5.536   2.979   5.531  0.5133 -0.0122 -0.6357
 6818TIP3    H141869   5.519   3.073   5.519  1.7145  0.1010 -1.7485
 6818TIP3    H241870   5.497   2.938   5.454 -0.3900 -0.4967  0.0626
 6819TIP3   OH241871   5.642   4.949   0.176 -0.2826 -0.0816  0.1668
 6819TIP3    H141872   5.567   4.955   0.235  0.5657  3.3488  1.1250
 6819TIP3    H241873   5.713   4.916   0.232 -0.3466 -0.3845  0.0707
 6820TIP3   OH241874   3.828   4.077   2.673 -0.1634 -0.4878 -0.1461
 6820TIP3    H141875   3.794   4.007   2.728  0.0959 -0.0097  0.6517
 6820TIP3    H241876   3.916   4.048   2.648 -0.1704 -0.5823 -0.0609
 6821TIP3   OH241877   3.394   5.823   5.265 -0.1773 -0.4705  0.5563
 6821TIP3    H141878   3.337   5.900   5.274 -1.0881 -1.1058  0.3079
 6821TIP3    H241879   3.479   5.860   5.238 -0.5555  0.4626  0.5902
 6822TIP3   OH241880   0.317   4.864  16.961  0.0554  0.5817  0.1999
 6822TIP3    H141881   0.330   4.857  17.055  1.3216  0.5886  0.0456
 6822TIP3    H241882   0.397   4.828  16.923 -1.2848 -1.4215 -0.9306
 6823TIP3   OH241883   0.948   0.036  14.276  0.1527 -0.1467 -0.3631
 6823TIP3    H141884   0.866   0.010  14.233 -0.1427  1.9640 -1.2136
 6823TIP3    H241885   0.998   0.081  14.207  1.1181  0.4451  0.6799
 6824TIP3   OH241886   4.887   6.675  16.193 -0.3884 -0.1586  0.2726
 6824TIP3    H141887   4.963   6.726  16.221  0.5225 -1.2075 -0.2507
 6824TIP3    H241888   4.892   6.594  16.242 -0.9226 -0.4318 -0.1088
 6825TIP3   OH241889   0.590   6.490  15.681  0.0563  0.4500 -0.5909
 6825TIP3    H141890   0.617   6.437  15.757 -3.0014  0.1335  0.3941
 6825TIP3    H241891   0.668   6.493  15.626  1.0831 -3.1856  0.3929
 6826TIP3   OH241892   0.255   1.855  15.675  0.0958  0.1721 -0.1622
 6826TIP3    H141893   0.228   1.763  15.671 -0.9839  0.4648  0.1617
 6826TIP3    H241894   0.316   1.859  15.748 -0.7505 -0.0726  0.5660
 6827TIP3   OH241895   2.188   1.056   0.356  0.2921  0.6104  0.3367
 6827TIP3    H141896   2.212   1.107   0.434  0.6885 -1.3383  1.5413
 6827TIP3    H241897   2.268   1.054   0.304  1.1174 -0.9422  1.5641
 6828TIP3   OH241898   1.692   0.626   2.985 -0.4108 -0.0583  0.3624
 6828TIP3    H141899   1.706   0.721   2.977 -1.0324 -0.1098 -2.2930
 6828TIP3    H241900   1.779   0.591   3.001  0.1064  0.8452 -0.3531
 6829TIP3   OH241901   1.589   2.302   3.998  0.3870 -0.1441 -0.1797
 6829TIP3    H141902   1.542   2.260   3.926 -0.8261  0.0227  0.4924
 6829TIP3    H241903   1.616   2.387   3.963  0.1966 -0.2497 -0.5848
 6830TIP3   OH241904   6.664   5.084   5.617  0.2433 -0.4533 -0.2407
 6830TIP3    H141905   6.581   5.051   5.652  1.1458 -1.2538  1.2184
 6830TIP3    H241906   6.647   5.177   5.600 -0.5323 -0.2477  1.4806
 6831TIP3   OH241907   4.714   4.075  16.936  0.6272  0.4674  0.1983
 6831TIP3    H141908   4.756   3.993  16.959  2.3120  1.0097 -0.7321
 6831TIP3    H241909   4.744   4.137  17.002  0.0654  0.5308  0.3978
 6832TIP3   OH241910   1.524   2.640   0.172  0.5483 -0.0446  0.0733
 6832TIP3    H141911   1.581   2.611   0.243  1.2760 -0.5775 -0.7018
 6832TIP3    H241912   1.436   2.617   0.200  0.7452  0.4416  1.1228
 6833TIP3   OH241913   4.715   0.929  12.613 -1.0558 -0.0523  0.7133
 6833TIP3    H141914   4.805   0.915  12.642 -0.5815  0.9218 -0.2616
 6833TIP3    H241915   4.692   1.016  12.643 -0.6177  0.9206 -1.5560
 6834TIP3   OH241916   3.780   3.225   3.864  0.3371 -0.0619  0.3160
 6834TIP3    H141917   3.821   3.145   3.898  2.0437  1.1081  1.1364
 6834TIP3    H241918   3.847   3.293   3.876 -1.2511  1.5949  0.0970
 6835TIP3   OH241919   2.787   0.766   4.247 -0.2563  0.6836  0.0411
 6835TIP3    H141920   2.849   0.783   4.176 -0.1243  4.0238  0.7746
 6835TIP3    H241921   2.745   0.850   4.263  0.0988  0.3105  4.2116
 6836TIP3   OH241922   1.171   3.812   5.817 -0.5934  0.1193  0.4178
 6836TIP3    H141923   1.178   3.790   5.910 -0.7427  1.5590  0.7964
 6836TIP3    H241924   1.078   3.822   5.801 -0.4895  1.2698  0.4749
 6837TIP3   OH241925   2.233   2.503  14.329 -0.0296  0.4923 -0.8544
 6837TIP3    H141926   2.255   2.510  14.236  2.0642 -0.5073 -0.4868
 6837TIP3    H241927   2.153   2.450  14.331  0.2899 -0.0697 -2.0604
 6838TIP3   OH241928   2.974   1.116   1.855 -0.2823 -0.1635 -0.9281
 6838TIP3    H141929   3.014   1.076   1.777 -0.2038 -2.3190  0.1387
 6838TIP3    H241930   2.934   1.042   1.901  0.0130  0.9937  1.2904
 6839TIP3   OH241931   4.432   5.217  14.915 -0.3798 -0.0041 -0.4188
 6839TIP3    H141932   4.451   5.124  14.915  0.5881  0.1759 -0.8377
 6839TIP3    H241933   4.428   5.241  14.822  1.7083  0.7763 -0.3726
 6840TIP3   OH241934   0.880   5.083   1.856  0.6653 -0.1470  0.1426
 6840TIP3    H141935   0.924   5.095   1.772  2.4040  1.0748  1.1662
 6840TIP3    H241936   0.943   5.115   1.921 -1.7071  1.6158  1.7295
 6841TIP3   OH241937   4.922   1.316  14.499  0.2668  0.0424  0.4068
 6841TIP3    H141938   4.993   1.310  14.435 -0.4324  0.7331 -0.4610
 6841TIP3    H241939   4.899   1.226  14.519  2.2567 -0.2401  1.7237
 6842TIP3   OH241940   5.544   6.650   0.255 -0.5951  0.7810  0.4833
 6842TIP3    H141941   5.521   6.595   0.181 -0.0050 -0.8080  1.4243
 6842TIP3    H241942   5.516   6.738   0.230  0.5999  0.5098 -2.0723
 6843TIP3   OH241943   4.123   6.678  12.943  0.1202  0.0316 -0.3762
 6843TIP3    H141944   4.042   6.693  12.991  0.2039 -0.3547 -0.1124
 6843TIP3    H241945   4.192   6.683  13.009  0.1272 -1.9007 -0.1827
 6844TIP3   OH241946   1.655   3.958   1.677 -0.4342 -0.0702 -0.2113
 6844TIP3    H141947   1.603   3.899   1.621  2.1046 -2.5697 -0.1827
 6844TIP3    H241948   1.653   3.917   1.763 -0.3551  1.0850  0.3489
 6845TIP3   OH241949   4.194   2.415  16.413  1.1253  1.1160 -0.2647
 6845TIP3    H141950   4.220   2.507  16.413 -0.5563  1.6718  1.6116
 6845TIP3    H241951   4.190   2.391  16.506  0.8352 -0.6647 -0.6852
 6846TIP3   OH241952   4.459   6.076   1.119  0.5469  0.3063  0.2411
 6846TIP3    H141953   4.535   6.096   1.174  2.3041 -1.4711 -1.3655
 6846TIP3    H241954   4.474   6.126   1.039  0.3243 -0.4933 -0.3065
 6847TIP3   OH241955   3.288   0.827  12.176 -0.0747  0.0836  0.2363
 6847TIP3    H141956   3.235   0.788  12.106  0.8853 -0.7388 -0.0618
 6847TIP3    H241957   3.379   0.814  12.147  0.3547 -0.6973  1.8397
 6848TIP3   OH241958   5.308   4.040  17.142 -0.8885 -0.1897  0.3074
 6848TIP3    H141959   5.292   4.122  17.096  0.2312  0.2887  0.7486
 6848TIP3    H241960   5.284   3.972  17.079 -1.7221  0.4623 -0.0971
 6849TIP3   OH241961   2.935   6.076   1.048 -0.5251  0.5321  0.3374
 6849TIP3    H141962   2.943   6.079   1.143 -1.8093  1.8763  0.4428
 6849TIP3    H241963   2.851   6.032   1.032 -0.4206  0.5016 -0.1588
 6850TIP3   OH241964   5.695   2.032  15.631  0.1778  0.0462 -0.0694
 6850TIP3    H141965   5.728   2.073  15.711  1.2789 -1.7412  0.4419
 6850TIP3    H241966   5.642   1.959  15.662  0.5867 -0.6411 -0.9727
 6851TIP3   OH241967   3.572   4.225  14.073 -0.0809  0.3523  0.0074
 6851TIP3    H141968   3.615   4.147  14.108 -0.6092 -0.2507 -0.6683
 6851TIP3    H241969   3.560   4.207  13.980 -2.8174 -0.0094  0.3596
 6852TIP3   OH241970   2.362   6.663  15.237  0.4699  0.5505 -0.1452
 6852TIP3    H141971   2.266   6.660  15.232  0.4463  1.4650 -0.5778
 6852TIP3    H241972   2.390   6.573  15.222 -0.2550  0.5549 -1.7318
 6853TIP3   OH241973   0.535   1.649  16.470 -0.0876 -0.6613  0.5287
 6853TIP3    H141974   0.531   1.604  16.555  1.3371  0.0657  1.0148
 6853TIP3    H241975   0.447   1.682  16.456 -0.3506 -0.8048  1.7257
 6854TIP3   OH241976   0.497   2.302  16.687  0.2814 -0.4275  0.5907
 6854TIP3    H141977   0.430   2.367  16.665  0.3190 -0.3722  0.6400
 6854TIP3    H241978   0.460   2.253  16.760 -0.1902 -1.1376 -0.0997
 6855TIP3   OH241979   5.459   6.055   2.981 -0.1300 -0.4629 -0.3139
 6855TIP3    H141980   5.411   6.111   2.921  0.3183 -0.3138 -0.5351
 6855TIP3    H241981   5.459   6.102   3.064 -1.1020 -0.8517 -0.0713
 6856TIP3   OH241982   5.991   4.414   6.456 -0.3131  0.3165  0.3317
 6856TIP3    H141983   5.956   4.331   6.423  2.1762 -0.4528 -0.6362
 6856TIP3    H241984   5.914   4.469   6.471 -1.9697 -1.7804 -0.0581
 6857TIP3   OH241985   2.172   3.026  10.593 -0.4394 -0.3680  0.0277
 6857TIP3    H141986   2.175   2.934  10.619  0.3612 -0.2881  0.2287
 6857TIP3    H241987   2.232   3.031  10.518  0.9400  0.3326  1.1300
 6858TIP3   OH241988   6.369   2.305   5.524 -0.1408  0.1458  0.2124
 6858TIP3    H141989   6.378   2.323   5.618  0.6928 -0.5663  0.2807
 6858TIP3    H241990   6.421   2.226   5.510  1.7792  1.6004 -1.2895
 6859TIP3   OH241991   5.115   2.637   0.614  0.5634 -0.0921 -0.3394
 6859TIP3    H141992   5.168   2.632   0.694 -2.2050  1.5966  1.8179
 6859TIP3    H241993   5.126   2.727   0.584 -0.1853 -0.0629 -0.5357
 6860TIP3   OH241994   5.960   4.047  11.534  0.1777 -0.3725 -0.2144
 6860TIP3    H141995   6.048   4.071  11.506 -0.3962 -1.3778 -3.3018
 6860TIP3    H241996   5.921   4.130  11.564  1.4176  0.5497 -1.0529
 6861TIP3   OH241997   3.987   0.801  14.713  0.6446  0.4545 -0.2340
 6861TIP3    H141998   3.911   0.748  14.690  0.5389 -0.1105  1.3069
 6861TIP3    H241999   3.971   0.829  14.803  1.8000  1.1617 -0.2204
 6862TIP3   OH242000   3.609   5.928   0.596 -0.3359  1.2504 -0.4664
 6862TIP3    H142001   3.622   6.001   0.536 -0.0116 -0.8104 -3.0929
 6862TIP3    H242002   3.519   5.901   0.581  0.3883 -0.6493 -1.7734
 6863TIP3   OH242003   3.455   3.781  12.613 -0.0201 -0.7583 -0.1649
 6863TIP3    H142004   3.418   3.700  12.578  0.1964 -1.2963  0.7990
 6863TIP3    H242005   3.392   3.808  12.681  0.4320 -0.6950  0.2360
 6864TIP3   OH242006   4.590   5.002   4.407  0.1302 -0.3542 -0.2697
 6864TIP3    H142007   4.682   5.005   4.378  0.9196  0.2743  2.0785
 6864TIP3    H242008   4.589   4.930   4.471 -0.7602  0.3277  0.4924
 6865TIP3   OH242009   1.570   0.572   6.643  0.1334 -0.0243 -0.4026
 6865TIP3    H142010   1.492   0.582   6.588  0.4688  0.9625 -0.7188
 6865TIP3    H242011   1.620   0.503   6.601 -1.1989 -1.6455  0.5679
 6866TIP3   OH242012   2.634   3.322  11.231 -0.2199  0.0236  0.3369
 6866TIP3    H142013   2.638   3.416  11.212 -0.7501  0.2748  1.3489
 6866TIP3    H242014   2.611   3.318  11.324  0.3287 -1.1099  0.4379
 6867TIP3   OH242015   5.869   0.480   5.893 -0.2701  0.5745 -0.8681
 6867TIP3    H142016   5.785   0.514   5.925 -0.6235  0.2014 -1.3942
 6867TIP3    H242017   5.888   0.532   5.816 -0.3032  0.2691 -1.0831
 6868TIP3   OH242018   1.993   1.277   1.640 -0.3014 -0.0515 -0.3275
 6868TIP3    H142019   1.967   1.364   1.672 -0.6050 -0.9887  2.1593
 6868TIP3    H242020   2.088   1.279   1.641 -0.2781 -0.3099  1.5563
 6869TIP3   OH242021   2.996   3.864   1.253  0.5998  0.0433 -0.5785
 6869TIP3    H142022   2.908   3.900   1.259  0.3991  0.1088 -3.0181
 6869TIP3    H242023   2.984   3.769   1.264  0.3208  0.1018 -0.3551
 6870TIP3   OH242024   3.873   2.604   2.837  0.1558 -0.1897 -0.3043
 6870TIP3    H142025   3.856   2.578   2.747  0.8541 -0.5085 -0.3490
 6870TIP3    H242026   3.786   2.608   2.878 -0.3001  1.2849 -1.3327
 6871TIP3   OH242027   5.134   5.437  11.348 -0.1689  0.4951 -1.2223
 6871TIP3    H142028   5.097   5.456  11.261 -1.0871  0.4581 -0.8524
 6871TIP3    H242029   5.058   5.429  11.405  0.4437  2.2577 -0.0518
 6872TIP3   OH242030   2.461   2.735   6.176  0.0718 -0.1019 -0.0820
 6872TIP3    H142031   2.498   2.688   6.251 -0.1013  0.6737  0.5060
 6872TIP3    H242032   2.469   2.828   6.199 -1.2188  0.1209 -0.4189
 6873TIP3   OH242033   6.310   0.037  12.746 -0.1316 -0.3206  0.7079
 6873TIP3    H142034   6.305   0.017  12.840 -0.0981  1.3197  1.0962
 6873TIP3    H242035   6.223   0.018  12.713  0.1224 -1.8560  0.8380
 6874TIP3   OH242036   4.348   5.681   3.988  0.3036  0.2309 -0.5075
 6874TIP3    H142037   4.399   5.604   3.964  0.1091 -0.1753  0.3647
 6874TIP3    H242038   4.411   5.739   4.031  0.0403 -0.2801  0.5907
 6875TIP3   OH242039   5.392   3.660  14.454 -0.0653  0.5285 -0.8237
 6875TIP3    H142040   5.479   3.672  14.415 -0.4004 -2.0435 -2.5392
 6875TIP3    H242041   5.333   3.710  14.397  0.0797  0.9875 -0.5757
 6876TIP3   OH242042   0.180   3.785   1.285  0.0768  0.4304  0.1776
 6876TIP3    H142043   0.101   3.741   1.316  1.0554 -0.3895  1.6354
 6876TIP3    H242044   0.177   3.775   1.190 -0.8015 -0.9778  0.3206
 6877TIP3   OH242045   4.638   4.146   5.231  0.1401 -0.2110 -0.2494
 6877TIP3    H142046   4.664   4.056   5.250 -0.7982 -0.5623 -0.5424
 6877TIP3    H242047   4.543   4.140   5.215 -0.2174  1.0633  1.1990
 6878TIP3   OH242048   0.244   1.691   4.908 -0.4377 -0.2677  0.2531
 6878TIP3    H142049   0.213   1.750   4.839 -1.0436 -2.2856 -1.3099
 6878TIP3    H242050   0.339   1.694   4.902 -0.4859 -0.5060 -0.7772
 6879TIP3   OH242051   6.207   0.325   0.567 -0.1565  0.2941  0.4919
 6879TIP3    H142052   6.266   0.395   0.597  0.3056 -0.3689  1.1589
 6879TIP3    H242053   6.265   0.264   0.520 -0.4104 -0.0718  0.6544
 6880TIP3   OH242054   0.649   2.680  15.399 -0.0662 -0.0327  0.5407
 6880TIP3    H142055   0.666   2.683  15.493 -0.6101 -1.2162  0.6897
 6880TIP3    H242056   0.728   2.641  15.361  0.7085  1.6435  0.3251
 6881TIP3   OH242057   4.111   1.668  11.989 -0.7430 -0.0503  0.4859
 6881TIP3    H142058   4.061   1.637  11.913 -0.6916 -0.0726  0.4605
 6881TIP3    H242059   4.202   1.647  11.968 -0.7574 -0.3258  0.6821
 6882TIP3   OH242060   4.490   4.976   4.813 -0.2529 -0.1651  0.4100
 6882TIP3    H142061   4.424   4.933   4.759 -0.4075  0.7068 -0.1133
 6882TIP3    H242062   4.532   4.904   4.862 -2.3782 -0.6408  1.6719
 6883TIP3   OH242063   0.487   2.708   2.423  0.5764 -0.2243 -0.6536
 6883TIP3    H142064   0.422   2.768   2.387  0.7358 -0.0548 -0.6567
 6883TIP3    H242065   0.445   2.622   2.417  0.8659 -0.2957 -1.8896
 6884TIP3   OH242066   5.458   2.567  10.854 -0.4479  0.0694  0.5665
 6884TIP3    H142067   5.448   2.483  10.898 -0.5147 -0.4639 -0.4280
 6884TIP3    H242068   5.371   2.608  10.859 -1.2336 -1.2091 -1.4289
 6885TIP3   OH242069   2.986   4.591   4.879  0.8875  0.3301 -0.3509
 6885TIP3    H142070   2.922   4.520   4.875  1.4645 -0.1406 -2.2038
 6885TIP3    H242071   2.936   4.667   4.909  0.1082 -0.6756  0.9694
 6886TIP3   OH242072   4.092   1.703   6.158 -0.3007 -0.0652 -0.1482
 6886TIP3    H142073   4.117   1.692   6.250 -0.5744  0.2823 -0.0295
 6886TIP3    H242074   4.032   1.777   6.158 -0.1422  0.0688 -0.6380
 6887TIP3   OH242075   0.446   0.644   3.891  0.2406 -0.4035 -0.3146
 6887TIP3    H142076   0.372   0.608   3.939  0.2185  0.2914  0.1841
 6887TIP3    H242077   0.476   0.717   3.945 -0.9163  1.5772 -2.2189
 6888TIP3   OH242078   6.690   0.454  12.388  0.1686 -0.8178 -0.1691
 6888TIP3    H142079   6.683   0.522  12.321  2.7838 -0.6680 -0.3948
 6888TIP3    H242080   6.782   0.453  12.411 -0.6599 -0.6221  3.7756
 6889TIP3   OH242081   1.813   3.394   3.787  0.4270  0.5184  0.3814
 6889TIP3    H142082   1.745   3.444   3.742  1.0617  0.4551 -0.6857
 6889TIP3    H242083   1.839   3.449   3.860  0.2256  1.1770 -0.0387
 6890TIP3   OH242084   5.602   5.545  12.407 -0.0255  0.3651  0.0650
 6890TIP3    H142085   5.611   5.624  12.355 -2.0984 -0.2759 -1.3720
 6890TIP3    H242086   5.609   5.473  12.344 -1.4186 -0.4836  0.8254
 6891TIP3   OH242087   2.196   6.301  16.782  0.0449 -0.3140  0.1876
 6891TIP3    H142088   2.286   6.281  16.758  0.1612 -0.1190  0.4611
 6891TIP3    H242089   2.177   6.243  16.856  0.5124  0.8159  1.2384
 6892TIP3   OH242090   3.146   3.940  16.215 -0.0769  0.2620  0.2326
 6892TIP3    H142091   3.227   3.900  16.185  0.1355 -0.7490  2.0019
 6892TIP3    H242092   3.132   4.013  16.156  1.3823 -0.3658 -0.9605
 6893TIP3   OH242093   0.106   1.285  13.444 -0.1161  0.0089 -0.0087
 6893TIP3    H142094   0.133   1.209  13.496 -0.1620 -0.3633 -0.5265
 6893TIP3    H242095   0.063   1.248  13.367 -0.5525  0.5673 -0.0436
 6894TIP3   OH242096   2.154   3.126   1.260 -0.4759  0.5221  0.1277
 6894TIP3    H142097   2.090   3.056   1.259 -0.5868  0.5467  1.8266
 6894TIP3    H242098   2.136   3.174   1.341  1.0194  1.1388  0.1400
 6895TIP3   OH242099   4.753   3.933  12.375  0.0805 -0.5019  0.0141
 6895TIP3    H142100   4.812   4.006  12.354 -0.0722 -0.4343 -0.1876
 6895TIP3    H242101   4.751   3.930  12.470  0.4197 -0.5121  0.0233
 6896TIP3   OH242102   2.776   6.476  12.821  0.5458  0.3114  0.1507
 6896TIP3    H142103   2.857   6.432  12.795 -1.0084 -2.3177 -0.6819
 6896TIP3    H242104   2.757   6.441  12.909 -0.6133 -0.6386 -0.4428
 6897TIP3   OH242105   3.744   6.566   1.667 -0.2654  0.0782 -0.1478
 6897TIP3    H142106   3.672   6.504   1.656 -0.0300 -0.0585 -0.9480
 6897TIP3    H242107   3.739   6.624   1.591 -0.3721  0.9399  0.4959
 6898TIP3   OH242108   5.213   1.880  14.062 -0.1126  0.3398  0.3152
 6898TIP3    H142109   5.260   1.962  14.075  0.3713  0.0816  0.1901
 6898TIP3    H242110   5.136   1.888  14.120  0.8845  0.1055  1.7182
 6899TIP3   OH242111   0.371   3.118  15.976 -0.6279 -0.4423 -0.3491
 6899TIP3    H142112   0.331   3.142  16.059  1.1105 -0.7875  0.6331
 6899TIP3    H242113   0.447   3.176  15.969 -0.8867 -0.2409 -1.8426
 6900TIP3   OH242114   5.732   5.232   0.838 -0.3677  0.4051  0.0474
 6900TIP3    H142115   5.638   5.223   0.820 -0.0186  0.2800 -1.9218
 6900TIP3    H242116   5.756   5.315   0.797  0.9777 -1.0551 -2.3305
 6901TIP3   OH242117   6.670   3.052  10.429 -0.4374  0.1746  0.6085
 6901TIP3    H142118   6.743   3.016  10.480 -0.1749  0.8290  0.7021
 6901TIP3    H242119   6.592   3.026  10.478 -0.1797  0.9625  1.4741
 6902TIP3   OH242120   3.410   5.952  10.619  0.8311  0.7319 -0.0509
 6902TIP3    H142121   3.481   5.997  10.573  1.5720 -0.9545 -0.6389
 6902TIP3    H242122   3.333   5.967  10.565  1.3023  0.3476 -0.8395
 6903TIP3   OH242123   1.400   2.309   3.468 -0.2954  0.0183  0.7189
 6903TIP3    H142124   1.305   2.305   3.457 -0.3208 -0.1137  0.9731
 6903TIP3    H242125   1.435   2.322   3.380 -0.4573 -1.3765  0.4355
 6904TIP3   OH242126   5.139   3.812   4.015 -0.1247 -0.1986  0.1272
 6904TIP3    H142127   5.073   3.755   3.974 -1.6826  2.3032 -1.1173
 6904TIP3    H242128   5.198   3.835   3.943 -1.2325  1.9999 -0.1429
 6905TIP3   OH242129   2.027   4.816   3.729  0.5285 -0.0809  0.4936
 6905TIP3    H142130   2.088   4.818   3.655  1.4184 -0.3810  1.2120
 6905TIP3    H242131   2.055   4.742   3.782 -1.4536 -1.2107  0.0260
 6906TIP3   OH242132   3.376   5.904   0.171  0.0236  0.4352 -0.5058
 6906TIP3    H142133   3.329   5.892   0.254  0.4108 -1.4235 -0.5251
 6906TIP3    H242134   3.441   5.972   0.190  1.6329 -1.4966  1.4388
 6907TIP3   OH242135   4.131   4.314   1.583  0.2241  0.2993  0.2373
 6907TIP3    H142136   4.212   4.311   1.633 -0.7701  0.8671  1.9735
 6907TIP3    H242137   4.062   4.297   1.647 -0.9546 -3.1389 -1.6352
 6908TIP3   OH242138   3.365   0.309  16.278  0.2018 -0.2299  0.1530
 6908TIP3    H142139   3.388   0.219  16.252 -2.3870 -1.1215  0.6666
 6908TIP3    H242140   3.355   0.305  16.373 -3.2758 -0.4048 -0.0703
 6909TIP3   OH242141   4.003   6.375   3.718 -0.2736  0.4599  0.2052
 6909TIP3    H142142   3.983   6.351   3.628 -1.5607  0.3203  0.5063
 6909TIP3    H242143   4.094   6.405   3.716 -0.1949  0.1700 -1.0724
 6910TIP3   OH242144   1.612   1.714  16.508 -0.8066 -0.0708 -0.5333
 6910TIP3    H142145   1.694   1.751  16.474 -0.9252  1.3459  0.6228
 6910TIP3    H242146   1.549   1.728  16.437 -0.4971  0.6295 -0.6796
 6911TIP3   OH242147   0.264   6.187   1.397  0.3832 -0.3932 -0.0528
 6911TIP3    H142148   0.357   6.181   1.418  0.2901 -2.8124 -0.1596
 6911TIP3    H242149   0.234   6.262   1.449  1.9407 -0.9324  1.7726
 6912TIP3   OH242150   0.518   4.406   5.493 -0.3256 -0.1325  0.8905
 6912TIP3    H142151   0.528   4.493   5.531 -1.8457  0.1830  0.6350
 6912TIP3    H242152   0.606   4.368   5.496  0.3857  1.4396  0.9199
 6913TIP3   OH242153   4.424   0.512   3.471 -0.3540  0.8968 -0.2023
 6913TIP3    H142154   4.467   0.535   3.553 -1.1634  0.3714  0.3824
 6913TIP3    H242155   4.496   0.494   3.410  0.2768  2.7291 -0.0483
 6914TIP3   OH242156   4.178   2.582   0.774 -0.3855 -0.2553  0.5177
 6914TIP3    H142157   4.188   2.640   0.850  1.3914  0.3951 -0.1801
 6914TIP3    H242158   4.153   2.498   0.812  0.7506 -0.0241  1.8730
 6915TIP3   OH242159   2.505   1.005   5.096  0.1419 -0.0177  0.3137
 6915TIP3    H142160   2.593   0.999   5.058  0.6227 -2.2266  1.6021
 6915TIP3    H242161   2.509   1.082   5.153  0.2818  1.6246 -1.7798
 6916TIP3   OH242162   4.449   3.514   4.483 -0.0751 -0.1658  0.0133
 6916TIP3    H142163   4.406   3.590   4.522 -1.4597 -1.3877  0.9938
 6916TIP3    H242164   4.542   3.534   4.486 -0.4200  1.5187  0.1406
 6917TIP3   OH242165   3.709   2.236  13.559 -0.1089  0.0057 -0.5195
 6917TIP3    H142166   3.774   2.306  13.563  1.6943 -1.5832 -0.3858
 6917TIP3    H242167   3.638   2.265  13.615  0.6404  1.6706 -0.3862
 6918TIP3   OH242168   1.986   0.519   3.846 -0.2546  0.1734  0.2009
 6918TIP3    H142169   2.018   0.575   3.775 -0.4978  0.2507  0.1500
 6918TIP3    H242170   1.902   0.558   3.871 -1.0718 -0.9492 -0.7398
 6919TIP3   OH242171   1.782   1.421   3.923 -0.1602 -0.1586  0.1520
 6919TIP3    H142172   1.833   1.494   3.958 -2.6411  2.2014 -0.7916
 6919TIP3    H242173   1.695   1.432   3.960 -1.2926 -1.0703 -2.0112
 6920TIP3   OH242174   2.928   0.343  16.133  1.1253 -0.5867 -0.3043
 6920TIP3    H142175   2.985   0.408  16.175 -0.9721  1.0101  0.2488
 6920TIP3    H242176   2.942   0.263  16.184  2.6154 -0.1712 -0.0003
 6921TIP3   OH242177   6.097   4.821  15.673 -0.5257 -0.4829  0.3527
 6921TIP3    H142178   6.092   4.759  15.601 -0.9273  0.1875 -0.2016
 6921TIP3    H242179   6.190   4.836  15.686 -0.4541  1.1645 -1.5881
 6922TIP3   OH242180   1.192   4.315  11.176 -1.0551  0.5050  0.3904
 6922TIP3    H142181   1.245   4.236  11.186 -0.0643  1.3008  1.7738
 6922TIP3    H242182   1.156   4.308  11.088  0.5280 -0.5725 -0.2246
 6923TIP3   OH242183   0.661   6.713   3.188 -0.2209  0.1005 -0.0748
 6923TIP3    H142184   0.659   6.668   3.103  0.4155 -0.7257  0.3329
 6923TIP3    H242185   0.741   6.681   3.230  0.3317  1.7454  0.1791
 6924TIP3   OH242186   1.554   4.955  14.754  0.0662  0.7456  0.0845
 6924TIP3    H142187   1.566   4.930  14.846 -1.9324  1.0958  0.4983
 6924TIP3    H242188   1.532   4.874  14.709 -1.7318  0.9635  0.5007
 6925TIP3   OH242189   6.286   1.385   0.759  0.1797 -0.1439 -0.8055
 6925TIP3    H142190   6.315   1.456   0.817 -0.3014 -1.6596  1.3910
 6925TIP3    H242191   6.191   1.382   0.770  0.3480 -2.2743  0.6087
 6926TIP3   OH242192   0.294   2.534  12.381  0.5593 -0.1031 -0.4749
 6926TIP3    H142193   0.266   2.623  12.404  0.8002 -0.5519  1.7988
 6926TIP3    H242194   0.222   2.478  12.411  2.2471 -0.9854  2.3185
 6927TIP3   OH242195   1.950   5.601  13.702  0.1128 -0.7222  0.4171
 6927TIP3    H142196   2.008   5.671  13.673  0.0447 -0.4258  0.9756
 6927TIP3    H242197   1.970   5.591  13.795  0.6000 -1.9046  0.1995
 6928TIP3   OH242198   5.035   2.139  16.990 -0.1156  0.1103 -0.0918
 6928TIP3    H142199   4.991   2.059  17.019  0.8953  0.1053  1.5252
 6928TIP3    H242200   5.061   2.120  16.900 -1.5515 -0.6451 -0.3840
 6929TIP3   OH242201   2.293   2.880   3.675  1.2319 -0.1501 -0.4347
 6929TIP3    H142202   2.270   2.906   3.764  1.1922 -2.5791  0.3376
 6929TIP3    H242203   2.331   2.959   3.636 -0.0455  1.3774  1.2362
 6930TIP3   OH242204   4.440   1.886   5.567 -0.1195  0.1840 -0.0568
 6930TIP3    H142205   4.436   1.908   5.660 -1.5107 -0.1320 -0.0177
 6930TIP3    H242206   4.354   1.911   5.533  0.4262  0.4324 -1.2947
 6931TIP3   OH242207   4.049   1.881  16.096 -0.0920 -0.2932 -0.8541
 6931TIP3    H142208   4.053   1.805  16.154 -0.4131  0.5309  0.2679
 6931TIP3    H242209   4.050   1.957  16.154  0.9078  0.6075 -1.9756
 6932TIP3   OH242210   5.458   3.363  14.293 -0.1952 -0.0737 -0.3642
 6932TIP3    H142211   5.499   3.445  14.321 -1.2113  1.0320 -1.8864
 6932TIP3    H242212   5.515   3.330  14.223  0.0527 -0.5141  0.0430
 6933TIP3   OH242213   0.353   4.271  14.114 -0.4060  0.3728  0.7016
 6933TIP3    H142214   0.355   4.188  14.067  0.8061  1.9161 -2.1940
 6933TIP3    H242215   0.407   4.256  14.192 -1.0918 -1.8073  0.8202
 6934TIP3   OH242216   3.095   5.740   0.440  0.1821  1.2589 -0.2036
 6934TIP3    H142217   3.128   5.773   0.524  0.3110  3.7144 -1.1371
 6934TIP3    H242218   3.053   5.815   0.399 -1.8175 -0.4222 -1.4554
 6935TIP3   OH242219   2.625   2.015   0.268 -0.4018  0.5961 -0.7663
 6935TIP3    H142220   2.654   1.924   0.261 -0.3814  0.4169  1.2308
 6935TIP3    H242221   2.687   2.064   0.215  0.5829 -0.3590 -0.5279
 6936TIP3   OH242222   2.125   1.456   0.055  0.4189 -0.0209  0.0659
 6936TIP3    H142223   2.063   1.446   0.127 -0.2352  0.0572 -0.4705
 6936TIP3    H242224   2.108   1.380  -0.001  0.3367  0.3639 -0.4315
 6937TIP3   OH242225   2.425   6.694   1.605  0.3812  1.3490  0.1081
 6937TIP3    H142226   2.486   6.665   1.673  0.2825 -0.1772 -0.4120
 6937TIP3    H242227   2.347   6.639   1.619  0.2518  1.2184 -1.0466
 6938TIP3   OH242228   2.941   4.496  13.786 -0.7561 -0.1918  0.1547
 6938TIP3    H142229   3.018   4.441  13.800 -2.0239 -1.9180  0.7476
 6938TIP3    H242230   2.905   4.509  13.873 -0.3241  1.9404  0.0763
 6939TIP3   OH242231   5.771   3.892  12.105  0.5278 -0.2242 -0.1295
 6939TIP3    H142232   5.735   3.876  12.018  0.6574 -2.7713  0.2097
 6939TIP3    H242233   5.695   3.888  12.163  0.6764 -0.2767  0.0614
 6940TIP3   OH242234   1.178   5.755   3.792  0.6193 -0.5020 -0.5763
 6940TIP3    H142235   1.134   5.798   3.719  0.5800 -0.2696 -0.4180
 6940TIP3    H242236   1.108   5.707   3.837  0.6977 -0.8785 -0.8602
 6941TIP3   OH242237   0.208   2.752  12.175 -0.1854 -0.2290  0.2834
 6941TIP3    H142238   0.192   2.659  12.190  1.2689 -1.0035 -2.3081
 6941TIP3    H242239   0.226   2.787  12.262  0.8744 -2.7308  1.1746
 6942TIP3   OH242240   4.906   5.852   2.568 -0.2652  0.0474 -0.1083
 6942TIP3    H142241   4.820   5.884   2.596 -0.3273  0.4465 -0.7390
 6942TIP3    H242242   4.944   5.814   2.648 -1.2854 -0.7395  0.0230
 6943TIP3   OH242243   6.331   2.773  15.685 -0.1528  0.7405 -0.6193
 6943TIP3    H142244   6.403   2.754  15.624 -0.4782  0.8739 -1.0484
 6943TIP3    H242245   6.272   2.699  15.675 -1.2054  1.7034 -1.9665
 6944TIP3   OH242246   6.090   3.084   4.783 -0.3035 -0.5328  0.3292
 6944TIP3    H142247   6.015   3.034   4.813 -0.8470 -0.6785 -1.1892
 6944TIP3    H242248   6.115   3.043   4.700  1.6493 -0.6718  0.9374
 6945TIP3   OH242249   0.973   2.241  13.775 -0.0699 -0.0926 -0.1987
 6945TIP3    H142250   0.974   2.211  13.866  1.7092  0.9287  0.1798
 6945TIP3    H242251   0.929   2.326  13.779  0.2410  0.0732 -0.2254
 6946TIP3   OH242252   3.534   4.248  16.753 -0.2644  0.0027 -0.0545
 6946TIP3    H142253   3.465   4.241  16.688 -0.1756 -1.3878 -0.0346
 6946TIP3    H242254   3.552   4.342  16.759 -1.7534  0.3391 -0.4550
 6947TIP3   OH242255   0.134   5.838   1.960  0.4646  0.1980 -0.4751
 6947TIP3    H142256   0.125   5.871   1.871  2.2526  1.1969 -0.3317
 6947TIP3    H242257   0.180   5.908   2.007  1.8637 -1.3575  0.5686
 6948TIP3   OH242258   3.085   3.114  14.014 -0.4686 -0.5650 -0.1488
 6948TIP3    H142259   3.153   3.047  14.013  0.6028  0.3348  2.5186
 6948TIP3    H242260   3.106   3.168  14.091 -1.9198  2.1536 -1.5172
 6949TIP3   OH242261   3.834   0.479  16.060  0.2605 -0.0510 -0.0731
 6949TIP3    H142262   3.873   0.541  15.997 -1.4549 -0.0494 -1.1921
 6949TIP3    H242263   3.741   0.481  16.041 -0.3656  0.0383  2.6169
 6950TIP3   OH242264   5.717   6.130   6.286  0.2613  0.1058 -0.1079
 6950TIP3    H142265   5.657   6.205   6.281  0.8409  0.5226 -1.0692
 6950TIP3    H242266   5.796   6.166   6.328  0.4715 -0.0005 -0.4065
 6951TIP3   OH242267   2.130   1.583  12.971 -0.0809  0.3149 -0.2021
 6951TIP3    H142268   2.186   1.658  12.992  0.8617  0.1219 -1.8241
 6951TIP3    H242269   2.162   1.513  13.027  0.7924  0.4220 -0.5562
 6952TIP3   OH242270   1.767   3.070   4.859 -0.7787 -0.0964  0.1325
 6952TIP3    H142271   1.817   3.002   4.814 -0.3474  0.3396 -0.0560
 6952TIP3    H242272   1.827   3.105   4.925 -1.7472 -1.4950  1.8684
 6953TIP3   OH242273   5.592   3.179   4.753  0.0954 -0.0446 -0.1301
 6953TIP3    H142274   5.668   3.138   4.795 -0.3482  0.3761  1.1018
 6953TIP3    H242275   5.570   3.119   4.681  1.7362 -0.0476 -0.6785
 6954TIP3   OH242276   6.635   0.324   2.251 -0.1192  0.0756 -0.2900
 6954TIP3    H142277   6.628   0.251   2.190 -1.0031 -0.3715  0.3318
 6954TIP3    H242278   6.616   0.402   2.199  0.3429 -0.1718 -0.8434
 6955TIP3   OH242279   4.836   4.393  16.874 -0.7457 -0.3722 -0.6508
 6955TIP3    H142280   4.810   4.443  16.951  1.0425 -1.0316  0.4401
 6955TIP3    H242281   4.766   4.409  16.811 -2.2169  0.2903  1.0487
 6956TIP3   OH242282   0.796   3.084   0.780 -0.2305 -0.3007  0.5078
 6956TIP3    H142283   0.775   3.166   0.734 -1.0852 -0.2390  1.0022
 6956TIP3    H242284   0.802   3.109   0.872 -1.2051 -0.9174  0.7521
 6957TIP3   OH242285   2.564   0.974  16.265  0.3994  0.4687 -0.1189
 6957TIP3    H142286   2.597   0.992  16.176  0.5056  1.1137  0.0450
 6957TIP3    H242287   2.643   0.963  16.317  0.3362 -0.9823 -0.3052
 6958TIP3   OH242288   1.815   4.531   3.244 -0.2387 -0.0369  0.3926
 6958TIP3    H142289   1.868   4.482   3.182  0.6233  2.2389 -0.8007
 6958TIP3    H242290   1.774   4.600   3.192 -2.1013 -0.0061  1.8065
 6959TIP3   OH242291   5.051   0.274   4.252 -0.8235 -0.6960  0.2591
 6959TIP3    H142292   5.133   0.282   4.301  0.0200 -2.6878 -0.7252
 6959TIP3    H242293   5.039   0.180   4.239 -2.9044 -0.4192 -0.2610
 6960TIP3   OH242294   1.319   3.462   4.506 -0.5871  0.4784 -0.0915
 6960TIP3    H142295   1.346   3.473   4.598 -1.3929  1.5419  0.0380
 6960TIP3    H242296   1.359   3.537   4.461 -2.4433  1.5208 -0.0792
 6961TIP3   OH242297   3.824   2.342   5.038  0.4477 -0.0618 -0.5620
 6961TIP3    H142298   3.743   2.294   5.050  1.4671 -2.2167 -1.7462
 6961TIP3    H242299   3.893   2.278   5.052  1.8973  1.0617 -2.1061
 6962TIP3   OH242300   4.133   0.170   6.462 -0.2960  0.2166 -0.3775
 6962TIP3    H142301   4.104   0.082   6.438 -0.1772  0.3329 -0.9466
 6962TIP3    H242302   4.218   0.181   6.420 -0.4204  0.6955 -0.5157
 6963TIP3   OH242303   3.543   3.759  16.598 -0.7900 -0.5872  0.0461
 6963TIP3    H142304   3.507   3.681  16.557  2.2045 -1.6841 -0.7316
 6963TIP3    H242305   3.625   3.730  16.638  0.4203  2.1197 -0.2477
 6964TIP3   OH242306   4.595   4.956  16.749 -0.0155 -0.0525 -0.1936
 6964TIP3    H142307   4.574   4.976  16.841 -0.3855 -0.7388 -0.1215
 6964TIP3    H242308   4.678   5.000  16.734  0.3045 -0.3505  0.6265
 6965TIP3   OH242309   4.678   4.400  17.134  0.4697 -0.2556  0.0144
 6965TIP3    H142310   4.603   4.374  17.188 -0.3601  0.8527 -0.5583
 6965TIP3    H242311   4.753   4.358  17.175 -0.6674 -2.9682 -0.4660
 6966TIP3   OH242312   2.836   3.268   0.577 -0.1935 -0.3232 -0.3595
 6966TIP3    H142313   2.918   3.305   0.543 -0.1837  0.2683  0.2850
 6966TIP3    H242314   2.768   3.324   0.540 -0.4994 -2.0494 -2.5868
 6967TIP3   OH242315   5.041   1.739   3.162 -0.7867  0.6496  0.1592
 6967TIP3    H142316   5.001   1.819   3.127  1.5147  0.3467 -3.8854
 6967TIP3    H242317   4.993   1.668   3.119  0.9432  0.1764 -1.1248
 6968TIP3   OH242318   0.507   5.089   0.615 -0.0339 -0.0299  0.0715
 6968TIP3    H142319   0.518   5.019   0.680  0.5514  0.3244  0.3661
 6968TIP3    H242320   0.581   5.077   0.555  0.5032  0.7859  0.5529
 6969TIP3   OH242321   0.878   3.602  16.596 -0.0314 -0.7717 -0.8247
 6969TIP3    H142322   0.839   3.523  16.634 -0.2772 -0.5603 -0.6316
 6969TIP3    H242323   0.965   3.607  16.635 -0.7385  0.1589  0.7723
 6970TIP3   OH242324   4.935   5.691   0.828 -0.6001 -0.1632  0.2708
 6970TIP3    H142325   4.851   5.668   0.868 -0.5565 -0.2964  0.2844
 6970TIP3    H242326   4.987   5.611   0.831 -0.3253  0.0252  0.6303
 6971TIP3   OH242327   2.878   2.491  13.822  0.5331 -0.2552 -0.4691
 6971TIP3    H142328   2.858   2.583  13.839 -0.1417 -0.3675 -0.6165
 6971TIP3    H242329   2.836   2.473  13.737  2.5665 -0.1001 -1.5744
 6972TIP3   OH242330   4.408   5.353   2.459 -0.1620  0.6713 -0.3147
 6972TIP3    H142331   4.463   5.394   2.392 -1.3658  0.3086 -1.5861
 6972TIP3    H242332   4.319   5.357   2.422 -0.6431 -0.9309  0.5795
 6973TIP3   OH242333   4.443   5.212  14.181 -0.0648  0.3077 -0.0660
 6973TIP3    H142334   4.537   5.196  14.174 -0.0632 -0.0354  0.6044
 6973TIP3    H242335   4.412   5.219  14.091  0.7954  1.5711 -0.2831
 6974TIP3   OH242336   4.249   2.360  13.793 -0.5216 -0.4741  0.1560
 6974TIP3    H142337   4.258   2.425  13.862 -0.3713 -1.5944  1.2298
 6974TIP3    H242338   4.180   2.302  13.824  0.2789 -1.6071 -0.1154
 6975TIP3   OH242339   1.975   3.518  12.043 -0.1601 -0.2410  0.0410
 6975TIP3    H142340   1.895   3.476  12.073  1.0493 -2.1468  0.8289
 6975TIP3    H242341   1.994   3.478  11.958 -0.1856  0.4055 -0.2739
 6976TIP3   OH242342   1.500   2.330   3.184  0.5474 -0.2570 -0.2931
 6976TIP3    H142343   1.470   2.239   3.183  2.0106 -0.7902 -2.3008
 6976TIP3    H242344   1.434   2.378   3.133  1.8834 -1.0633 -2.9889
 6977TIP3   OH242345   0.936   1.363   4.796 -0.1941 -0.5615  0.1396
 6977TIP3    H142346   0.853   1.322   4.821 -0.4314 -0.3422 -0.2798
 6977TIP3    H242347   0.988   1.292   4.760 -0.5352 -0.5339 -0.4186
 6978TIP3   OH242348   0.526   4.683  10.614  0.3555 -0.0376  0.0048
 6978TIP3    H142349   0.576   4.613  10.656 -0.6199 -0.0461  1.1965
 6978TIP3    H242350   0.591   4.729  10.560  1.8644  0.3575  2.0133
 6979TIP3   OH242351   5.281   4.477  12.695  0.0558 -0.4228  0.3744
 6979TIP3    H142352   5.226   4.464  12.618 -0.0297 -0.2322  0.4029
 6979TIP3    H242353   5.352   4.534  12.665 -0.1727 -0.0517  0.5217
 6980TIP3   OH242354   6.267   3.517  12.445 -0.4165  0.5408  0.1906
 6980TIP3    H142355   6.187   3.501  12.495 -0.4984 -0.3626 -0.1955
 6980TIP3    H242356   6.284   3.433  12.401 -0.9558  1.5868 -2.1581
 6981TIP3   OH242357   3.514   3.932   2.068 -0.6989  0.0494  0.4683
 6981TIP3    H142358   3.541   3.900   1.982  0.0198  0.0346  0.6957
 6981TIP3    H242359   3.594   3.933   2.120 -1.0910  0.2460  1.0835
 6982TIP3   OH242360   5.617   4.651  10.939 -0.2227 -0.3491  0.3872
 6982TIP3    H142361   5.560   4.690  10.872  1.7362  0.2839 -0.9958
 6982TIP3    H242362   5.609   4.709  11.014 -0.3024  0.5497 -0.3004
 6983TIP3   OH242363   5.325   4.918  14.144 -0.0924  0.1470 -0.6074
 6983TIP3    H142364   5.355   4.855  14.078  0.6356  1.2502 -1.3531
 6983TIP3    H242365   5.395   4.920  14.209  0.3989  0.9964 -1.1533
 6984TIP3   OH242366   3.814   3.101   4.682  0.0223  0.4560  0.0040
 6984TIP3    H142367   3.760   3.052   4.744 -0.1245  0.0138 -0.4642
 6984TIP3    H242368   3.879   3.038   4.652 -0.5354  0.3555 -1.0529
 6985TIP3   OH242369   2.891   4.418   2.200  0.1080  0.0016  1.0708
 6985TIP3    H142370   2.850   4.362   2.134  1.2341  0.0823  0.2701
 6985TIP3    H242371   2.835   4.496   2.204 -0.7009 -0.5703  1.1812
 6986TIP3   OH242372   1.503   1.176  11.340 -0.1801  0.3739 -0.0150
 6986TIP3    H142373   1.436   1.109  11.325  1.2454 -1.2752  0.5759
 6986TIP3    H242374   1.454   1.256  11.356 -1.9831 -0.6290 -0.2239
 6987TIP3   OH242375   2.827   4.168  11.683 -0.0415 -0.3749  0.2603
 6987TIP3    H142376   2.803   4.261  11.687 -1.2301 -0.6142 -0.5010
 6987TIP3    H242377   2.868   4.150  11.767  0.2018  0.8372  0.4262
 6988TIP3   OH242378   3.902   5.259  12.967  0.4986 -0.1820 -0.5483
 6988TIP3    H142379   3.815   5.295  12.984  0.9109  0.3647  0.4340
 6988TIP3    H242380   3.917   5.197  13.038  1.0798  0.0309 -0.4801
 6989TIP3   OH242381   3.347   1.846  12.211 -0.3934 -0.3594  0.5168
 6989TIP3    H142382   3.254   1.828  12.202 -0.0636 -2.0468  0.0572
 6989TIP3    H242383   3.379   1.776  12.269  0.7971 -0.5734 -0.3582
 6990TIP3   OH242384   3.740   6.644  13.249 -0.2748 -0.1137  0.3183
 6990TIP3    H142385   3.730   6.731  13.210 -0.8953 -0.3201  0.0019
 6990TIP3    H242386   3.660   6.597  13.224  0.5059 -1.1149 -0.4090
 6991TIP3   OH242387   1.570   5.904  14.422  0.1998  0.0795 -0.1964
 6991TIP3    H142388   1.504   5.973  14.417  0.5603  0.5066  0.7251
 6991TIP3    H242389   1.653   5.950  14.423  0.3982 -0.2053  2.4129
 6992TIP3   OH242390   1.546   2.588  17.123  0.0696 -0.3081  0.2709
 6992TIP3    H142391   1.506   2.616  17.205 -1.0630 -0.8915 -0.0484
 6992TIP3    H242392   1.572   2.497  17.139  2.0029  0.2719  0.7060
 6993TIP3   OH242393   3.469   1.294  12.326  0.6770  0.6843  0.0064
 6993TIP3    H142394   3.471   1.205  12.291 -1.2383 -0.3767  2.3312
 6993TIP3    H242395   3.466   1.350  12.248 -0.6984 -1.4113 -1.5712
 6994TIP3   OH242396   6.578   1.751  16.801  0.2295 -0.1719 -0.1775
 6994TIP3    H142397   6.528   1.719  16.877  1.7810  0.7675  1.2959
 6994TIP3    H242398   6.529   1.828  16.772  0.0810 -0.0392  0.4017
 6995TIP3   OH242399   4.210   1.643   5.049  0.2683  0.0231 -0.9351
 6995TIP3    H142400   4.198   1.654   4.954 -0.9124  0.4853 -0.7467
 6995TIP3    H242401   4.136   1.690   5.088  1.6114  1.2242  0.2754
 6996TIP3   OH242402   2.844   2.499  12.458 -0.5071  0.3114  0.8086
 6996TIP3    H142403   2.852   2.580  12.407 -1.2443  1.2358  2.1261
 6996TIP3    H242404   2.913   2.505  12.524  0.9994 -1.2702 -0.5071
 6997TIP3   OH242405   2.611   5.283   1.851 -0.6915  0.0074 -0.5401
 6997TIP3    H142406   2.608   5.278   1.947  0.1503  0.0041 -0.5093
 6997TIP3    H242407   2.552   5.214   1.822 -0.5974 -0.3001 -0.0216
 6998TIP3   OH242408   6.391   1.745   2.251 -0.6351 -0.2186  0.1747
 6998TIP3    H142409   6.393   1.840   2.246 -0.1947 -0.1962  0.6530
 6998TIP3    H242410   6.481   1.718   2.230 -0.7685 -0.5291 -0.0000
 6999TIP3   OH242411   2.053   0.136  13.121  0.2775 -0.3423 -0.0373
 6999TIP3    H142412   2.072   0.207  13.183 -0.2696  0.4868 -0.8006
 6999TIP3    H242413   2.031   0.061  13.177 -0.6836  0.5150  0.7762
 7000TIP3   OH242414   2.633   3.110   1.721 -0.3049  0.1936  0.1724
 7000TIP3    H142415   2.596   3.158   1.795 -2.0432 -0.6169 -0.1345
 7000TIP3    H242416   2.574   3.036   1.708  0.0817  0.1890 -1.8900
 7001TIP3   OH242417   6.518   5.150   4.220 -0.2534  0.5723  0.0504
 7001TIP3    H142418   6.446   5.214   4.216 -1.6135 -0.7841  1.2382
 7001TIP3    H242419   6.591   5.199   4.259 -1.4081  1.2987  1.4078
 7002TIP3   OH242420   3.378   2.348   1.409  0.4453  0.4828  0.3400
 7002TIP3    H142421   3.299   2.296   1.423  0.1289  0.5852 -0.9167
 7002TIP3    H242422   3.434   2.292   1.355  1.9045 -0.1927  2.4472
 7003TIP3   OH242423   5.742   5.873  16.603  0.4996  0.3890 -0.0709
 7003TIP3    H142424   5.702   5.872  16.516 -0.7590  0.1262  0.4881
 7003TIP3    H242425   5.770   5.964  16.615  3.2271 -0.0892 -1.8231
 7004TIP3   OH242426   2.032   2.408  15.717  0.1020  0.2385  0.0265
 7004TIP3    H142427   1.995   2.323  15.739  1.9872 -1.1825 -1.8339
 7004TIP3    H242428   1.961   2.455  15.673 -0.5273 -1.0181 -0.3414
 7005TIP3   OH242429   3.857   3.838  15.883 -0.3308  0.6748 -0.1617
 7005TIP3    H142430   3.832   3.881  15.965 -0.6435  1.5940 -0.7291
 7005TIP3    H242431   3.939   3.792  15.904 -1.7007 -1.2652  1.3582
 7006TIP3   OH242432   5.376   2.333  15.030 -0.4564 -0.1507  0.2571
 7006TIP3    H142433   5.404   2.364  14.944 -3.6526  1.1505 -0.4846
 7006TIP3    H242434   5.377   2.411  15.085  1.9929 -1.0609  1.6212
 7007TIP3   OH242435   6.529   1.186   0.642 -0.4469  0.4000  0.2607
 7007TIP3    H142436   6.442   1.151   0.625  0.0651 -0.1768 -1.2661
 7007TIP3    H242437   6.586   1.110   0.644 -0.0330  0.7073  1.8887
 7008TIP3   OH242438   2.351   5.943  13.568 -0.0816  0.8798 -0.0303
 7008TIP3    H142439   2.400   5.876  13.521  0.8140  1.8938 -0.5976
 7008TIP3    H242440   2.341   5.908  13.657  1.7775  0.6850  0.1306
 7009TIP3   OH242441   5.656   4.283  17.208 -0.5464 -0.0170 -0.3903
 7009TIP3    H142442   5.726   4.332  17.251  0.5830  0.1129 -2.2818
 7009TIP3    H242443   5.607   4.349  17.159 -1.3499 -0.2709  0.0480
 7010TIP3   OH242444   1.496   3.957   0.062 -0.3909 -0.1109 -0.4818
 7010TIP3    H142445   1.572   3.982   0.009 -0.1914 -1.4084 -0.8436
 7010TIP3    H242446   1.461   4.040   0.094  0.8776  0.5530 -0.7260
 7011TIP3   OH242447   0.190   4.047   4.609  0.0682 -0.0494  0.1730
 7011TIP3    H142448   0.223   4.115   4.668  0.0319 -0.0100  0.1483
 7011TIP3    H242449   0.239   4.059   4.528 -0.4694  0.4303 -0.0854
 7012TIP3   OH242450   4.499   4.223  16.496  0.4003 -0.1606 -0.1956
 7012TIP3    H142451   4.443   4.152  16.528  0.7916 -0.7257 -0.7617
 7012TIP3    H242452   4.583   4.208  16.538  0.7831 -0.6388 -1.1212
 7013TIP3   OH242453   0.669   0.184   1.884  0.6717 -0.0810  0.4927
 7013TIP3    H142454   0.591   0.200   1.937  2.1786  1.0384  2.5578
 7013TIP3    H242455   0.647   0.220   1.798 -0.7051  1.2878  1.3514
 7014TIP3   OH242456   2.660   1.078  15.639  0.1236 -0.3030  0.0884
 7014TIP3    H142457   2.640   1.013  15.571  0.2016 -0.9988  0.7093
 7014TIP3    H242458   2.725   1.135  15.600  1.3020 -1.6066  0.0742
 7015TIP3   OH242459   3.598   2.701   5.440 -0.4579 -0.3142 -0.3537
 7015TIP3    H142460   3.507   2.722   5.422 -0.2212  2.6167  1.2646
 7015TIP3    H242461   3.614   2.735   5.528  2.4658  0.2336 -0.9848
 7016TIP3   OH242462   4.266   3.705  11.083 -0.8843 -0.2000  0.6092
 7016TIP3    H142463   4.185   3.745  11.115 -0.3828 -0.0054  1.6886
 7016TIP3    H242464   4.275   3.625  11.134  1.4885  1.5805  3.3322
 7017TIP3   OH242465   2.462   4.028  14.911  0.0475  0.1114 -0.4155
 7017TIP3    H142466   2.402   3.971  14.864  0.2371 -0.5193  0.0802
 7017TIP3    H242467   2.548   4.012  14.871 -0.0275  0.6367 -0.7934
 7018TIP3   OH242468   5.187   2.335  14.127 -0.3576 -0.6032  0.4740
 7018TIP3    H142469   5.136   2.276  14.183 -0.2827  0.2841  1.5202
 7018TIP3    H242470   5.168   2.422  14.162 -0.2275 -0.0258 -0.8431
 7019TIP3   OH242471   4.154   1.200   5.504 -0.6649 -0.2108  0.0810
 7019TIP3    H142472   4.175   1.185   5.596  0.1823  0.1978 -0.0322
 7019TIP3    H242473   4.221   1.151   5.456 -0.5464  0.3248 -0.3090
 7020TIP3   OH242474   1.063   1.249  14.230  0.6559  0.6693  0.2271
 7020TIP3    H142475   1.107   1.206  14.303 -1.1482 -0.1339  0.8933
 7020TIP3    H242476   1.089   1.199  14.153  0.7883  0.1325  0.6206
 7021TIP3   OH242477   2.676   0.808   3.528 -0.0021 -0.1529 -0.0596
 7021TIP3    H142478   2.650   0.891   3.569  0.4201 -0.7499  1.4905
 7021TIP3    H242479   2.635   0.810   3.442  0.5092  1.9503 -0.3167
 7022TIP3   OH242480   1.268   5.448  17.192 -0.1195 -0.1661  0.3258
 7022TIP3    H142481   1.280   5.537  17.161 -2.0558 -0.3280 -1.1471
 7022TIP3    H242482   1.347   5.401  17.165  1.0271  1.1199  1.3485
 7023TIP3   OH242483   0.616   3.038  14.707 -0.5240  0.1570  0.5062
 7023TIP3    H142484   0.610   3.074  14.795  0.6018 -0.4906  0.8718
 7023TIP3    H242485   0.700   3.069  14.674 -0.5767 -0.2619 -0.0306
 7024TIP3   OH242486   3.089   3.937  14.869  0.1251  0.1324 -0.0171
 7024TIP3    H142487   3.057   3.849  14.851  0.7605 -0.0129 -0.4656
 7024TIP3    H242488   3.156   3.952  14.803 -0.5014  1.2489 -0.4354
 7025TIP3   OH242489   2.971   0.249   2.919 -0.2436  0.1858  0.2467
 7025TIP3    H142490   2.927   0.228   2.837 -2.2722  0.0772  1.3140
 7025TIP3    H242491   2.949   0.176   2.978  0.2903  0.7735  1.2119
 7026TIP3   OH242492   3.580   1.262  16.166  0.0660  0.1057  0.3537
 7026TIP3    H142493   3.612   1.173  16.182 -2.0195 -0.9226 -0.7758
 7026TIP3    H242494   3.596   1.276  16.073  0.5129  0.9987  0.5583
 7027TIP3   OH242495   0.729   6.593   6.147 -0.0716  0.2729  0.5856
 7027TIP3    H142496   0.667   6.637   6.206  1.3579  0.4353  2.0270
 7027TIP3    H242497   0.809   6.584   6.198  1.5756  1.2382 -1.6362
 7028TIP3   OH242498   5.938   3.039   1.819  0.3249  0.1099  0.1868
 7028TIP3    H142499   5.949   3.042   1.914  0.1600  2.8829  0.1948
 7028TIP3    H242500   5.873   3.106   1.800  0.7868  0.0265 -1.9527
 7029TIP3   OH242501   3.112   4.548   2.039  0.0521  0.1134  0.4898
 7029TIP3    H142502   3.111   4.467   1.987  2.1025 -2.8668  4.5476
 7029TIP3    H242503   3.028   4.547   2.086  0.7485 -0.6264  1.7573
 7030TIP3   OH242504   0.020   1.883  13.304  0.6578 -0.2126 -0.1792
 7030TIP3    H142505   0.017   1.846  13.393 -0.0933 -1.6702 -0.7704
 7030TIP3    H242506   0.095   1.840  13.263 -0.2509 -1.1491 -0.8948
 7031TIP3   OH242507   5.279   1.796  16.744 -0.9431 -0.8142  0.4585
 7031TIP3    H142508   5.314   1.761  16.662 -1.3053  1.9354 -1.0002
 7031TIP3    H242509   5.357   1.822  16.794 -0.7204  1.0282 -0.7554
 7032TIP3   OH242510   3.354   5.625   2.039  0.1584  0.0189  0.0350
 7032TIP3    H142511   3.370   5.543   2.086  1.9780  0.7894  0.8753
 7032TIP3    H242512   3.264   5.649   2.062  0.1217 -0.9676  1.0195
 7033TIP3   OH242513   4.656   4.062  11.251 -0.1733 -0.1406  0.1383
 7033TIP3    H142514   4.683   4.065  11.159 -2.4558  0.2293 -0.5823
 7033TIP3    H242515   4.696   3.983  11.285  1.3801  0.1269 -0.9351
 7034TIP3   OH242516   2.111   2.078  14.495 -0.0929 -0.2364  0.6241
 7034TIP3    H142517   2.050   2.061  14.423  0.0787 -1.3618  0.7174
 7034TIP3    H242518   2.081   2.161  14.532 -2.1378 -1.1550  1.2102
 7035TIP3   OH242519   1.943   0.188  15.333  0.5871 -0.4500 -0.5006
 7035TIP3    H142520   1.908   0.132  15.264 -1.3461 -1.3418  1.1098
 7035TIP3    H242521   1.885   0.264  15.333  1.1740 -0.0028 -0.4962
 7036TIP3   OH242522   2.887   2.966   5.314  0.1828 -0.1381  0.7121
 7036TIP3    H142523   2.845   2.893   5.268  0.9675  0.0022 -0.2389
 7036TIP3    H242524   2.814   3.023   5.338 -0.2281  0.0059 -0.7540
 7037TIP3   OH242525   3.605   4.595  16.848 -0.7253 -0.2110 -0.2149
 7037TIP3    H142526   3.543   4.654  16.891  0.2044  0.8174 -0.2516
 7037TIP3    H242527   3.668   4.653  16.805  0.8858 -1.1969  0.7074
 7038TIP3   OH242528   2.416   5.519   3.950 -0.0792 -0.4572  0.2670
 7038TIP3    H142529   2.464   5.452   3.902 -0.0390  0.3180 -0.8099
 7038TIP3    H242530   2.482   5.585   3.972 -0.4218  0.0522 -0.2060
 7039TIP3   OH242531   2.194   6.136   5.858 -0.1758 -0.3259  0.5233
 7039TIP3    H142532   2.176   6.162   5.949 -1.9105 -0.2911  0.2013
 7039TIP3    H242533   2.239   6.212   5.820 -0.9782  0.3477  0.8848
 7040TIP3   OH242534   0.452   6.356   2.582 -0.4423  0.8779  0.7833
 7040TIP3    H142535   0.399   6.431   2.553  0.5509  1.1617 -0.3776
 7040TIP3    H242536   0.409   6.327   2.663 -2.7536  0.6793 -0.4298
 7041TIP3   OH242537   2.093   3.746  15.775  0.1772  0.2026 -0.0731
 7041TIP3    H142538   2.003   3.748  15.809  0.2951 -1.1015  0.3813
 7041TIP3    H242539   2.094   3.811  15.705 -0.7437  1.2099  0.8049
 7042TIP3   OH242540   1.307   2.224   1.187 -0.4968  0.6553  0.0019
 7042TIP3    H142541   1.321   2.263   1.101 -2.9431  2.8536  0.4582
 7042TIP3    H242542   1.366   2.272   1.245  2.4492 -1.9905 -0.5448
 7043TIP3   OH242543   2.883   0.464   5.133  0.0916  0.6392  0.5449
 7043TIP3    H142544   2.863   0.404   5.061 -0.5755  0.5029  0.8368
 7043TIP3    H242545   2.974   0.490   5.118  0.2193 -0.0301  0.1165
 7044TIP3   OH242546   4.050   4.408  14.023  0.2033 -0.6170 -0.1780
 7044TIP3    H142547   3.979   4.418  13.959 -0.3814 -1.5295  0.3147
 7044TIP3    H242548   4.021   4.338  14.081  0.9625 -0.1662  0.7817
 7045TIP3   OH242549   2.339   5.321  13.855  0.2475  0.2114 -0.3504
 7045TIP3    H142550   2.368   5.304  13.945  0.6234 -0.8826 -0.6731
 7045TIP3    H242551   2.280   5.249  13.834  0.8272 -0.0125 -1.2789
 7046TIP3   OH242552   6.262   1.891  15.310 -0.4308  0.0028  0.3868
 7046TIP3    H142553   6.263   1.915  15.403 -0.8436  0.3405  0.3070
 7046TIP3    H242554   6.236   1.799  15.309 -2.8493  0.6252  0.4963
 7047TIP3   OH242555   5.320   3.253  16.398  0.5384  0.3741  0.1004
 7047TIP3    H142556   5.378   3.252  16.322 -0.8658 -0.7617 -1.0017
 7047TIP3    H242557   5.371   3.298  16.466  1.4792  2.2516 -1.7429
 7048TIP3   OH242558   2.566   1.835  12.902 -0.2821 -0.4449 -0.2780
 7048TIP3    H142559   2.659   1.854  12.913 -0.4407 -0.0523  0.5051
 7048TIP3    H242560   2.530   1.913  12.860 -0.5880  0.2256  1.1744
 7049TIP3   OH242561   1.080   0.990  15.301 -0.2331  0.0581 -0.0619
 7049TIP3    H142562   1.132   1.069  15.286  0.9580 -0.7356 -0.2681
 7049TIP3    H242563   1.098   0.935  15.224 -1.1310 -0.3774  0.0264
 7050TIP3   OH242564   6.428   2.163   4.958  0.2470 -0.4643  0.4119
 7050TIP3    H142565   6.383   2.242   4.988 -3.0901 -2.4361  1.1285
 7050TIP3    H242566   6.416   2.164   4.863  0.3682 -0.0169  0.4000
 7051TIP3   OH242567   5.875   4.412  16.253 -0.1037 -0.1886 -0.2879
 7051TIP3    H142568   5.809   4.441  16.191  1.1372 -0.6012 -1.8845
 7051TIP3    H242569   5.897   4.491  16.303 -0.0152  0.5690 -1.4629
 7052TIP3   OH242570   3.051   1.523  11.579 -0.3996 -0.2057 -0.1709
 7052TIP3    H142571   2.977   1.551  11.525  0.2612  0.0098 -0.9937
 7052TIP3    H242572   3.047   1.579  11.656 -0.7872  0.1645 -0.4575
 7053TIP3   OH242573   0.253   4.215   0.551  0.3144  0.2981  0.5205
 7053TIP3    H142574   0.270   4.179   0.638  0.7652 -1.9822 -0.4239
 7053TIP3    H242575   0.340   4.242   0.519  0.8908 -2.5230 -0.6393
 7054TIP3   OH242576   3.074   0.858  10.599  0.2031  0.1137 -0.1351
 7054TIP3    H142577   3.036   0.812  10.674 -1.2366 -0.1861 -1.0186
 7054TIP3    H242578   3.146   0.909  10.637 -0.4321 -0.0824  1.4368
 7055TIP3   OH242579   4.693   4.895   2.889 -0.2299  0.1101  0.2176
 7055TIP3    H142580   4.613   4.846   2.908 -0.2068  0.5076  1.3715
 7055TIP3    H242581   4.762   4.846   2.935  0.3525 -0.6965 -1.4190
 7056TIP3   OH242582   5.865   5.334   5.187 -0.7431 -0.2774  0.0348
 7056TIP3    H142583   5.784   5.304   5.226 -0.2716 -1.0564  0.4415
 7056TIP3    H242584   5.924   5.348   5.262 -0.0191 -1.2142 -0.3457
 7057TIP3   OH242585   3.847   0.099  16.456  0.1886  0.1424 -1.0177
 7057TIP3    H142586   3.825   0.042  16.530 -0.8613  1.4839 -0.2368
 7057TIP3    H242587   3.941   0.087  16.443  0.4499  0.0564  0.7216
 7058TIP3   OH242588   1.357   6.527  12.087  0.3032  0.1488 -0.2051
 7058TIP3    H142589   1.387   6.533  11.996  1.8339 -1.3419  0.1713
 7058TIP3    H242590   1.313   6.442  12.092  1.4072 -0.3864  0.7568
 7059TIP3   OH242591   1.995   3.314  11.122 -0.1664 -0.1400  0.1625
 7059TIP3    H142592   2.007   3.408  11.139 -1.3905  0.5508 -2.3482
 7059TIP3    H242593   2.069   3.291  11.066 -0.0637 -0.6288  0.4897
 7060TIP3   OH242594   6.404   4.368  11.695  0.7213  0.5331  0.3930
 7060TIP3    H142595   6.483   4.324  11.664  0.7932  1.0381 -0.1719
 7060TIP3    H242596   6.429   4.409  11.777  1.7971  2.7621 -0.9466
 7061TIP3   OH242597   0.328   3.015   5.523  0.1166 -0.0155  0.5922
 7061TIP3    H142598   0.241   2.975   5.521  0.1289 -0.0100 -0.6121
 7061TIP3    H242599   0.326   3.072   5.600 -0.6875 -0.5718  1.0025
 7062TIP3   OH242600   0.062   2.015   1.966  0.0431 -0.3618  0.7857
 7062TIP3    H142601   0.083   1.983   2.054 -0.1325  0.4294  1.1173
 7062TIP3    H242602  -0.029   2.044   1.972  0.7114  1.8619  0.9863
 7063TIP3   OH242603   3.466   5.641   2.376  0.3023 -0.2919 -0.4183
 7063TIP3    H142604   3.391   5.700   2.375  0.8850  0.4843  0.2471
 7063TIP3    H242605   3.516   5.664   2.298 -0.4263 -1.1891 -1.1613
 7064TIP3   OH242606   3.419   6.051  14.377  0.1191 -0.0672  0.2445
 7064TIP3    H142607   3.349   5.997  14.411 -0.6409 -0.5171 -1.8763
 7064TIP3    H242608   3.376   6.133  14.352  0.8121  0.5873  1.1188
 7065TIP3   OH242609   0.486   5.582   0.580 -0.2976 -0.4230  0.0825
 7065TIP3    H142610   0.557   5.601   0.642 -0.5028  1.8837 -0.2868
 7065TIP3    H242611   0.439   5.508   0.619  0.0339  0.4520  2.3227
 7066TIP3   OH242612   2.575   2.455   1.941 -0.5953  0.1080 -0.3551
 7066TIP3    H142613   2.520   2.433   2.016 -0.2067 -1.7647 -0.5860
 7066TIP3    H242614   2.576   2.376   1.887 -0.7919  1.3755 -2.3093
 7067TIP3   OH242615   0.305   1.504  11.924 -0.2004 -0.2092  0.0187
 7067TIP3    H142616   0.209   1.498  11.917 -0.1723  0.5784 -1.3230
 7067TIP3    H242617   0.324   1.597  11.912  0.7659 -0.4297 -0.2222
 7068TIP3   OH242618   4.200   1.741  13.295  0.6190  0.2875  0.2664
 7068TIP3    H142619   4.278   1.775  13.251 -0.4246  0.7764 -1.2759
 7068TIP3    H242620   4.140   1.815  13.299  0.2900 -0.0131  1.6859
 7069TIP3   OH242621   3.593   5.089  13.834  0.7518 -0.2318  0.1344
 7069TIP3    H142622   3.590   4.995  13.820  1.5355 -0.9066  3.5734
 7069TIP3    H242623   3.519   5.107  13.892  1.2218  1.0887  0.3564
 7070TIP3   OH242624   1.425   1.472   5.067 -0.1705  0.2627  0.0475
 7070TIP3    H142625   1.514   1.471   5.032  1.0241 -1.3440  2.8325
 7070TIP3    H242626   1.392   1.384   5.051 -0.3164  0.1020  1.2004
 7071TIP3   OH242627   1.989   1.417  10.882  0.3569 -0.9404  0.1376
 7071TIP3    H142628   2.064   1.407  10.823  0.4169  5.0458 -1.4272
 7071TIP3    H242629   1.913   1.392  10.828  0.8406 -1.3879 -0.3463
 7072TIP3   OH242630   2.343   5.480   2.108 -0.2732 -0.2577  0.1372
 7072TIP3    H142631   2.357   5.498   2.201 -2.4818 -1.5478  0.8090
 7072TIP3    H242632   2.270   5.418   2.107 -0.3644 -0.2105 -2.4839
 7073TIP3   OH242633   1.783   5.808   0.860 -0.4736 -0.0082 -0.3366
 7073TIP3    H142634   1.767   5.898   0.833  0.6853 -0.0027 -1.0742
 7073TIP3    H242635   1.851   5.814   0.927 -0.3204 -0.3257 -0.4580
 7074TIP3   OH242636   4.023   3.768  13.966 -0.2279 -0.1597  0.1278
 7074TIP3    H142637   4.033   3.834  13.897  1.7371  0.4000  0.8884
 7074TIP3    H242638   4.062   3.689  13.928  0.2500 -0.0283  0.3344
 7075TIP3   OH242639   0.693   6.062   4.474  0.0037  0.1884  0.1019
 7075TIP3    H142640   0.718   6.154   4.465  0.6953  0.1640  1.5257
 7075TIP3    H242641   0.728   6.020   4.395 -0.1819  1.1045 -0.4810
 7076TIP3   OH242642   3.753   2.933   5.355 -0.1873  0.4104  0.1101
 7076TIP3    H142643   3.788   2.987   5.425  0.4908 -0.7541  0.7115
 7076TIP3    H242644   3.688   2.877   5.397  1.3001 -1.3657  0.1987
 7077TIP3   OH242645   6.057   0.925   6.286 -0.5060 -0.0365 -0.0461
 7077TIP3    H142646   6.055   0.999   6.347 -1.5051 -0.8627  0.9854
 7077TIP3    H242647   6.147   0.923   6.253  0.2823  0.0372  1.9540
 7078TIP3   OH242648   6.083   0.885   0.636 -0.5351  0.6490  0.1768
 7078TIP3    H142649   6.132   0.896   0.555  0.0128  0.1117  0.4254
 7078TIP3    H242650   6.150   0.877   0.704 -0.9976  2.3275  0.8760
 7079TIP3   OH242651   3.481   4.209  13.812 -0.2520 -0.1532 -0.0807
 7079TIP3    H142652   3.488   4.121  13.777  0.2922 -0.3511  0.5109
 7079TIP3    H242653   3.516   4.266  13.744  1.8751 -0.6265  0.5501
 7080TIP3   OH242654   3.760   2.094  12.453  0.3302  0.8555  0.0304
 7080TIP3    H142655   3.723   2.005  12.456  1.5367  0.3458  2.0538
 7080TIP3    H242656   3.700   2.146  12.506  0.1365  1.0254 -0.3577
 7081TIP3   OH242657   0.410   4.666   3.376  0.2691  0.3889 -0.4493
 7081TIP3    H142658   0.331   4.714   3.351  0.1467  0.0539 -0.7124
 7081TIP3    H242659   0.378   4.590   3.424  0.5579  2.7824  4.0509
 7082TIP3   OH242660   5.755   2.696  10.437  0.0571  0.3439 -0.5092
 7082TIP3    H142661   5.844   2.728  10.421  0.6476 -0.6725  0.5288
 7082TIP3    H242662   5.715   2.762  10.492  0.9133 -0.1521  0.7658
 7083TIP3   OH242663   0.527   5.834   3.484  0.1324  0.4670 -0.1080
 7083TIP3    H142664   0.555   5.767   3.421 -2.2332  0.5022 -1.3173
 7083TIP3    H242665   0.467   5.787   3.543  1.1321  0.7877  1.1885
 7084TIP3   OH242666   2.743   3.656  12.987 -0.8103 -0.1751  0.4709
 7084TIP3    H142667   2.687   3.593  12.940 -1.1507  0.8732 -0.5730
 7084TIP3    H242668   2.726   3.740  12.944  2.0692  0.0982 -0.3697
 7085TIP3   OH242669   5.787   0.280   4.200  0.4842  0.2731  0.1671
 7085TIP3    H142670   5.814   0.221   4.130  1.9519  1.1588 -0.0468
 7085TIP3    H242671   5.742   0.351   4.155  0.5062  0.3249  0.2276
 7086TIP3   OH242672   0.101   5.523   1.149 -0.0645  0.2873  0.0259
 7086TIP3    H142673   0.149   5.598   1.115  1.1250 -0.3310  0.2746
 7086TIP3    H242674   0.011   5.537   1.122  0.5521  0.6013 -2.0178
 7087TIP3   OH242675   1.931   6.728   3.582 -0.6104 -0.3932 -0.0500
 7087TIP3    H142676   1.977   6.702   3.502  1.1156 -0.1228  0.8153
 7087TIP3    H242677   1.860   6.784   3.551 -0.8949 -1.4989 -1.4961
 7088TIP3   OH242678   4.240   1.032   3.358  0.4767  0.2491  0.1869
 7088TIP3    H142679   4.286   0.949   3.346  0.3457 -0.1294  2.0518
 7088TIP3    H242680   4.192   1.044   3.276  0.2193 -1.6864 -0.0039
 7089TIP3   OH242681   5.470   2.062   2.829 -0.7188  0.0064 -0.1798
 7089TIP3    H142682   5.408   2.074   2.757 -0.0790  1.6694 -0.4920
 7089TIP3    H242683   5.553   2.092   2.793  0.0722 -1.2336  0.5657
 7090TIP3   OH242684   3.755   3.310   2.191  0.3086  0.6326 -0.4161
 7090TIP3    H142685   3.751   3.372   2.265 -0.3936 -1.1501  1.1123
 7090TIP3    H242686   3.663   3.286   2.176  0.5395  0.2562 -1.2465
 7091TIP3   OH242687   4.077   4.120   4.360 -0.2206 -0.0383  0.1511
 7091TIP3    H142688   4.098   4.199   4.410 -0.2287  0.1943 -0.2066
 7091TIP3    H242689   4.009   4.076   4.411 -1.2061  0.8813 -0.3089
 7092TIP3   OH242690   0.789   2.031   4.841  0.1491  0.1183  0.1515
 7092TIP3    H142691   0.790   2.082   4.922  1.2076  1.1431 -0.4864
 7092TIP3    H242692   0.851   1.960   4.857  2.0135  1.5476 -0.4991
 7093TIP3   OH242693   2.867   4.409  15.111  0.2784 -0.3722 -0.2043
 7093TIP3    H142694   2.922   4.359  15.172  0.4230  0.1979  0.1437
 7093TIP3    H242695   2.820   4.472  15.167 -1.2629 -1.2995 -0.4030
 7094TIP3   OH242696   6.064   6.421   3.457 -0.6954 -0.7499  0.2193
 7094TIP3    H142697   5.968   6.417   3.461 -0.7046 -1.6332 -0.4477
 7094TIP3    H242698   6.092   6.416   3.548 -1.2897  0.1845  0.4691
 7095TIP3   OH242699   0.136   2.942  16.385 -0.1988  0.0395  0.6113
 7095TIP3    H142700   0.121   2.942  16.291  0.5586  0.4005  0.4752
 7095TIP3    H242701   0.075   3.008  16.419 -1.0286 -0.6544  0.4831
 7096TIP3   OH242702   2.979   2.722   4.095 -0.3302 -0.6503 -0.3293
 7096TIP3    H142703   2.965   2.628   4.079 -1.0298 -0.3525 -1.5934
 7096TIP3    H242704   2.900   2.751   4.140 -0.2403 -0.5955 -0.2050
 7097TIP3   OH242705   5.549   4.118  13.619 -0.0645 -0.0402 -0.1085
 7097TIP3    H142706   5.502   4.062  13.681  0.3237  0.8477  1.0299
 7097TIP3    H242707   5.532   4.207  13.650  1.4668  0.3479 -0.3256
 7098TIP3   OH242708   5.673   5.833   4.259 -0.4765 -0.0484 -0.4104
 7098TIP3    H142709   5.585   5.831   4.221 -0.3612  0.1189 -0.6846
 7098TIP3    H242710   5.694   5.741   4.274 -1.2527 -0.0363  0.9492
 7099TIP3   OH242711   1.726   5.457  12.472  0.1637 -0.0893 -0.1228
 7099TIP3    H142712   1.704   5.550  12.468  0.5177 -0.0519 -2.6255
 7099TIP3    H242713   1.751   5.442  12.563  0.1468  2.2644  0.3256
 7100TIP3   OH242714   6.113   2.368   1.289 -0.6917 -0.2970  0.2275
 7100TIP3    H142715   6.101   2.382   1.383  0.4612  0.8165  0.2423
 7100TIP3    H242716   6.047   2.424   1.248 -0.0473  0.5936  0.3723
 7101TIP3   OH242717   6.092   3.503   4.004  0.0518 -0.3713  0.8293
 7101TIP3    H142718   6.156   3.518   4.074  0.7893  0.0870  0.0817
 7101TIP3    H242719   6.043   3.426   4.032  1.7924 -1.5237  0.8149
 7102TIP3   OH242720   5.177   3.000   4.229  0.2655  0.2530 -0.4354
 7102TIP3    H142721   5.273   2.997   4.234  0.2174  0.0665  0.4268
 7102TIP3    H242722   5.153   3.073   4.285 -0.1142  0.1735 -0.4956
 7103TIP3   OH242723   0.036   5.738  15.055 -0.2669 -0.2810 -0.0241
 7103TIP3    H142724   0.089   5.666  15.088  1.1160 -0.0924 -1.7116
 7103TIP3    H242725   0.054   5.811  15.115 -0.9804 -1.0394  1.1584
 7104TIP3   OH242726   5.927   1.736  12.665  0.1189  0.5483 -0.2191
 7104TIP3    H142727   5.941   1.785  12.584  1.5086  0.8760  0.1868
 7104TIP3    H242728   6.000   1.675  12.669  0.2797  0.7939  0.9689
 7105TIP3   OH242729   3.023   2.480  12.643  0.0573  0.1106 -0.4011
 7105TIP3    H142730   2.960   2.457  12.711 -0.2247  1.0683 -0.3188
 7105TIP3    H242731   3.094   2.524  12.690  1.1684 -1.6072 -0.3937
 7106TIP3   OH242732   4.663   3.312  12.459  0.1900  0.3558 -0.1372
 7106TIP3    H142733   4.668   3.219  12.482 -1.8988  0.2708  0.1913
 7106TIP3    H242734   4.730   3.324  12.391  0.5654 -1.3585 -0.1045
 7107TIP3   OH242735   4.442   1.899   1.005 -0.3954 -0.0402 -0.0394
 7107TIP3    H142736   4.430   1.830   0.940 -2.0978  0.0132  0.1884
 7107TIP3    H242737   4.417   1.980   0.961  0.0086  0.2167  0.1945
 7108TIP3   OH242738   6.626   2.357   0.669  0.1577 -0.4995 -0.1299
 7108TIP3    H142739   6.600   2.371   0.761  1.0798 -0.9307  0.2070
 7108TIP3    H242740   6.683   2.431   0.649  0.8561 -0.9892  0.0095
 7109TIP3   OH242741   0.793   4.996  11.438  0.3873 -0.1308  0.0676
 7109TIP3    H142742   0.721   4.946  11.400  1.9806 -1.3584 -1.5329
 7109TIP3    H242743   0.830   4.938  11.504  1.3773 -0.5482 -0.8220
 7110TIP3   OH242744   6.734   1.270   2.505  0.2098 -0.6581 -0.1823
 7110TIP3    H142745   6.802   1.260   2.438  0.2758 -1.5427  0.0021
 7110TIP3    H242746   6.689   1.186   2.506 -2.3807  0.5901 -1.8575
 7111TIP3   OH242747   1.511   4.491   0.851 -0.3613 -0.1100  0.1951
 7111TIP3    H142748   1.467   4.478   0.935 -1.7752  1.6006 -0.2198
 7111TIP3    H242749   1.593   4.534   0.873 -0.9550  0.8110  0.6925
 7112TIP3   OH242750   5.558   4.424   3.891  0.4769  0.2783  0.0972
 7112TIP3    H142751   5.631   4.362   3.902  0.2359 -0.1646 -0.7586
 7112TIP3    H242752   5.501   4.408   3.967 -0.1079 -1.2799 -0.6458
 7113TIP3   OH242753   5.934   5.210  16.151  0.4171  0.0772 -0.2534
 7113TIP3    H142754   5.976   5.293  16.171 -1.6046  1.1420 -0.0817
 7113TIP3    H242755   5.976   5.179  16.071  2.0636  0.6102  0.3789
 7114TIP3   OH242756   2.874   4.982  12.642  0.0900  0.0195 -0.6283
 7114TIP3    H142757   2.864   4.907  12.701  2.1396  0.6288  0.5875
 7114TIP3    H242758   2.838   5.056  12.691 -0.1338  0.1908 -1.0413
 7115TIP3   OH242759   5.089   2.302   4.694 -0.0482  0.1023  0.1160
 7115TIP3    H142760   5.013   2.254   4.729 -0.4213 -1.0301 -2.0520
 7115TIP3    H242761   5.073   2.393   4.717 -2.3656 -0.0373 -0.6583
 7116TIP3   OH242762   6.014   2.148   2.124  0.1195  0.5242 -0.0895
 7116TIP3    H142763   6.007   2.189   2.038  0.7850  1.9089  0.4854
 7116TIP3    H242764   5.952   2.075   2.121 -0.3658  0.9603 -1.4926
 7117TIP3   OH242765   0.046   5.055   0.168 -0.6457  0.0663 -0.2465
 7117TIP3    H142766   0.111   5.008   0.220  0.2327  0.8937 -0.5597
 7117TIP3    H242767   0.068   5.148   0.181  0.3504  0.3045 -2.9488
 7118TIP3   OH242768   1.045   4.802  12.549  0.3248  0.5617  0.2352
 7118TIP3    H142769   0.970   4.862  12.552  0.3771  0.6634 -0.4387
 7118TIP3    H242770   1.074   4.804  12.458 -1.5970 -2.8285 -0.6387
 7119TIP3   OH242771   0.416   0.475   1.690  0.2634 -0.4013 -0.0307
 7119TIP3    H142772   0.500   0.507   1.722  0.3522  0.4074 -1.0107
 7119TIP3    H242773   0.430   0.382   1.675  1.5433  0.0297 -1.8191
 7120TIP3   OH242774   0.532   4.874  11.392 -0.1740 -0.1760 -0.0860
 7120TIP3    H142775   0.451   4.830  11.371 -0.3701 -0.1455  0.5721
 7120TIP3    H242776   0.506   4.946  11.449  0.4738 -1.1800  1.5499
 7121TIP3   OH242777   4.905   0.369   3.005 -0.4386  0.0425 -0.2345
 7121TIP3    H142778   4.961   0.304   2.963 -0.6335 -0.6026  0.4804
 7121TIP3    H242779   4.964   0.419   3.062 -0.7009 -1.2220  1.2105
 7122TIP3   OH242780   0.108   4.209   2.277  0.0213 -0.2589 -0.2469
 7122TIP3    H142781   0.025   4.251   2.302  0.3495 -0.3246  0.9877
 7122TIP3    H242782   0.145   4.177   2.359  0.7781 -1.1574 -0.9131
 7123TIP3   OH242783   4.736   3.721  15.328 -0.2354  0.0347  0.1025
 7123TIP3    H142784   4.820   3.741  15.287 -0.8408  0.8471 -0.7838
 7123TIP3    H242785   4.731   3.625  15.327  0.6586 -0.0226  0.1468
 7124TIP3   OH242786   0.162   0.203  12.237  0.0533 -0.1060  0.4838
 7124TIP3    H142787   0.243   0.156  12.254 -0.0950 -1.2122 -1.5884
 7124TIP3    H242788   0.189   0.285  12.195  0.1042 -1.0728 -1.4665
 7125TIP3   OH242789   5.314   0.957   3.647 -0.1860  0.1808 -0.4121
 7125TIP3    H142790   5.271   0.978   3.564  0.2583  2.7424 -0.0775
 7125TIP3    H242791   5.389   0.903   3.622 -1.1486 -0.7094 -1.4488
 7126TIP3   OH242792   1.118   1.290  12.573  0.0191 -0.8428 -0.5985
 7126TIP3    H142793   1.085   1.317  12.487  1.2858  0.3602 -0.7485
 7126TIP3    H242794   1.166   1.209  12.557  1.7594  0.2948 -1.3940
 7127TIP3   OH242795   4.200   5.423   4.769  0.3389  0.3826  0.1059
 7127TIP3    H142796   4.243   5.337   4.761  3.2534  1.5961  1.4342
 7127TIP3    H242797   4.217   5.450   4.858 -0.7346  2.3016 -0.2219
 7128TIP3   OH242798   0.409   6.226   3.460 -0.2257 -0.1710  0.2305
 7128TIP3    H142799   0.434   6.318   3.466  1.0025 -0.2795 -2.0898
 7128TIP3    H242800   0.445   6.187   3.540  1.4524  0.9253  0.0641
 7129TIP3   OH242801   3.346   6.373  17.047  0.3975  0.1940 -0.4651
 7129TIP3    H142802   3.419   6.400  16.990  0.9134  1.6754  0.8095
 7129TIP3    H242803   3.308   6.297  17.003  0.9087  1.1265 -2.6448
 7130TIP3   OH242804   0.817   5.241   0.769 -0.3334  0.7031 -0.0832
 7130TIP3    H142805   0.822   5.294   0.849 -0.7911 -0.7628  0.9715
 7130TIP3    H242806   0.878   5.169   0.786  0.5714  1.0637 -1.6418
 7131TIP3   OH242807   4.530   3.519  16.824 -0.5849 -0.6940  0.6746
 7131TIP3    H142808   4.437   3.532  16.804 -0.0123 -0.5933 -2.3641
 7131TIP3    H242809   4.535   3.428  16.854 -1.7928 -0.3215  2.1591
 7132TIP3   OH242810   0.490   6.327   3.101 -0.0381  0.0146  0.1821
 7132TIP3    H142811   0.455   6.390   3.163  0.0910 -0.0603  0.3324
 7132TIP3    H242812   0.438   6.248   3.115  0.8483 -0.4298  1.1274
 7133TIP3   OH242813   2.788   2.637   6.283 -0.2467  0.3842 -0.3006
 7133TIP3    H142814   2.781   2.729   6.309  1.2286  0.1958  0.8940
 7133TIP3    H242815   2.806   2.590   6.364 -0.2401 -0.8695 -1.0014
 7134TIP3   OH242816   5.959   1.696   4.232 -0.2661  0.1616  0.3283
 7134TIP3    H142817   6.011   1.633   4.281  0.5132  0.4945 -0.0562
 7134TIP3    H242818   5.981   1.678   4.140  1.3485  2.1427  0.2732
 7135TIP3   OH242819   1.628   2.878  14.533  0.0867  0.1126 -0.2668
 7135TIP3    H142820   1.609   2.819  14.460 -0.9144  0.8049 -0.5962
 7135TIP3    H242821   1.541   2.909  14.561  0.5901  1.4854 -0.1583
 7136TIP3   OH242822   5.039   5.837  13.462  0.1743 -0.0383 -0.3293
 7136TIP3    H142823   4.993   5.783  13.397 -0.7100 -0.3329  0.5163
 7136TIP3    H242824   4.974   5.901  13.491  0.9363  0.8953 -0.6281
 7137TIP3   OH242825   6.750   3.698  16.568 -0.3749 -0.2070  0.8811
 7137TIP3    H142826   6.664   3.726  16.537  0.0944  0.1145 -0.1927
 7137TIP3    H242827   6.790   3.777  16.604  1.0199  0.7179 -2.3123
 7138TIP3   OH242828   5.193   2.493  16.024  0.4216  0.9846  0.3639
 7138TIP3    H142829   5.143   2.476  15.944 -0.3643 -0.7521  1.1748
 7138TIP3    H242830   5.261   2.426  16.025 -0.5397 -0.0435  1.8792
 7139TIP3   OH242831   1.503   2.028  17.214  0.0999 -0.3928 -0.0806
 7139TIP3    H142832   1.482   1.935  17.207 -1.3106  0.0177 -2.0099
 7139TIP3    H242833   1.595   2.034  17.187  0.7835 -1.3896  1.8197
 7140TIP3   OH242834   3.196   2.061  11.932  0.0693  0.0111  0.7776
 7140TIP3    H142835   3.226   2.151  11.920  0.1424 -0.0936  0.0975
 7140TIP3    H242836   3.272   2.007  11.910 -0.0859 -0.2232  0.8123
 7141TIP3   OH242837   0.080   6.033  14.945  0.4403 -0.0595  0.1443
 7141TIP3    H142838   0.107   6.110  14.896  0.2558  0.8838  1.4665
 7141TIP3    H242839   0.160   6.002  14.987  0.8119 -1.4773 -1.4946
 7142TIP3   OH242840   0.596   3.348   1.065  0.4287 -0.0171  0.2871
 7142TIP3    H142841   0.555   3.356   1.151  0.4715  0.8601  0.2355
 7142TIP3    H242842   0.532   3.387   1.005  1.0075  0.6721  0.1086
 7143TIP3   OH242843   3.160   0.994   1.090 -0.3265  0.1618  0.1519
 7143TIP3    H142844   3.162   1.061   1.160  2.1088 -0.1430  0.4636
 7143TIP3    H242845   3.187   0.913   1.134 -0.2939 -0.3675 -0.8263
 7144TIP3   OH242846   3.671   3.351  15.378 -0.2353  0.3647 -0.2018
 7144TIP3    H142847   3.717   3.429  15.408 -1.2404  1.6770 -1.8722
 7144TIP3    H242848   3.592   3.348  15.432 -2.1758  2.8685 -2.6094
 7145TIP3   OH242849   3.444   3.151  14.673  0.5124  0.1526  0.1532
 7145TIP3    H142850   3.461   3.142  14.579  1.6132  0.7913  0.2731
 7145TIP3    H242851   3.505   3.090  14.714  1.3278  1.1794  0.5186
 7146TIP3   OH242852   2.540   3.139  15.034 -0.0832 -0.1979 -0.7114
 7146TIP3    H142853   2.633   3.145  15.055 -0.0339  0.8430 -1.1473
 7146TIP3    H242854   2.519   3.046  15.044  1.1576 -0.5616 -1.2171
 7147TIP3   OH242855   6.744   5.319  15.535 -0.0620 -0.2407  0.1310
 7147TIP3    H142856   6.683   5.268  15.482  1.3992 -0.6224 -1.2835
 7147TIP3    H242857   6.786   5.379  15.473  0.6839  0.3204  1.1355
 7148TIP3   OH242858   3.578   2.332   3.414 -0.4202 -0.6253  1.1219
 7148TIP3    H142859   3.602   2.358   3.503  2.6598  1.2392 -0.1076
 7148TIP3    H242860   3.626   2.251   3.399  1.9204  0.8558  0.1089
 7149TIP3   OH242861   5.989   2.454  12.789  0.6363  0.2216  0.5007
 7149TIP3    H142862   5.963   2.413  12.872 -1.6550 -0.5519 -0.5064
 7149TIP3    H242863   6.013   2.380  12.733  1.7487  0.7069  0.3134
 7150TIP3   OH242864   3.394   3.179   2.321  0.2577 -0.1714  0.1513
 7150TIP3    H142865   3.340   3.211   2.249  0.2444 -1.3585 -0.3918
 7150TIP3    H242866   3.331   3.149   2.386  0.2520 -1.2575 -0.3449
 7151TIP3   OH242867   0.959   0.798   4.324 -0.1322 -0.0070  0.0954
 7151TIP3    H142868   0.905   0.807   4.402  1.0612 -0.1173  0.9669
 7151TIP3    H242869   0.912   0.735   4.269 -0.8629 -0.1189  0.8345
 7152TIP3   OH242870   3.246   3.106   1.394 -0.1536 -0.4854  0.1953
 7152TIP3    H142871   3.174   3.167   1.378  0.6906  0.2528 -1.0046
 7152TIP3    H242872   3.308   3.155   1.447  0.7471 -0.0822 -1.1675
 7153TIP3   OH242873   2.562   2.312  15.361 -0.0647 -0.3588 -0.1782
 7153TIP3    H142874   2.542   2.227  15.323 -1.1837 -1.3223  2.3179
 7153TIP3    H242875   2.497   2.371  15.324  1.0512 -0.4061 -2.3402
 7154TIP3   OH242876   5.918   3.371   3.533 -0.4140  0.5872 -0.1480
 7154TIP3    H142877   5.991   3.331   3.580 -0.3912  0.5680 -0.2003
 7154TIP3    H242878   5.908   3.319   3.454  1.6803  2.5581 -1.8284
 7155TIP3   OH242879   6.345   3.158  15.077  0.4726 -0.5721  0.2724
 7155TIP3    H142880   6.314   3.215  15.148  1.4492 -1.3075  1.3357
 7155TIP3    H242881   6.338   3.069  15.113 -0.3604 -1.0927 -1.0999
 7156TIP3   OH242882   3.784   5.375   4.264  0.0959  0.0382  0.1314
 7156TIP3    H142883   3.875   5.395   4.286 -0.3021 -0.2134  2.1581
 7156TIP3    H242884   3.734   5.401   4.341 -1.9291  2.5534 -1.8529
 7157TIP3   OH242885   6.046   3.832   0.789  0.5775 -0.0928 -0.5998
 7157TIP3    H142886   6.103   3.908   0.805  0.8357 -0.3998 -0.0392
 7157TIP3    H242887   6.002   3.853   0.706  0.7493  0.6056 -0.5255
 7158TIP3   OH242888   3.102   4.190   3.630  0.0312 -0.0102 -0.7374
 7158TIP3    H142889   3.196   4.169   3.628 -0.0217 -0.1917 -1.4440
 7158TIP3    H242890   3.085   4.212   3.722  0.6831 -0.3541 -0.5239
 7159TIP3   OH242891   4.279   4.958   4.609 -1.2043  0.4010  0.1450
 7159TIP3    H142892   4.189   4.934   4.630 -1.0958  0.5170  0.7610
 7159TIP3    H242893   4.276   5.052   4.594 -1.0896  0.5013  0.7233
 7160TIP3   OH242894   3.887   1.867   4.879  0.4601 -0.1153  0.2029
 7160TIP3    H142895   3.931   1.834   4.801  0.2101 -0.8965  0.3759
 7160TIP3    H242896   3.951   1.857   4.950 -0.3140 -2.2990  0.6696
 7161TIP3   OH242897   3.717   6.529   5.909  0.1692 -0.2237 -0.3649
 7161TIP3    H142898   3.799   6.535   5.859 -0.3627  1.0783 -1.1351
 7161TIP3    H242899   3.702   6.618   5.942 -0.6816 -0.5598  0.1905
 7162TIP3   OH242900   1.120   2.898   2.001 -0.3537  0.3482 -0.2065
 7162TIP3    H142901   1.084   2.813   1.977  0.8915 -0.1621 -0.3723
 7162TIP3    H242902   1.082   2.960   1.939 -2.4903  0.1999  0.8893
 7163TIP3   OH242903   2.610   5.041  16.447 -0.0041  0.0389  0.1305
 7163TIP3    H142904   2.647   4.995  16.523 -1.4215 -0.3699  0.6038
 7163TIP3    H242905   2.547   5.102  16.485  0.0361  0.5909 -0.6647
 7164TIP3   OH242906   2.214   2.067   4.733 -0.3417  0.0532  0.0137
 7164TIP3    H142907   2.139   2.064   4.674  0.4277 -0.6171 -0.9526
 7164TIP3    H242908   2.210   2.154   4.771 -2.2152 -0.3071  0.8068
 7165TIP3   OH242909   1.097   4.446   2.726  0.1739  0.1408  0.5355
 7165TIP3    H142910   1.149   4.400   2.660  0.4776  2.3900 -0.9032
 7165TIP3    H242911   1.024   4.483   2.677 -0.7803  0.0935  1.8798
 7166TIP3   OH242912   1.871   2.650  10.909 -0.4334 -0.4623 -0.8352
 7166TIP3    H142913   1.868   2.697  10.825 -1.7913  2.8639  0.8999
 7166TIP3    H242914   1.783   2.661  10.945  0.7873  0.5458  2.1268
 7167TIP3   OH242915   1.162   0.178  14.137 -0.0985 -0.2858  1.0018
 7167TIP3    H142916   1.253   0.152  14.150  0.7064  1.8840  0.2126
 7167TIP3    H242917   1.143   0.240  14.208 -0.7535 -0.2802  0.8351
 7168TIP3   OH242918   3.580   4.279  14.704 -0.3423 -0.4062 -0.0575
 7168TIP3    H142919   3.649   4.230  14.659  0.9767 -0.4564  1.8844
 7168TIP3    H242920   3.592   4.369  14.674  1.0614 -0.2918  0.7631
 7169TIP3   OH242921   1.778   1.192  11.353  0.3188 -0.2640 -0.6452
 7169TIP3    H142922   1.686   1.211  11.339  0.4578 -0.1956 -1.5466
 7169TIP3    H242923   1.779   1.106  11.396 -0.1842  0.1453  0.1983
 7170TIP3   OH242924   2.496   6.134  10.998  0.0128  0.7299  0.1397
 7170TIP3    H142925   2.415   6.146  11.047  0.8577 -0.5641  1.9717
 7170TIP3    H242926   2.535   6.054  11.034  1.0203  0.0356 -2.2530
 7171TIP3   OH242927   1.985   3.037   5.036 -0.2391  0.0731  0.2525
 7171TIP3    H142928   2.023   2.968   4.982 -0.8853  0.3426 -0.5586
 7171TIP3    H242929   1.924   2.992   5.093 -1.8371  0.1265 -1.3495
 7172TIP3   OH242930   1.710   1.337   0.948  0.0028 -0.5038 -1.1254
 7172TIP3    H142931   1.696   1.270   0.881 -0.1286 -1.1526 -0.4746
 7172TIP3    H242932   1.792   1.379   0.924  1.6269 -2.8143 -0.0608
 7173TIP3   OH242933   0.978   1.490   2.845 -0.4831  0.1721  0.5669
 7173TIP3    H142934   0.924   1.414   2.866  0.0019 -0.2410  0.3676
 7173TIP3    H242935   1.067   1.463   2.869  0.3538 -0.8280 -2.9762
 7174TIP3   OH242936   6.414   1.090  16.177 -0.3639  0.0521 -0.2335
 7174TIP3    H142937   6.371   1.011  16.210  0.0035 -0.8265 -1.7595
 7174TIP3    H242938   6.352   1.125  16.113 -0.4505  0.9349  0.3157
 7175TIP3   OH242939   1.991   5.025   5.561 -0.2597 -0.0748  0.5921
 7175TIP3    H142940   1.940   4.946   5.542  1.8063 -1.4399  0.3180
 7175TIP3    H242941   2.023   5.011   5.651  1.0315 -0.1235  0.1430
 7176TIP3   OH242942   1.812   0.430  11.854  0.0183 -0.4654  0.2547
 7176TIP3    H142943   1.766   0.350  11.829  1.0710 -1.2660  0.7765
 7176TIP3    H242944   1.743   0.488  11.886 -1.0154 -0.4015 -1.9066
 7177TIP3   OH242945   2.455   5.120   5.167 -0.4316 -0.2414  0.4278
 7177TIP3    H142946   2.500   5.205   5.167 -2.9381  1.1858  1.5310
 7177TIP3    H242947   2.469   5.085   5.255  3.6618 -2.9277 -0.9581
 7178TIP3   OH242948   5.305   5.635  13.790  0.1903 -0.2700  0.0838
 7178TIP3    H142949   5.324   5.629  13.697 -0.3580 -0.4247 -0.0244
 7178TIP3    H242950   5.327   5.725  13.814  1.4635 -0.5697  0.0750
 7179TIP3   OH242951   2.675   0.687  13.513 -0.0671  0.6562  0.0079
 7179TIP3    H142952   2.621   0.764  13.529 -2.4178 -0.7061 -0.9665
 7179TIP3    H242953   2.738   0.715  13.446  0.6313  2.3202  1.2998
 7180TIP3   OH242954   3.089   4.994   3.691 -0.8821  0.0158  0.0376
 7180TIP3    H142955   3.103   5.012   3.598 -2.2738  1.2765  0.0294
 7180TIP3    H242956   2.995   4.978   3.699 -0.6957 -0.6170  1.1513
 7181TIP3   OH242957   1.654   1.676  12.238 -0.3225 -0.1165  0.1509
 7181TIP3    H142958   1.691   1.708  12.321 -0.5958 -0.8086  0.5488
 7181TIP3    H242959   1.579   1.732  12.222  0.4969  0.8824 -0.3245
 7182TIP3   OH242960   6.169   0.682  13.986  0.1211  0.7759 -0.1164
 7182TIP3    H142961   6.216   0.610  13.944 -0.5592  0.6502 -0.6941
 7182TIP3    H242962   6.220   0.760  13.964  0.9176  0.4712  0.6012
 7183TIP3   OH242963   0.602   2.191  16.429  0.7780 -0.2120  0.5538
 7183TIP3    H142964   0.582   2.254  16.499  2.1361  0.8446  0.0233
 7183TIP3    H242965   0.685   2.152  16.455  0.8282 -0.4945 -0.0302
 7184TIP3   OH242966   2.679   6.408  12.151 -0.2498  0.4917  0.2165
 7184TIP3    H142967   2.738   6.364  12.090 -0.4517 -0.2315  0.5320
 7184TIP3    H242968   2.597   6.418  12.103  0.0406  1.2737 -0.1367
 7185TIP3   OH242969   3.641   0.250   0.633 -0.6380 -0.2387  0.3235
 7185TIP3    H142970   3.644   0.247   0.538 -4.2020  1.3568  0.0090
 7185TIP3    H242971   3.730   0.277   0.659  0.3177 -0.3204 -2.5129
 7186TIP3   OH242972   0.455   5.830   4.369 -0.1217 -0.9962  0.5497
 7186TIP3    H142973   0.435   5.787   4.286 -3.1894  1.8359 -0.4072
 7186TIP3    H242974   0.523   5.894   4.348 -0.6348 -0.5351  0.2736
 7187TIP3   OH242975   0.066   1.743   1.969 -0.1018 -0.0571 -0.3729
 7187TIP3    H142976   0.113   1.716   2.048 -1.0646  0.4338  0.3861
 7187TIP3    H242977   0.083   1.836   1.961  0.2186 -0.1561 -0.9158
 7188TIP3   OH242978   5.868   4.629   4.866 -0.4799 -0.6723  0.2359
 7188TIP3    H142979   5.897   4.656   4.779 -0.2811 -1.0640  0.1775
 7188TIP3    H242980   5.921   4.682   4.926 -0.9121 -0.1025  0.1173
 7189TIP3   OH242981   5.881   0.878   2.023  0.0172 -0.3594 -0.0628
 7189TIP3    H142982   5.825   0.830   1.961 -1.5118  0.6589  0.4856
 7189TIP3    H242983   5.867   0.833   2.106 -1.7699  1.1993  0.5547
 7190TIP3   OH242984   2.731   6.692  12.629  0.3727 -0.0597 -0.0552
 7190TIP3    H142985   2.815   6.650  12.644  0.2360 -1.0557 -1.8010
 7190TIP3    H242986   2.752   6.768  12.574  0.2519  0.3161  0.4152
 7191TIP3   OH242987   6.708   0.073   0.671 -0.0882 -0.1930 -0.2683
 7191TIP3    H142988   6.702  -0.022   0.682 -1.0173 -0.0240  0.9091
 7191TIP3    H242989   6.754   0.103   0.750 -0.1970  0.3705 -0.4188
 7192TIP3   OH242990   3.027   3.562  11.878 -0.2465  0.0651 -0.0118
 7192TIP3    H142991   3.004   3.562  11.785 -1.1261  5.0489 -0.1081
 7192TIP3    H242992   2.944   3.578  11.923  0.4669 -0.1283  1.4191
 7193TIP3   OH242993   0.259   5.053  12.888  0.7452  0.0370  0.3289
 7193TIP3    H142994   0.259   5.148  12.875 -1.0113 -0.0772 -0.9288
 7193TIP3    H242995   0.238   5.017  12.802  1.3359 -1.5063  0.7889
 7194TIP3   OH242996   3.772   3.943   5.544 -0.6322 -0.2203 -0.3255
 7194TIP3    H142997   3.794   4.031   5.574 -1.6197 -0.5672  1.6187
 7194TIP3    H242998   3.832   3.886   5.592 -0.3747 -0.6541 -1.1487
 7195TIP3   OH242999   2.954   6.187  12.211  0.2599  0.3408 -0.5273
 7195TIP3    H143000   3.001   6.120  12.161  0.0199  0.1826 -0.5444
 7195TIP3    H243001   2.894   6.226  12.147 -1.5893 -1.3163  0.0910
 7196TIP3   OH243002   4.747   3.114  14.841 -0.4460  0.5532  0.3178
 7196TIP3    H143003   4.763   3.195  14.890 -1.4054  0.1404  1.3783
 7196TIP3    H243004   4.697   3.059  14.902 -0.3819 -0.5793 -0.6167
 7197TIP3   OH243005   5.517   4.843  11.114 -0.2654 -0.0513 -0.3874
 7197TIP3    H143006   5.555   4.811  11.196 -0.8777 -1.3377 -0.5732
 7197TIP3    H243007   5.548   4.933  11.106  0.5723 -0.2177  0.7753
 7198TIP3   OH243008   1.591   5.119   0.993 -0.0803 -0.1299  0.5265
 7198TIP3    H143009   1.572   5.206   0.956  2.9382  0.8297  0.9490
 7198TIP3    H243010   1.530   5.110   1.066 -1.0743  1.2391 -0.0876
 7199TIP3   OH243011   6.091   1.883  16.871 -0.4444 -0.5728 -0.2296
 7199TIP3    H143012   6.186   1.877  16.861 -0.4639 -0.5503 -0.4181
 7199TIP3    H243013   6.063   1.947  16.805 -0.6541 -0.9696 -0.5233
 7200TIP3   OH243014   4.779   0.896  15.664  0.4069 -0.3310 -0.2917
 7200TIP3    H143015   4.717   0.963  15.637 -1.2747 -0.8102  2.1002
 7200TIP3    H243016   4.864   0.938  15.659 -0.6407  2.2273  1.7455
 7201TIP3   OH243017   3.571   4.215   2.887  0.0961 -0.3177 -0.4793
 7201TIP3    H143018   3.588   4.274   2.814  3.9940  0.5861  0.9236
 7201TIP3    H243019   3.500   4.257   2.936  0.4191  1.3806 -1.3963
 7202TIP3   OH243020   5.520   2.811  11.974 -0.2209 -0.1531  0.7936
 7202TIP3    H143021   5.610   2.784  11.992  0.1202  1.1018  1.1273
 7202TIP3    H243022   5.480   2.736  11.930  0.7577 -1.0082  1.3207
 7203TIP3   OH243023   1.541   5.945  15.792  0.3598  0.6984 -0.4363
 7203TIP3    H143024   1.572   5.907  15.875 -0.5575 -0.0882 -0.4285
 7203TIP3    H243025   1.470   5.887  15.765 -0.0096  1.5190 -1.2735
 7204TIP3   OH243026   1.337   2.654   1.071 -0.0173 -0.2268 -0.2501
 7204TIP3    H143027   1.413   2.599   1.092  0.4067 -0.1358 -1.4154
 7204TIP3    H243028   1.355   2.738   1.112 -0.4993 -0.8287  1.2485
 7205TIP3   OH243029   5.511   2.579  14.297 -0.1842 -0.1694  0.4042
 7205TIP3    H143030   5.460   2.501  14.276  0.2339 -0.7655  1.4956
 7205TIP3    H243031   5.600   2.558  14.269  0.0536 -0.3499  1.2396
 7206TIP3   OH243032   1.437   4.763  15.725  0.4602  0.2476  0.0433
 7206TIP3    H143033   1.441   4.851  15.763  1.1849  0.2293  0.0374
 7206TIP3    H243034   1.518   4.721  15.755  1.2457  0.3411 -1.7923
 7207TIP3   OH243035   6.445   0.207  13.547  0.0354  0.1674  0.4498
 7207TIP3    H143036   6.525   0.250  13.517  0.3944 -0.0506  1.0805
 7207TIP3    H243037   6.389   0.205  13.469  1.3335 -1.3149 -0.5235
 7208TIP3   OH243038   1.641   5.867  11.543  0.6369  0.1820  0.3667
 7208TIP3    H143039   1.671   5.780  11.517 -0.7889 -0.5121  0.9363
 7208TIP3    H243040   1.590   5.898  11.469 -0.2051 -0.1718  0.7814
 7209TIP3   OH243041   0.664   1.112   2.678  0.3591  0.0501  0.8833
 7209TIP3    H143042   0.582   1.063   2.685  0.3064  0.0985  0.6012
 7209TIP3    H243043   0.637   1.199   2.650  0.5913 -0.2329 -0.2810
 7210TIP3   OH243044   4.911   3.947  11.541 -0.2404 -0.3824 -0.5438
 7210TIP3    H143045   4.934   4.035  11.512 -0.3473 -0.0356  0.3683
 7210TIP3    H243046   4.894   3.957  11.635 -0.0290 -1.4189 -0.3840
 7211TIP3   OH243047   1.160   6.620  12.962 -0.6936  0.6672  0.1603
 7211TIP3    H143048   1.139   6.530  12.938 -2.2760  0.7130  1.2531
 7211TIP3    H243049   1.240   6.640  12.913 -0.5472 -1.1808 -0.4158
 7212TIP3   OH243050   3.999   2.571   0.191  0.7043 -0.5184 -0.1051
 7212TIP3    H143051   4.072   2.521   0.226 -0.0110  0.1795  2.6766
 7212TIP3    H243052   4.032   2.660   0.184  0.5391 -0.4663 -0.2251
 7213TIP3   OH243053   4.397   6.405   3.068 -0.5551  0.0369  0.3960
 7213TIP3    H143054   4.388   6.500   3.064  2.3990  0.4290  0.9983
 7213TIP3    H243055   4.349   6.373   2.991 -2.2084  1.8913  0.5605
 7214TIP3   OH243056   6.073   4.599  12.817 -0.4937 -0.0455  0.4042
 7214TIP3    H143057   6.161   4.602  12.781 -0.0235  2.4086  1.5692
 7214TIP3    H243058   6.059   4.507  12.838  1.1057 -0.7536 -1.3180
 7215TIP3   OH243059   2.977   2.751   3.809  0.2529  0.6896 -0.3831
 7215TIP3    H143060   3.071   2.761   3.795  0.4300 -1.0510 -0.6296
 7215TIP3    H243061   2.966   2.749   3.904  0.6347 -0.3700 -0.3528
 7216TIP3   OH243062   5.022   3.545   5.818  0.3593  0.7245  0.3209
 7216TIP3    H143063   5.018   3.636   5.847  2.4198  0.6845  0.8453
 7216TIP3    H243064   5.003   3.549   5.725  3.3634  2.1325 -0.3471
 7217TIP3   OH243065   4.782   3.526  14.081  0.4089  0.1020 -0.1636
 7217TIP3    H143066   4.806   3.493  14.167  0.1724  0.9533  0.2406
 7217TIP3    H243067   4.859   3.576  14.052  0.8657 -0.9834 -0.8835
 7218TIP3   OH243068   0.829   1.520  16.769 -0.3103 -0.2108 -0.1560
 7218TIP3    H143069   0.831   1.436  16.816 -0.7287 -0.3498 -0.3891
 7218TIP3    H243070   0.738   1.533  16.746  0.0737 -0.8827 -2.2646
 7219TIP3   OH243071   5.618   4.106  11.115 -0.4081  0.0531 -0.6432
 7219TIP3    H143072   5.664   4.174  11.064 -1.9545  0.6983 -1.2339
 7219TIP3    H243073   5.576   4.154  11.186  0.0619 -0.5825  0.0835
 7220TIP3   OH243074   6.761   0.567  12.114 -0.0735 -0.2037  0.0530
 7220TIP3    H143075   6.762   0.648  12.064  1.8655 -0.0569  0.2744
 7220TIP3    H243076   6.668   0.548  12.126 -0.5840  2.1030  0.2041
 7221TIP3   OH243077   1.566   0.271  14.460  0.5765  0.3197  0.0281
 7221TIP3    H143078   1.610   0.254  14.543 -1.5666  1.0328  1.3741
 7221TIP3    H243079   1.579   0.365  14.444 -1.0185  0.7176  0.8473
 7222TIP3   OH243080   0.736   6.466  14.293 -0.1769 -0.0464  0.1864
 7222TIP3    H143081   0.666   6.406  14.267 -0.7450  1.0496 -0.9902
 7222TIP3    H243082   0.718   6.545  14.242  1.4939  0.5302  0.4491
 7223TIP3   OH243083   0.565   5.701  15.404  0.2848  0.0331  0.4463
 7223TIP3    H143084   0.615   5.769  15.359 -1.3637 -0.2060 -1.9339
 7223TIP3    H243085   0.604   5.619  15.374 -0.5205 -0.1194 -0.2197
 7224TIP3   OH243086   3.006   0.082   5.453  0.4232 -0.0445  0.1936
 7224TIP3    H143087   2.977   0.137   5.526 -0.0458  1.2198 -0.9001
 7224TIP3    H243088   3.080   0.129   5.415  0.9511 -0.9160  0.1182
 7225TIP3   OH243089   1.713   0.703   3.644  0.3177 -1.0291 -0.1263
 7225TIP3    H143090   1.781   0.770   3.639 -1.0573  0.4493 -0.0048
 7225TIP3    H243091   1.697   0.679   3.552 -2.1425  2.0588 -0.6773
 7226TIP3   OH243092   6.729   2.700  11.661 -0.1285  0.6794 -0.1207
 7226TIP3    H143093   6.750   2.793  11.654  0.3051  0.6050  0.1395
 7226TIP3    H243094   6.716   2.672  11.570  1.4547  0.6172 -0.3647
 7227TIP3   OH243095   0.718   1.073  12.655 -0.3678  0.1096  0.5712
 7227TIP3    H143096   0.722   0.978  12.639 -0.4103 -0.0037  1.2264
 7227TIP3    H243097   0.780   1.110  12.591 -0.9411 -0.2849 -0.2303
 7228TIP3   OH243098   2.802   1.505  12.672  0.3361  0.6523  0.3454
 7228TIP3    H143099   2.837   1.416  12.662 -0.4158  0.4537 -0.6905
 7228TIP3    H243100   2.743   1.516  12.598 -0.1339  1.7647  0.8608
 7229TIP3   OH243101   2.652   5.915  12.113 -0.6072  0.1999 -0.1787
 7229TIP3    H143102   2.572   5.959  12.085 -0.7949  0.0006  0.0361
 7229TIP3    H243103   2.717   5.938  12.047 -0.7295  0.7106 -0.1271
 7230TIP3   OH243104   2.559   3.660   6.025 -0.0915 -0.2988 -0.5796
 7230TIP3    H143105   2.502   3.697   6.092 -0.0006 -0.6070 -0.3264
 7230TIP3    H243106   2.523   3.572   6.009 -0.6074  0.0688 -1.5307
 7231TIP3   OH243107   6.376   5.174   4.565 -0.4889  0.1362 -0.1575
 7231TIP3    H143108   6.436   5.100   4.552 -2.2730 -1.5079  0.4037
 7231TIP3    H243109   6.384   5.195   4.658 -0.0603  0.5808 -0.2942
 7232TIP3   OH243110   5.448   0.028  16.841 -0.5831 -0.2902  0.3136
 7232TIP3    H143111   5.413  -0.031  16.774 -0.4121  0.3041 -0.3067
 7232TIP3    H243112   5.424  -0.014  16.924 -0.3879 -1.2722 -0.1105
 7233TIP3   OH243113   2.592   0.004  14.593 -0.2758 -0.2399 -0.0923
 7233TIP3    H143114   2.650   0.051  14.534 -0.3716  0.5608  0.4293
 7233TIP3    H243115   2.523  -0.030  14.537  0.9497 -1.6523 -0.7987
 7234TIP3   OH243116   4.213   3.018   2.252  0.0796 -0.0902 -0.4115
 7234TIP3    H143117   4.179   2.934   2.283 -0.0460 -0.1800 -0.7967
 7234TIP3    H243118   4.169   3.082   2.308  2.0013 -0.3741  1.5764
 7235TIP3   OH243119   2.281   2.166   3.322  0.4584 -0.4891 -0.2906
 7235TIP3    H143120   2.264   2.206   3.407  0.1547 -2.6392  0.7037
 7235TIP3    H243121   2.374   2.182   3.307 -0.0659  2.4509 -1.0000
 7236TIP3   OH243122   5.664   3.639  11.702 -0.3096 -0.1868 -0.0891
 7236TIP3    H143123   5.572   3.631  11.729 -1.2044  1.4565 -2.3179
 7236TIP3    H243124   5.661   3.630  11.607  2.0979 -1.6316 -0.1021
 7237TIP3   OH243125   1.193   4.007   3.454  0.4421  0.6245  0.3264
 7237TIP3    H143126   1.202   3.934   3.393  1.8848 -0.5648  1.8771
 7237TIP3    H243127   1.280   4.047   3.456 -0.5696  3.2017 -1.3638
 7238TIP3   OH243128   0.500   0.431  14.352  0.0755  0.3206 -0.3370
 7238TIP3    H143129   0.542   0.516  14.362  0.4006 -0.0032  1.4216
 7238TIP3    H243130   0.413   0.451  14.319  0.6885  1.2018 -1.4680
 7239TIP3   OH243131   2.319   0.086   0.642  0.5700  0.6035  0.4712
 7239TIP3    H143132   2.345   0.146   0.571 -0.3418  1.6011  0.9538
 7239TIP3    H243133   2.237   0.047   0.611 -0.0260  1.3170  1.1059
 7240TIP3   OH243134   5.101   4.652  16.220 -0.0983 -0.4699  0.3233
 7240TIP3    H143135   5.073   4.581  16.277 -0.8584  0.6058  1.3524
 7240TIP3    H243136   5.105   4.613  16.132  0.6486 -2.0475  1.0139
 7241TIP3   OH243137   3.137   1.871  11.437 -0.0260 -0.4498 -0.5552
 7241TIP3    H143138   3.075   1.813  11.393  0.8822 -2.2565  0.4369
 7241TIP3    H243139   3.144   1.837  11.526 -2.3573  3.5293  1.4006
 7242TIP3   OH243140   0.537   2.455  13.331  0.3054  0.0864 -0.6638
 7242TIP3    H143141   0.479   2.382  13.309  0.0101  0.2984 -0.5920
 7242TIP3    H243142   0.478   2.529  13.345  0.4918  0.0492  0.4682
 7243TIP3   OH243143   6.764   4.322  13.567 -0.0218 -0.2831 -0.3508
 7243TIP3    H143144   6.777   4.250  13.505 -1.0834  0.4622 -1.4943
 7243TIP3    H243145   6.703   4.286  13.632 -0.8791 -0.3207 -1.1425
 7244TIP3   OH243146   4.439   4.115  15.398  0.2899  0.1942 -0.0199
 7244TIP3    H143147   4.534   4.103  15.387  0.2764 -1.2357  1.1348
 7244TIP3    H243148   4.411   4.037  15.445 -1.4432  0.7186 -0.1381
 7245TIP3   OH243149   6.713   1.298  15.725  0.3443  0.3843 -0.1988
 7245TIP3    H143150   6.628   1.266  15.754  0.0575 -0.9464 -2.2905
 7245TIP3    H243151   6.751   1.340  15.802 -1.8083  0.2000  1.0222
 7246TIP3   OH243152   0.340   6.239   5.131 -0.2424 -0.0673  1.0198
 7246TIP3    H143153   0.258   6.190   5.136 -0.8313  0.7358 -0.2467
 7246TIP3    H243154   0.383   6.207   5.053 -0.6395  1.3736  0.1661
 7247TIP3   OH243155   1.957   1.214  14.281  0.0618 -0.1388 -0.4478
 7247TIP3    H143156   1.979   1.161  14.205  0.4398 -1.3847  0.4923
 7247TIP3    H243157   1.963   1.154  14.355 -4.1097 -0.0401  0.2174
 7248TIP3   OH243158   1.716   0.100   6.182 -0.9742 -0.2649 -0.1978
 7248TIP3    H143159   1.676   0.083   6.097 -0.5838  0.1747 -0.4692
 7248TIP3    H243160   1.805   0.129   6.163  0.0733 -2.7730  0.4594
 7249TIP3   OH243161   4.650   1.200   3.511 -0.2643  0.8007  0.5053
 7249TIP3    H143162   4.712   1.241   3.451 -1.1981  0.2107 -0.9180
 7249TIP3    H243163   4.676   1.231   3.597  1.5840  1.0899 -0.1106
 7250TIP3   OH243164   4.114   0.228   5.312  0.2236 -0.3662  0.3295
 7250TIP3    H143165   4.041   0.289   5.315 -0.3329 -1.0368  0.6909
 7250TIP3    H243166   4.120   0.193   5.401 -0.6174 -2.1570 -0.2609
 7251TIP3   OH243167   5.882   5.605  15.261 -0.1099  0.1802  0.2184
 7251TIP3    H143168   5.849   5.521  15.229  0.7320 -0.0785 -0.0011
 7251TIP3    H243169   5.929   5.642  15.187 -0.4792  0.8574  0.3130
 7252TIP3   OH243170   0.015   0.418  14.481  0.1471  0.4842 -0.3233
 7252TIP3    H143171   0.088   0.452  14.532  1.2391 -2.3543  0.1863
 7252TIP3    H243172   0.053   0.350  14.426 -2.1649 -1.6259  0.4670
 7253TIP3   OH243173   1.766   1.194   2.404  0.1035 -0.4868  0.1179
 7253TIP3    H143174   1.815   1.245   2.468  0.4047 -0.4635 -0.1228
 7253TIP3    H243175   1.754   1.253   2.330  2.9462 -1.5237 -1.3700
 7254TIP3   OH243176   6.219   5.088   1.677 -0.4737  0.0992 -0.3112
 7254TIP3    H143177   6.230   5.177   1.645 -0.3723 -0.2098 -1.1484
 7254TIP3    H243178   6.151   5.095   1.744 -0.5201  0.7907 -0.4236
 7255TIP3   OH243179   2.851   1.408   3.678 -0.5581  1.2066 -0.1341
 7255TIP3    H143180   2.920   1.366   3.626 -0.2241  2.5928 -0.8500
 7255TIP3    H243181   2.772   1.358   3.658 -0.2684  1.1960 -1.3415
 7256TIP3   OH243182   0.859   4.060   3.802 -0.2209  0.4977 -0.2152
 7256TIP3    H143183   0.948   4.084   3.776 -0.2057 -0.0734 -0.7126
 7256TIP3    H243184   0.864   4.049   3.897  0.0328  1.3145 -0.1289
 7257TIP3   OH243185   1.213   5.722  15.997  0.4618  0.3804  0.4702
 7257TIP3    H143186   1.272   5.664  16.046  2.5054  1.7555 -0.2072
 7257TIP3    H243187   1.163   5.768  16.064  0.2259 -0.7132  1.0706
 7258TIP3   OH243188   2.814   5.472  15.251  0.2007  0.0390  0.1117
 7258TIP3    H143189   2.793   5.560  15.222  0.1724 -0.2585 -0.8066
 7258TIP3    H243190   2.734   5.421  15.232  0.7231 -0.4878 -0.7627
 7259TIP3   OH243191   1.396   6.574  14.984 -0.0258 -0.0068  0.2789
 7259TIP3    H143192   1.338   6.499  14.997 -0.0855 -0.0486 -0.2370
 7259TIP3    H243193   1.483   6.535  14.974  0.1570  0.0753  1.4304
 7260TIP3   OH243194   6.357   2.011   3.473 -0.2261 -0.0193  0.2158
 7260TIP3    H143195   6.398   1.930   3.444 -0.1038 -0.3035  1.1440
 7260TIP3    H243196   6.268   1.985   3.499  0.5212 -0.3750  2.7624
 7261TIP3   OH243197   0.511   0.038  12.482  0.2730 -0.0544 -0.2150
 7261TIP3    H143198   0.586  -0.021  12.483 -1.6584 -2.7241  0.2941
 7261TIP3    H243199   0.476   0.030  12.393 -0.1535  0.0942 -0.0626
 7262TIP3   OH243200   6.526   5.204  12.894 -0.2698  0.1849  0.2091
 7262TIP3    H143201   6.600   5.215  12.953 -0.4292  0.3943  0.3705
 7262TIP3    H243202   6.501   5.112  12.904  0.8990 -0.2849 -0.9574
 7263TIP3   OH243203   4.613   6.342  14.920  0.4630 -0.0441  0.5552
 7263TIP3    H143204   4.615   6.279  14.992 -0.7270 -0.9770 -0.1966
 7263TIP3    H243205   4.523   6.341  14.889  0.5714  1.5456  0.0692
 7264TIP3   OH243206   5.137   2.267   3.123 -0.6615 -0.4749  0.8785
 7264TIP3    H143207   5.160   2.354   3.092 -0.7464 -0.1315  1.7740
 7264TIP3    H243208   5.184   2.208   3.063 -0.0232  0.1832  0.7110
 7265TIP3   OH243209   6.084   0.968   1.696 -0.4363  0.4082 -0.3240
 7265TIP3    H143210   6.060   0.884   1.656  0.0610 -0.1207  0.4585
 7265TIP3    H243211   6.000   1.011   1.713 -0.7780 -0.6099  0.6808
 7266TIP3   OH243212   3.934   6.444   2.507 -0.1768  0.0935 -0.2543
 7266TIP3    H143213   3.928   6.441   2.412  0.1064  1.6152 -0.3488
 7266TIP3    H243214   3.882   6.520   2.532  1.5257  1.0468  0.6039
 7267TIP3   OH243215   2.207   6.419   0.223  0.1509  0.0885 -0.1437
 7267TIP3    H143216   2.201   6.428   0.128 -0.7808  0.9231 -0.0210
 7267TIP3    H243217   2.200   6.508   0.256  0.4724 -0.1930  0.7132
 7268TIP3   OH243218   0.163   3.041   4.119 -0.3616  0.2091  0.5385
 7268TIP3    H143219   0.088   3.098   4.131 -0.0105  1.2253 -1.6614
 7268TIP3    H243220   0.189   3.053   4.028  1.8286 -0.9049  0.9333
 7269TIP3   OH243221   6.066   0.650  13.483  0.4075 -0.2232 -0.2366
 7269TIP3    H143222   6.138   0.590  13.499  0.3480 -0.3153 -0.3161
 7269TIP3    H243223   6.032   0.670  13.571  0.2955 -0.4677 -0.2229
 7270TIP3   OH243224   1.672   6.187  12.557 -0.2743 -1.0312  0.0497
 7270TIP3    H143225   1.645   6.251  12.491  1.5986 -2.3115 -2.0728
 7270TIP3    H243226   1.764   6.170  12.539  0.1880 -1.8808  2.6861
 7271TIP3   OH243227   3.471   4.386  11.917 -0.3260 -0.0152 -0.0245
 7271TIP3    H143228   3.380   4.399  11.891 -0.0501 -0.3299 -1.2539
 7271TIP3    H243229   3.517   4.370  11.834  1.3652  2.9348  0.2082
 7272TIP3   OH243230   6.000   5.496   4.415 -0.0665  0.2154 -0.1447
 7272TIP3    H143231   6.079   5.469   4.461 -0.3042  0.9370  0.7247
 7272TIP3    H243232   5.942   5.420   4.419  0.9434 -0.6870 -1.7038
 7273TIP3   OH243233   0.500   5.386  15.814 -0.4649  0.5876  0.4290
 7273TIP3    H143234   0.542   5.443  15.878  1.9803  1.0408 -1.4278
 7273TIP3    H243235   0.433   5.440  15.773  0.7852  1.6941 -0.2328
 7274TIP3   OH243236   6.027   3.468  17.193 -0.0881 -0.3538 -0.1023
 7274TIP3    H143237   5.951   3.482  17.138 -1.1112 -0.9670  1.0976
 7274TIP3    H243238   6.013   3.382  17.233  0.2508  0.3570  1.6322
 7275TIP3   OH243239   6.120   2.572   2.675  0.3093  0.3702  0.0593
 7275TIP3    H143240   6.128   2.607   2.763 -1.1284 -0.2819  0.4822
 7275TIP3    H243241   6.049   2.622   2.635  0.4311  0.1399 -0.4635
 7276TIP3   OH243242   2.779   5.285  14.942 -0.3633  0.4443  0.0178
 7276TIP3    H143243   2.706   5.345  14.958 -2.4759 -1.1811 -2.6023
 7276TIP3    H243244   2.741   5.198  14.952  1.8179 -0.5045  0.6246
 7277TIP3   OH243245   5.930   6.743   4.824 -0.6350  0.5409 -0.7028
 7277TIP3    H143246   5.836   6.751   4.808 -0.1530  2.3452 -3.2815
 7277TIP3    H243247   5.971   6.770   4.742  2.1638 -2.8521 -0.6799
 7278TIP3   OH243248   0.419   3.422  11.766  0.7626  0.7812  0.2322
 7278TIP3    H143249   0.359   3.348  11.765  0.4210  0.9391  2.7871
 7278TIP3    H243250   0.505   3.383  11.751  0.4099  0.0683  0.0269
 7279TIP3   OH243251   6.475   0.508  12.186  0.6511 -0.1853  0.3369
 7279TIP3    H143252   6.475   0.559  12.266 -0.4562  0.5319 -0.1018
 7279TIP3    H243253   6.408   0.441  12.200 -0.4004  0.6704 -0.4072
 7280TIP3   OH243254   6.109   4.818  11.147  0.2484  0.2417  0.1415
 7280TIP3    H143255   6.164   4.816  11.225 -1.5675 -1.8283  1.4561
 7280TIP3    H243256   6.169   4.841  11.076  2.5558 -0.7805  1.6684
 7281TIP3   OH243257   1.821   2.185   2.674  0.4772  0.0406 -0.1709
 7281TIP3    H143258   1.839   2.093   2.652 -0.8135  0.0930 -1.6066
 7281TIP3    H243259   1.764   2.180   2.751  2.2023 -0.2521  1.1589
 7282TIP3   OH243260   4.160   6.040  10.877 -0.3273 -0.0394 -0.0945
 7282TIP3    H143261   4.183   6.128  10.846 -0.6183 -0.2876 -1.0442
 7282TIP3    H243262   4.065   6.043  10.888 -0.4848 -0.5517 -1.2048
 7283TIP3   OH243263   4.458   5.888   3.727  0.4132 -0.2514 -0.2752
 7283TIP3    H143264   4.494   5.977   3.728  2.0091 -0.8627  0.0487
 7283TIP3    H243265   4.443   5.868   3.820  0.2286 -0.3823 -0.3337
 7284TIP3   OH243266   5.126   1.636  14.427  0.3750 -0.0349  0.2635
 7284TIP3    H143267   5.152   1.548  14.403  0.4478 -0.0245  0.3031
 7284TIP3    H243268   5.207   1.687  14.424  0.5433 -0.2072  1.3276
 7285TIP3   OH243269   2.608   2.297  13.874 -0.8919  0.1829  0.4712
 7285TIP3    H143270   2.529   2.294  13.929  0.5741  0.7841  2.7110
 7285TIP3    H243271   2.578   2.338  13.792 -3.0561 -0.3226  0.9411
 7286TIP3   OH243272   2.767   3.736  11.447  0.5476  0.5294  0.5979
 7286TIP3    H143273   2.705   3.742  11.374  1.3031  0.1177 -0.1129
 7286TIP3    H243274   2.788   3.826  11.468  0.3539  0.6547  0.2663
 7287TIP3   OH243275   2.919   3.056  16.591 -0.0672  0.1802 -0.2102
 7287TIP3    H143276   2.927   2.973  16.544 -1.8449  0.4909 -1.1731
 7287TIP3    H243277   2.894   3.031  16.680 -1.0063 -0.3467 -0.5994
 7288TIP3   OH243278   0.171   0.756  12.886 -0.4100 -0.3935 -0.0519
 7288TIP3    H143279   0.224   0.828  12.852 -2.0524  0.6161 -0.6240
 7288TIP3    H243280   0.150   0.703  12.809 -0.1662 -0.8172  0.1740
 7289TIP3   OH243281   1.094   0.208  15.345  0.6606 -0.0324  0.3801
 7289TIP3    H143282   1.024   0.255  15.299 -0.1256 -1.4956 -0.0033
 7289TIP3    H243283   1.137   0.274  15.399 -0.5076  1.0673  0.0083
 7290TIP3   OH243284   0.404   2.522  17.215  0.0371 -0.1245  0.0864
 7290TIP3    H143285   0.399   2.442  17.267 -0.6712 -0.5057 -0.5547
 7290TIP3    H243286   0.477   2.571  17.253  1.1441 -1.5290 -0.1469
 7291TIP3   OH243287   6.042   6.183   6.101 -0.4527 -0.2842 -0.1598
 7291TIP3    H143288   6.131   6.148   6.092 -0.3114 -0.6678  2.1483
 7291TIP3    H243289   6.046   6.238   6.179 -1.1733  3.4191 -2.4424
 7292TIP3   OH243290   5.864   2.586   6.124  0.3986  0.6990  0.1510
 7292TIP3    H143291   5.891   2.678   6.113  2.3364  0.3100  1.2595
 7292TIP3    H243292   5.781   2.592   6.171  0.2525  1.8803 -0.1999
 7293TIP3   OH243293   3.482   2.995   4.451  0.5210 -0.3542  0.0350
 7293TIP3    H143294   3.480   2.930   4.521 -0.5111  0.5177  0.8501
 7293TIP3    H243295   3.406   2.975   4.397 -0.1051  0.4687  0.5868
 7294TIP3   OH243296   2.923   2.411   2.708  0.5641  0.4872  0.1608
 7294TIP3    H143297   3.002   2.450   2.673  1.7340 -2.1360 -0.3652
 7294TIP3    H243298   2.871   2.387   2.631  0.7815 -0.6992  0.3669
 7295TIP3   OH243299   5.184   6.392   3.092 -0.2401 -0.3145 -0.2123
 7295TIP3    H143300   5.185   6.406   2.997 -0.4732  0.8259 -0.0705
 7295TIP3    H243301   5.181   6.297   3.102  0.6079 -0.4888 -1.3343
 7296TIP3   OH243302   0.422   2.369   6.137  0.2023  0.5795 -0.4370
 7296TIP3    H143303   0.434   2.290   6.189  1.6717  0.4853 -0.8744
 7296TIP3    H243304   0.391   2.434   6.200 -1.4505 -0.4091 -0.1548
 7297TIP3   OH243305   2.123   6.548  13.583  0.3009 -0.0042  0.4485
 7297TIP3    H143306   2.144   6.550  13.676 -0.2326  1.0132  0.5598
 7297TIP3    H243307   2.191   6.600  13.541 -1.2583  2.4318  0.6953
 7298TIP3   OH243308   6.761   3.939  14.672  0.1734 -0.2318  0.1555
 7298TIP3    H143309   6.749   3.896  14.757 -0.1897  0.6011  0.5379
 7298TIP3    H243310   6.709   3.887  14.611  0.4329 -0.8364  0.4442
 7299TIP3   OH243311   6.551   0.966  12.606 -0.2910 -0.2404 -0.0932
 7299TIP3    H143312   6.540   1.056  12.577  2.2126  0.1210 -0.1703
 7299TIP3    H243313   6.555   0.914  12.526 -2.3497 -0.5589 -0.0352
 7300TIP3   OH243314   1.005   3.705  13.809 -0.6295  0.2722  0.1797
 7300TIP3    H143315   0.929   3.706  13.867 -2.4271  0.3161 -2.0494
 7300TIP3    H243316   1.000   3.787  13.761  1.4887  0.7771  0.7067
 7301TIP3   OH243317   0.291   3.934  14.598 -0.0485 -0.6712 -0.7328
 7301TIP3    H143318   0.286   3.904  14.689  0.6831 -0.8280 -0.7380
 7301TIP3    H243319   0.228   4.006  14.593 -2.2496 -2.4850 -0.8641
 7302TIP3   OH243320   0.494   4.742  16.000 -1.1686  0.6481  0.6306
 7302TIP3    H143321   0.548   4.672  16.035  0.2436  2.1305  1.5536
 7302TIP3    H243322   0.524   4.751  15.909  0.1824  1.4435  1.1271
 7303TIP3   OH243323   2.588   5.426   1.342  0.1538 -0.3393 -0.1377
 7303TIP3    H143324   2.494   5.412   1.357  0.0597  1.1312  0.8619
 7303TIP3    H243325   2.631   5.353   1.387 -0.4656 -0.2163  0.6775
 7304TIP3   OH243326   4.264   5.969  15.220 -0.1596  0.3250 -0.6477
 7304TIP3    H143327   4.215   6.015  15.289 -0.9886  0.2853 -1.1930
 7304TIP3    H243328   4.355   5.995  15.234 -0.4943  1.4115 -0.3795
 7305TIP3   OH243329   1.084   3.181   1.449  0.3433 -0.1660 -0.5315
 7305TIP3    H143330   1.171   3.194   1.412  0.7716 -0.7331  0.2368
 7305TIP3    H243331   1.079   3.087   1.466 -0.6829 -0.2456 -1.1943
 7306TIP3   OH243332   4.920   3.523  13.418  0.1976 -0.2606  0.1371
 7306TIP3    H143333   4.829   3.553  13.427  0.1792 -0.5000  0.7617
 7306TIP3    H243334   4.940   3.479  13.500  1.0277  0.1627  0.1719
 7307TIP3   OH243335   6.368   1.897   4.907  0.6023 -0.1461 -0.3625
 7307TIP3    H143336   6.380   1.988   4.935  0.8573 -0.3422  0.1814
 7307TIP3    H243337   6.313   1.903   4.829  1.8229  0.5850 -1.2118
 7308TIP3   OH243338   2.714   1.669   0.481  0.0648  0.8261  0.0919
 7308TIP3    H143339   2.635   1.625   0.451  0.7108 -1.0747  1.0148
 7308TIP3    H243340   2.687   1.718   0.558 -0.3728  0.8933 -0.1013
 7309TIP3   OH243341   0.868   3.087  16.127  0.4545 -0.6765 -0.0220
 7309TIP3    H143342   0.882   2.998  16.158  0.3515 -0.6211  0.1918
 7309TIP3    H243343   0.956   3.125  16.123  0.4859 -0.7449  0.0196
 7310TIP3   OH243344   2.514   2.374   2.706 -0.1019 -0.1141 -0.6555
 7310TIP3    H143345   2.505   2.286   2.668 -2.5039 -0.8141  1.2760
 7310TIP3    H243346   2.534   2.359   2.798  0.3891  1.4191 -0.4804
 7311TIP3   OH243347   2.026   4.896  15.976 -0.0620  0.2654 -0.0395
 7311TIP3    H143348   1.939   4.867  15.949  1.2387 -2.8498 -1.2505
 7311TIP3    H243349   2.027   4.880  16.071 -0.8698  0.5775  0.0334
 7312TIP3   OH243350   1.403   4.145   5.276  0.4863 -0.2632 -0.6271
 7312TIP3    H143351   1.474   4.197   5.239  2.0484 -2.1359 -0.4383
 7312TIP3    H243352   1.356   4.205   5.334  1.1857  1.3330 -1.6576
 7313TIP3   OH243353   0.692   3.008  12.458 -0.1030  0.0457  0.3142
 7313TIP3    H143354   0.621   2.949  12.434  0.4612 -1.3532  1.9306
 7313TIP3    H243355   0.652   3.071  12.519  0.1859 -1.3051  1.9627
 7314TIP3   OH243356   6.068   3.807   5.247  0.5993  0.2631  0.0684
 7314TIP3    H143357   6.111   3.867   5.308  0.5008  1.6007 -1.1151
 7314TIP3    H243358   5.975   3.809   5.272  0.6054  0.5786  0.0708
 7315TIP3   OH243359   5.508   6.111  13.195 -0.3975  0.0052 -0.1716
 7315TIP3    H143360   5.546   6.058  13.125  1.6399  0.5182  0.4799
 7315TIP3    H243361   5.569   6.183  13.206 -1.3667  0.6439  1.2678
 7316TIP3   OH243362   5.238   3.213   1.859 -0.0218 -0.0825 -0.3084
 7316TIP3    H143363   5.295   3.280   1.896 -1.7045  0.5730  1.2545
 7316TIP3    H243364   5.181   3.187   1.931 -1.2728 -1.1686 -1.6191
 7317TIP3   OH243365   3.360   5.151  11.659  0.0276 -0.3284 -0.0534
 7317TIP3    H143366   3.425   5.087  11.686 -0.0385 -0.2192  0.3723
 7317TIP3    H243367   3.384   5.173  11.569 -0.1191 -1.1545 -0.3032
 7318TIP3   OH243368   4.770   2.124   5.126  0.0273 -0.3952 -0.0623
 7318TIP3    H143369   4.698   2.183   5.149 -0.5356 -1.6810  1.6630
 7318TIP3    H243370   4.806   2.096   5.210  0.1710 -2.6120 -0.8161
 7319TIP3   OH243371   4.501   1.410   2.961  0.4201 -0.5953 -0.1288
 7319TIP3    H143372   4.535   1.322   2.974 -2.6983 -2.0569 -0.8009
 7319TIP3    H243373   4.491   1.419   2.866  0.2965  0.3076 -0.0470
 7320TIP3   OH243374   2.987   0.076   2.217 -0.3486 -0.0500 -0.3319
 7320TIP3    H143375   3.040   0.009   2.173 -0.8020 -0.5869 -0.0670
 7320TIP3    H243376   3.046   0.114   2.281 -0.0378 -0.0774 -0.5964
 7321TIP3   OH243377   1.262   5.589   0.685 -0.2499  0.5700 -0.2926
 7321TIP3    H143378   1.269   5.612   0.592 -0.2981 -0.4846 -0.5639
 7321TIP3    H243379   1.245   5.495   0.686 -0.0977  0.5376  0.7933
 7322TIP3   OH243380   5.504   3.773  10.987  0.2092 -0.3254  0.4658
 7322TIP3    H143381   5.497   3.703  10.922  1.1767  1.1804 -1.3509
 7322TIP3    H243382   5.427   3.828  10.972  1.3352  1.0129 -0.7020
 7323TIP3   OH243383   2.711   0.437   0.479 -0.4970 -0.0443 -0.0688
 7323TIP3    H143384   2.708   0.504   0.410  1.5048  1.4216  1.1466
 7323TIP3    H243385   2.804   0.428   0.499 -0.9121 -1.5087  1.4312
 7324TIP3   OH243386   2.712   3.036  16.233  0.1198  0.2496  0.2758
 7324TIP3    H143387   2.695   3.003  16.321  1.9995  0.0666  0.6128
 7324TIP3    H243388   2.660   2.980  16.175  0.1154 -0.6670  1.1522
 7325TIP3   OH243389   6.071   1.954   5.562  0.1622 -0.4908  0.3026
 7325TIP3    H143390   6.077   1.984   5.653 -0.5564  0.6327 -0.0109
 7325TIP3    H243391   6.023   1.871   5.568  0.3833 -0.5803  0.9748
 7326TIP3   OH243392   3.682   0.595  12.907  0.0868  0.5160  0.1601
 7326TIP3    H143393   3.773   0.590  12.935  0.1514  1.8999  0.2560
 7326TIP3    H243394   3.654   0.504  12.899  1.1895  0.0795  1.0611
 7327TIP3   OH243395   3.748   3.520   5.815 -0.1882 -0.0278  0.6180
 7327TIP3    H143396   3.795   3.534   5.734  1.6393  0.3845  1.6953
 7327TIP3    H243397   3.702   3.437   5.803 -1.0853  0.6923 -1.3129
 7328TIP3   OH243398   0.374   1.276  13.261 -0.2987 -0.0093  0.2483
 7328TIP3    H143399   0.331   1.355  13.296  1.7234  0.9053  0.8071
 7328TIP3    H243400   0.464   1.283  13.291  0.1127 -2.1879 -0.3522
 7329TIP3   OH243401   0.080   5.260   4.580 -0.6273 -0.4295 -0.1486
 7329TIP3    H143402   0.038   5.207   4.648 -0.8479 -0.9702 -0.7073
 7329TIP3    H243403   0.108   5.339   4.626 -0.6706 -0.8419  0.6024
 7330TIP3   OH243404   1.616   1.227  14.123 -0.2029  0.1078  0.0007
 7330TIP3    H143405   1.675   1.156  14.100 -0.2876  0.0544 -0.0540
 7330TIP3    H243406   1.585   1.205  14.211  0.7883  0.7549  0.5282
 7331TIP3   OH243407   1.597   4.768   4.821  0.3717 -0.3810  0.1736
 7331TIP3    H143408   1.547   4.689   4.801 -0.2986  0.6454 -2.5758
 7331TIP3    H243409   1.565   4.834   4.759  2.0973  1.5804  1.2309
 7332TIP3   OH243410   2.950   2.091  15.558 -0.6329  0.4216  0.2631
 7332TIP3    H143411   2.950   2.159  15.491 -2.9992  0.0358 -0.2354
 7332TIP3    H243412   2.980   2.135  15.637 -1.2478  1.8285 -0.2491
 7333TIP3   OH243413   2.985   1.404   1.687 -0.9168  0.1970  0.7008
 7333TIP3    H143414   2.997   1.453   1.769  2.7311 -1.1234  1.1611
 7333TIP3    H243415   3.019   1.317   1.706 -2.1022 -0.8682 -1.6282
 7334TIP3   OH243416   4.906   2.242  11.438 -0.5378 -0.1250  0.4769
 7334TIP3    H143417   4.944   2.318  11.394 -1.3950  0.3669  0.5558
 7334TIP3    H243418   4.942   2.245  11.527 -1.1001  0.6086  0.6961
 7335TIP3   OH243419   0.703   2.323  12.814  0.3509 -0.3143 -0.1433
 7335TIP3    H143420   0.747   2.296  12.894  0.4857 -2.0588 -0.7578
 7335TIP3    H243421   0.610   2.324  12.836  0.4393 -0.0755  0.2205
 7336TIP3   OH243422   3.411   0.459   1.234  0.4798 -0.4881 -0.1541
 7336TIP3    H143423   3.478   0.472   1.301  1.2092 -0.3923 -0.8964
 7336TIP3    H243424   3.442   0.385   1.182  0.9659  0.7281 -1.6538
 7337TIP3   OH243425   5.985   4.253   0.638  0.6013  0.0904  0.2312
 7337TIP3    H143426   5.977   4.205   0.721 -0.2423  0.5322  0.4142
 7337TIP3    H243427   5.966   4.344   0.661 -1.0709  0.0189 -0.6752
 7338TIP3   OH243428   2.652   5.175   6.526 -0.3449  0.0980 -0.5763
 7338TIP3    H143429   2.665   5.104   6.463 -0.6981 -0.6265  0.1590
 7338TIP3    H243430   2.597   5.137   6.594 -1.1637  1.3002 -0.5417
 7339TIP3   OH243431   5.064   5.062  11.592  0.0511  0.1425 -0.3455
 7339TIP3    H143432   5.047   5.041  11.501 -0.2107  1.7460 -0.7029
 7339TIP3    H243433   5.153   5.099  11.593  0.4497 -0.7759  0.2277
 7340TIP3   OH243434   4.449   2.129  12.738  0.2045  0.1049 -0.0898
 7340TIP3    H143435   4.412   2.071  12.805  0.3801 -0.3496 -0.3866
 7340TIP3    H243436   4.434   2.217  12.773 -1.2709 -0.0465 -0.2514
 7341TIP3   OH243437   1.567   5.715   5.092  0.0804 -0.3202  0.4195
 7341TIP3    H143438   1.623   5.664   5.150 -0.1620 -0.2633  0.7051
 7341TIP3    H243439   1.586   5.807   5.115  2.1129 -0.1607 -1.5506
 7342TIP3   OH243440   2.810   1.891  12.074 -0.0292  0.5138  0.0135
 7342TIP3    H143441   2.853   1.933  12.000  1.6681  0.8642  1.1476
 7342TIP3    H243442   2.810   1.957  12.144  2.0023 -1.0282  1.5814
 7343TIP3   OH243443   1.050   5.198  14.770 -0.4897 -0.2832  0.2422
 7343TIP3    H143444   1.019   5.235  14.687  2.9704  0.7820 -0.7435
 7343TIP3    H243445   1.132   5.153  14.747  1.4439  1.3973  3.2403
 7344TIP3   OH243446   1.342   0.573   0.411 -0.4084 -0.0257  0.5952
 7344TIP3    H143447   1.371   0.501   0.466  0.0848 -0.3584 -0.0929
 7344TIP3    H243448   1.323   0.533   0.326  0.8440  0.7903 -0.1052
 7345TIP3   OH243449   1.332   4.971  13.701  0.3547  0.6755 -0.0731
 7345TIP3    H143450   1.358   5.063  13.698  1.2481  0.4359  0.0751
 7345TIP3    H243451   1.238   4.972  13.682  0.4280  1.5830 -0.4260
 7346TIP3   OH243452   6.668   3.408   5.799 -0.3002  0.4222 -0.1680
 7346TIP3    H143453   6.648   3.314   5.792  2.0404 -0.0637 -1.2694
 7346TIP3    H243454   6.670   3.425   5.894 -0.5645 -0.6835  0.0482
 7347TIP3   OH243455   5.460   5.803   5.208 -0.2336  0.1665  0.2303
 7347TIP3    H143456   5.466   5.896   5.227 -1.0867 -0.0463  1.6260
 7347TIP3    H243457   5.472   5.797   5.113 -3.4439  2.0539 -0.4496
 7348TIP3   OH243458   1.800   3.466   4.197  0.3106 -0.3679  0.1898
 7348TIP3    H143459   1.820   3.390   4.252  0.2767 -0.9907 -0.6581
 7348TIP3    H243460   1.778   3.535   4.260  0.8233 -0.9120  0.9844
 7349TIP3   OH243461   2.830   4.451  11.773 -0.1134  0.0800  0.2254
 7349TIP3    H143462   2.915   4.438  11.730  0.0167  0.5422  0.3311
 7349TIP3    H243463   2.791   4.525  11.727 -0.1683  0.2892  0.5996
 7350TIP3   OH243464   5.653   4.437   4.714  0.5807 -0.2577 -0.7075
 7350TIP3    H143465   5.579   4.408   4.768  1.1407 -0.6563 -0.1458
 7350TIP3    H243466   5.648   4.533   4.717  0.0990 -0.2804 -0.6556
 7351TIP3   OH243467   0.730   4.167  16.560 -0.4668  0.0553 -0.4319
 7351TIP3    H143468   0.648   4.149  16.515  0.7007 -0.3027 -2.5961
 7351TIP3    H243469   0.775   4.083  16.562  0.8815  0.6791 -1.6616
 7352TIP3   OH243470   1.735   2.845   2.896 -0.2463 -0.8532 -0.0810
 7352TIP3    H143471   1.647   2.817   2.922 -0.6862 -0.4409 -1.0752
 7352TIP3    H243472   1.794   2.787   2.945 -1.0904 -2.0143 -0.3848
 7353TIP3   OH243473   3.029   6.504   3.171 -0.4418  0.8985 -0.4216
 7353TIP3    H143474   2.992   6.420   3.199  1.9218 -0.6181 -1.5042
 7353TIP3    H243475   3.039   6.554   3.252  0.2436 -0.8282  0.6251
 7354TIP3   OH243476   6.505   3.891   0.034 -0.4087 -0.2654  0.1043
 7354TIP3    H143477   6.419   3.919   0.066 -0.0691  4.1277 -2.1128
 7354TIP3    H243478   6.567   3.919   0.101 -0.4326  0.1477 -0.0435
 7355TIP3   OH243479   6.021   3.313   5.316  0.0379 -0.4377 -0.0249
 7355TIP3    H143480   5.935   3.336   5.281 -0.2279  0.3532  1.1129
 7355TIP3    H243481   6.078   3.310   5.240 -0.5807  0.9644 -0.5642
 7356TIP3   OH243482   1.902   6.724  13.643 -0.5741  0.2699  0.2386
 7356TIP3    H143483   1.946   6.664  13.583  0.4661  0.3633  0.8827
 7356TIP3    H243484   1.942   6.810  13.625 -1.1090  0.5221  0.2384
 7357TIP3   OH243485   4.708   3.811   2.427  0.1585 -0.2346  0.0285
 7357TIP3    H143486   4.637   3.748   2.440  0.2752 -0.2347  0.6825
 7357TIP3    H243487   4.787   3.758   2.429  0.1696 -0.2936 -1.1173
 7358TIP3   OH243488   1.573   3.512   4.878 -0.3145  0.9771  0.1627
 7358TIP3    H143489   1.547   3.574   4.947 -1.1198 -0.2315  0.9936
 7358TIP3    H243490   1.533   3.547   4.799 -2.1017  0.7182  0.8988
 7359TIP3   OH243491   3.370   6.037   1.219 -0.0376 -0.0740  0.9484
 7359TIP3    H143492   3.314   6.096   1.270 -0.9768  0.1524 -0.3153
 7359TIP3    H243493   3.308   5.985   1.167  0.9098 -0.0453 -0.2372
 7360TIP3   OH243494   3.494   1.806   6.054 -0.2266 -0.0304 -0.2729
 7360TIP3    H143495   3.524   1.875   5.995  0.5043  1.2027  1.4312
 7360TIP3    H243496   3.403   1.827   6.072  0.3869  1.4413  1.3956
 7361TIP3   OH243497   5.607   0.176   5.445  0.4296 -0.0441  0.2864
 7361TIP3    H143498   5.696   0.212   5.436  0.5841 -0.6838 -0.8373
 7361TIP3    H243499   5.563   0.201   5.364 -0.6650  0.8697  1.1219
 7362TIP3   OH243500   5.832   2.739  12.776  0.0316  0.1501  0.0523
 7362TIP3    H143501   5.898   2.678  12.744  1.3583  2.0590 -1.0579
 7362TIP3    H243502   5.873   2.782  12.851 -2.2580 -2.7411  3.3214
 7363TIP3   OH243503   3.486   4.028   4.166 -0.1431  0.1642 -0.5264
 7363TIP3    H143504   3.401   3.989   4.184  0.6144 -1.1162  0.4853
 7363TIP3    H243505   3.468   4.121   4.150 -1.4264  0.5810  2.7321
 7364TIP3   OH243506   2.553   2.919   3.498 -0.6012  0.0189 -0.5937
 7364TIP3    H143507   2.481   2.892   3.441 -0.9606 -1.7361  0.6041
 7364TIP3    H243508   2.542   2.866   3.577  0.6529  1.4108  0.5693
 7365TIP3   OH243509   6.068   5.913  16.507 -0.0688  0.5598 -0.2805
 7365TIP3    H143510   6.095   5.882  16.593  1.5763  3.4310  0.3929
 7365TIP3    H243511   6.122   5.864  16.446 -0.0376 -0.3100  0.4186
 7366TIP3   OH243512   1.690   5.440  11.357  0.2561  0.0475 -0.6133
 7366TIP3    H143513   1.680   5.349  11.329  2.6720 -0.7458  0.8234
 7366TIP3    H243514   1.733   5.483  11.283 -0.3108 -0.1173 -1.0454
 7367TIP3   OH243515   0.511   0.569  13.191 -0.0677 -0.1676  0.7751
 7367TIP3    H143516   0.419   0.544  13.177  0.2121 -0.2142 -1.3656
 7367TIP3    H243517   0.547   0.576  13.103  1.7167  0.9357  1.5368
 7368TIP3   OH243518   5.949   6.362  11.242 -0.2875 -0.2611 -0.7240
 7368TIP3    H143519   5.868   6.316  11.264 -0.1479 -0.8791 -1.4650
 7368TIP3    H243520   6.018   6.314  11.288 -0.5508  1.6944  1.9039
 7369TIP3   OH243521   2.731   1.535  16.280 -0.5947  0.3271 -0.5393
 7369TIP3    H143522   2.636   1.521  16.282 -0.5034 -0.2891 -0.0469
 7369TIP3    H243523   2.753   1.559  16.370 -0.2738  0.4051 -0.6391
 7370TIP3   OH243524   6.655   5.383  15.024  0.2266 -0.4049  0.6141
 7370TIP3    H143525   6.693   5.340  14.947 -1.2267 -0.9626  0.1635
 7370TIP3    H243526   6.576   5.332  15.042  0.0559  0.3000  1.9133
 7371TIP3   OH243527   4.954   1.430   5.083 -0.0230 -0.1928  0.2640
 7371TIP3    H143528   4.905   1.414   5.164  0.5548  1.1512  0.9144
 7371TIP3    H243529   5.016   1.499   5.106  1.7243 -1.3555 -0.7117
 7372TIP3   OH243530   1.006   5.993  13.201 -0.3792  0.5717 -0.6070
 7372TIP3    H143531   1.004   5.900  13.221 -1.8499  0.5907 -0.4877
 7372TIP3    H243532   1.003   6.037  13.287  1.6258  0.7702 -0.6011
 7373TIP3   OH243533   0.230   4.612   6.313  0.9952 -0.2481 -0.5229
 7373TIP3    H143534   0.186   4.528   6.331  0.6383 -0.0245 -0.3282
 7373TIP3    H243535   0.172   4.677   6.352  1.3753  0.0751 -0.4977
 7374TIP3   OH243536   5.844   4.685   0.140 -0.5447  0.6144 -0.6188
 7374TIP3    H143537   5.842   4.737   0.060  1.3329 -0.0855 -1.1854
 7374TIP3    H243538   5.872   4.598   0.111  1.7363  0.7382  0.9539
 7375TIP3   OH243539   6.152   1.774   3.484 -0.2525 -0.2809  0.3492
 7375TIP3    H143540   6.133   1.814   3.399  1.8641  0.5030  0.1777
 7375TIP3    H243541   6.071   1.785   3.534 -0.5369  2.1609 -0.5039
 7376TIP3   OH243542   1.090   0.035  14.535 -0.0614 -0.4691 -0.3947
 7376TIP3    H143543   1.186   0.041  14.531 -0.0742 -0.8853 -2.1327
 7376TIP3    H243544   1.063   0.023  14.444 -1.8345  0.3980 -0.0279
 7377TIP3   OH243545   0.463   3.732   0.008  0.3276  0.4209  0.3684
 7377TIP3    H143546   0.444   3.810  -0.043  0.0472 -0.4408 -0.8867
 7377TIP3    H243547   0.383   3.679   0.003  1.7531 -1.7670 -2.2403
 7378TIP3   OH243548   3.440   5.751   0.926 -0.0351  0.0330  0.4173
 7378TIP3    H143549   3.513   5.736   0.866 -1.1192 -1.3613 -0.6155
 7378TIP3    H243550   3.447   5.680   0.991  0.5733  0.9766  1.4194
 7379TIP3   OH243551   6.238   5.511   3.885  0.4339  0.4585 -0.0064
 7379TIP3    H143552   6.160   5.475   3.844  0.7684  0.4751 -0.6689
 7379TIP3    H243553   6.218   5.603   3.900 -0.0492  0.2396  0.7725
 7380TIP3   OH243554   0.004   5.534   4.181 -0.2746  0.4504 -0.6525
 7380TIP3    H143555  -0.010   5.442   4.204  0.6379  0.6711  0.9717
 7380TIP3    H243556  -0.048   5.583   4.246  0.4639  1.0833 -0.5164
 7381TIP3   OH243557   4.728   2.968   3.603 -0.1347  0.7542 -0.1803
 7381TIP3    H143558   4.710   2.922   3.685  2.0258  0.6138  0.2626
 7381TIP3    H243559   4.812   3.011   3.617  0.1911  0.8916 -2.2491
 7382TIP3   OH243560   2.220   5.229   3.834 -0.2603  0.2158  0.2083
 7382TIP3    H143561   2.292   5.222   3.896  0.5010  0.4067 -0.6415
 7382TIP3    H243562   2.260   5.260   3.754 -1.1714 -0.3916 -0.5012
 7383TIP3   OH243563   6.035   3.880   0.004  0.3932  0.6177  0.2601
 7383TIP3    H143564   6.004   3.937   0.073  0.3955  1.0979 -0.1311
 7383TIP3    H243565   5.975   3.894  -0.069 -1.3320 -1.9572  1.0531
 7384TIP3   OH243566   2.182   4.128   4.208 -0.1431  0.9398 -0.0517
 7384TIP3    H143567   2.193   4.100   4.117  1.5623  2.2303 -0.2919
 7384TIP3    H243568   2.161   4.048   4.256  1.5384 -0.2404 -1.1684
 7385TIP3   OH243569   4.461   3.902   4.993  0.0336  0.5416 -0.0450
 7385TIP3    H143570   4.522   3.853   5.048  1.3431  0.4969 -1.4738
 7385TIP3    H243571   4.403   3.836   4.955 -0.3963  0.4936  0.6838
 7386TIP3   OH243572   0.236   1.514  16.613 -0.3606 -0.0921  0.0967
 7386TIP3    H143573   0.260   1.507  16.705 -0.2066  0.3363  0.0910
 7386TIP3    H243574   0.183   1.593  16.608 -2.6907 -1.5273  0.2969
 7387TIP3   OH243575   4.365   6.226  12.883  0.8829  0.0824 -0.0812
 7387TIP3    H143576   4.373   6.228  12.787 -2.4552 -3.0194 -0.6488
 7387TIP3    H243577   4.327   6.311  12.905  1.0067  0.5691 -1.6052
 7388TIP3   OH243578   6.507   6.223   4.758 -0.2757  0.2227  0.1291
 7388TIP3    H143579   6.440   6.291   4.765  0.8230  1.4282 -0.6030
 7388TIP3    H243580   6.583   6.261   4.802  0.1285 -0.8482  0.3639
 7389TIP3   OH243581   5.600   5.875  11.149 -0.1059 -0.3361  0.6938
 7389TIP3    H143582   5.683   5.852  11.191  0.8785  2.4848  0.5227
 7389TIP3    H243583   5.534   5.857  11.216  0.7297 -1.6843  1.1946
 7390TIP3   OH243584   3.764   0.474  12.301  0.3848 -0.1777 -0.4215
 7390TIP3    H143585   3.684   0.426  12.279 -0.4047  1.3823 -1.0768
 7390TIP3    H243586   3.816   0.411  12.351 -0.8813 -1.4980 -0.6877
 7391TIP3   OH243587   1.551   3.162   2.802  0.7777  0.1126  0.2022
 7391TIP3    H143588   1.504   3.228   2.751  0.9797 -0.2076 -0.4077
 7391TIP3    H243589   1.553   3.198   2.891  2.3731  1.7748 -0.4359
 7392TIP3   OH243590   3.829   4.909  15.495 -0.0038 -0.3092  0.0299
 7392TIP3    H143591   3.826   4.863  15.411  0.7703 -0.8744  0.3045
 7392TIP3    H243592   3.739   4.903  15.529 -0.1679 -0.6487 -0.4555
 7393TIP3   OH243593   1.209   2.564   3.563  0.4543 -0.3262 -0.1715
 7393TIP3    H143594   1.145   2.582   3.494  0.3680 -0.0358 -0.0155
 7393TIP3    H243595   1.172   2.490   3.611  0.2286 -0.1510 -0.0739
 7394TIP3   OH243596   0.425   1.454  15.605  0.2495 -0.1854  0.0923
 7394TIP3    H143597   0.453   1.519  15.669 -0.2144  0.2017 -0.0950
 7394TIP3    H243598   0.429   1.370  15.651 -1.0221  0.1995  0.9215
 7395TIP3   OH243599   4.611   3.438  15.624  0.5637  0.3778  0.3887
 7395TIP3    H143600   4.631   3.435  15.531 -0.1561 -1.5974  0.2548
 7395TIP3    H243601   4.547   3.509  15.633  2.9385  2.6986 -0.0806
 7396TIP3   OH243602   4.859   1.053  14.536 -0.6020  0.4509  0.0098
 7396TIP3    H143603   4.766   1.033  14.543 -0.7928  1.3714  0.3367
 7396TIP3    H243604   4.883   1.026  14.447 -1.0901 -0.1232  0.0489
 7397TIP3   OH243605   0.234   4.886   0.313  0.0801  0.1820 -0.1655
 7397TIP3    H143606   0.274   4.903   0.228 -0.3801  2.3524  0.0031
 7397TIP3    H243607   0.262   4.959   0.368 -1.7293  0.2095  0.7898
 7398TIP3   OH243608   0.011   1.838   5.026  0.3620 -0.0975 -0.0814
 7398TIP3    H143609  -0.072   1.796   5.002 -0.0965  0.4425  0.5092
 7398TIP3    H243610   0.078   1.771   5.010 -0.1118 -0.3402 -1.1492
 7399TIP3   OH243611   1.946   2.528   2.162  0.1827 -0.3650  0.1073
 7399TIP3    H143612   1.946   2.458   2.097 -1.0158 -1.1184  0.8776
 7399TIP3    H243613   1.867   2.579   2.143 -1.4832 -1.9347  2.2747
 7400TIP3   OH243614   4.250   3.517  11.856  0.0450  0.2076 -0.7061
 7400TIP3    H143615   4.324   3.551  11.907 -0.6420  0.6857  0.0063
 7400TIP3    H243616   4.192   3.593  11.845 -0.8502 -0.4021 -0.3143
 7401TIP3   OH243617   4.604   5.472   5.478 -0.4864 -0.7177 -0.0063
 7401TIP3    H143618   4.584   5.524   5.556 -0.1235 -0.2570 -0.2107
 7401TIP3    H243619   4.519   5.444   5.445 -0.8562  1.3470 -0.9633
 7402TIP3   OH243620   5.352   0.530   2.059 -0.3743 -0.6495  0.4378
 7402TIP3    H143621   5.355   0.610   2.006 -0.6174 -1.3665 -0.6933
 7402TIP3    H243622   5.259   0.514   2.073 -0.3123  0.4676  2.6091
 7403TIP3   OH243623   5.124   3.603   5.230 -0.1279  0.0936 -0.2479
 7403TIP3    H143624   5.103   3.685   5.276  1.2694  0.7211 -0.6803
 7403TIP3    H243625   5.092   3.617   5.141 -0.6760 -0.1917 -0.1035
 7404TIP3   OH243626   0.153   1.298  15.556  0.4694 -0.3304 -0.0462
 7404TIP3    H143627   0.061   1.307  15.579  0.2572  0.8885 -1.2469
 7404TIP3    H243628   0.200   1.346  15.624  0.2223 -0.8192  0.4778
 7405TIP3   OH243629   6.393   3.291  14.123  1.3200  0.0142  0.5195
 7405TIP3    H143630   6.327   3.318  14.059  0.6475  0.2316  1.2823
 7405TIP3    H243631   6.474   3.284  14.073  0.6102 -0.8563 -0.5731
 7406TIP3   OH243632   6.197   2.327  15.107 -0.3891  0.4341 -0.2908
 7406TIP3    H143633   6.130   2.290  15.166 -0.6323 -0.3242 -1.0163
 7406TIP3    H243634   6.188   2.276  15.027  1.5890 -0.2096 -0.1557
 7407TIP3   OH243635   4.544   6.196   3.488  0.4371  0.3056  0.4939
 7407TIP3    H143636   4.536   6.150   3.405 -0.7607  0.4148  0.5364
 7407TIP3    H243637   4.625   6.161   3.527 -1.3354 -3.2595  1.4331
 7408TIP3   OH243638   2.005   3.062  11.619 -0.0100  0.0801 -0.6131
 7408TIP3    H143639   1.972   3.087  11.533  0.0921 -0.5919 -0.8486
 7408TIP3    H243640   2.099   3.054  11.607  0.0463  0.3192 -0.3511
 7409TIP3   OH243641   3.154   6.020   6.093  0.8221  0.0641  0.2857
 7409TIP3    H143642   3.239   6.049   6.061  1.0309  1.0076  1.6112
 7409TIP3    H243643   3.174   5.968   6.171  0.3731 -2.7787 -1.3601
 7410TIP3   OH243644   1.394   6.089  12.924  0.4675 -0.4633  0.2415
 7410TIP3    H143645   1.369   5.997  12.915  0.0086 -0.4883  1.5446
 7410TIP3    H243646   1.359   6.115  13.009 -1.8596  1.7328 -1.2537
 7411TIP3   OH243647   2.046   1.889  11.454 -0.1063 -0.1498 -0.0295
 7411TIP3    H143648   2.007   1.885  11.541 -0.4587  0.0103 -0.1751
 7411TIP3    H243649   2.130   1.932  11.467  0.3333 -1.1181  0.3966
 7412TIP3   OH243650   4.726   1.784   2.580 -0.0094 -0.1505 -0.4351
 7412TIP3    H143651   4.792   1.753   2.517 -0.1556 -1.0794 -0.1431
 7412TIP3    H243652   4.642   1.770   2.536 -0.0322  1.4957 -1.0116
 7413TIP3   OH243653   4.250   2.378   3.154  0.0838  0.5173 -0.0567
 7413TIP3    H143654   4.202   2.407   3.077  0.8409  1.3622 -0.2197
 7413TIP3    H243655   4.211   2.426   3.227 -1.7765 -1.5115  0.3922
 7414TIP3   OH243656   5.639   3.776   0.861  0.2048 -0.1220 -1.1765
 7414TIP3    H143657   5.643   3.856   0.808 -0.0962 -0.6867 -2.0790
 7414TIP3    H243658   5.692   3.796   0.938 -0.5091  1.2190 -1.0040
 7415TIP3   OH243659   2.620   0.407   5.686 -0.1470  0.4959  0.7252
 7415TIP3    H143660   2.558   0.411   5.613  1.0523  3.1588 -0.3004
 7415TIP3    H243661   2.705   0.391   5.645  0.5482  2.0059  1.4647
 7416TIP3   OH243662   3.416   4.925  16.718  0.2701 -0.3250  0.3255
 7416TIP3    H143663   3.414   4.868  16.641  2.4104 -0.4236  0.2591
 7416TIP3    H243664   3.335   4.975  16.714  0.4090 -0.1962 -2.1111
 7417TIP3   OH243665   2.706   5.416   4.206  0.2072 -0.0621  0.0851
 7417TIP3    H143666   2.678   5.349   4.143  0.6744  1.7203 -2.1601
 7417TIP3    H243667   2.800   5.402   4.217  0.4560  0.6599 -0.9963
 7418TIP3   OH243668   2.947   0.183  11.955 -0.2193  0.2519 -0.4568
 7418TIP3    H143669   2.893   0.210  11.881  0.0272 -2.0312 -1.5460
 7418TIP3    H243670   3.035   0.174  11.919  0.0170 -0.3548  0.2424
 7419TIP3   OH243671   6.741   0.053   3.762  0.7832 -0.0022  0.3024
 7419TIP3    H143672   6.772  -0.014   3.701  1.1290  0.8265 -0.4554
 7419TIP3    H243673   6.646   0.041   3.763  0.8521 -0.5784  0.2679
 7420TIP3   OH243674   4.090   4.042   3.119 -0.2078 -0.3662 -0.4362
 7420TIP3    H143675   4.031   4.096   3.067 -0.7863 -1.4587 -0.9606
 7420TIP3    H243676   4.055   4.047   3.208  1.1598  2.0276  0.0434
 7421TIP3   OH243677   3.957   1.517   0.995  0.0645 -0.1786 -0.0868
 7421TIP3    H143678   3.950   1.565   1.077 -0.7740  0.9683 -0.8146
 7421TIP3    H243679   3.868   1.485   0.978  0.2595 -0.5177 -0.4877
 7422TIP3   OH243680   6.376   4.258   4.503  0.4627 -0.0590  0.1326
 7422TIP3    H143681   6.466   4.274   4.476  0.5640  0.9859  1.0348
 7422TIP3    H243682   6.323   4.312   4.444  0.4489 -0.3451 -0.1203
 7423TIP3   OH243683   3.574   1.192   0.013 -0.2562  0.3379 -0.0831
 7423TIP3    H143684   3.629   1.252   0.063 -0.1620 -0.0818  0.3271
 7423TIP3    H243685   3.617   1.107   0.022 -0.1579  0.2747 -1.0006
 7424TIP3   OH243686   1.425   5.361   2.438 -0.6294 -0.4428  0.2470
 7424TIP3    H143687   1.424   5.456   2.450 -2.2135 -0.2618 -0.9761
 7424TIP3    H243688   1.454   5.326   2.522 -0.1791  1.1176  0.7624
 7425TIP3   OH243689   5.597   3.407  16.923 -0.6972  0.5256 -0.0743
 7425TIP3    H143690   5.578   3.358  17.003 -0.1307 -0.2330 -0.3939
 7425TIP3    H243691   5.629   3.341  16.861 -0.9547  1.1315 -0.8699
 7426TIP3   OH243692   3.609   6.679   2.094  0.1160 -0.0514  0.5126
 7426TIP3    H143693   3.705   6.677   2.095  0.2945 -1.4486 -3.3256
 7426TIP3    H243694   3.586   6.668   2.001 -3.8033 -0.5858  1.3936
 7427TIP3   OH243695   2.581   1.403  13.812  0.1482  0.1432  0.0565
 7427TIP3    H143696   2.500   1.381  13.857  1.2011  0.1840  2.0605
 7427TIP3    H243697   2.586   1.498  13.815 -0.2632  0.2186 -1.0975
 7428TIP3   OH243698   0.308   5.824  16.182 -0.1438  0.3180 -0.1375
 7428TIP3    H143699   0.334   5.769  16.257 -1.3547  1.1596  0.9350
 7428TIP3    H243700   0.311   5.764  16.107  0.1812 -0.7954  0.7273
 7429TIP3   OH243701   6.200   2.130  13.839  0.2020  0.1897 -0.0312
 7429TIP3    H143702   6.228   2.220  13.858 -0.3447  0.5509 -0.9036
 7429TIP3    H243703   6.275   2.092  13.793  0.6958 -0.0215  0.9231
 7430TIP3   OH243704   2.380   1.634   6.541 -0.7858 -0.3710  0.5094
 7430TIP3    H143705   2.399   1.673   6.626  0.8660  0.6785 -0.2751
 7430TIP3    H243706   2.339   1.704   6.491 -0.4750 -0.5434  0.0036
 7431TIP3   OH243707   4.288   3.451   3.779 -0.0789  0.8402 -0.3864
 7431TIP3    H143708   4.259   3.360   3.787  4.1679 -0.7296  0.0704
 7431TIP3    H243709   4.220   3.502   3.822 -2.3676 -2.1426 -0.1197
 7432TIP3   OH243710   3.175   0.235   6.627  0.3041  0.3973 -0.0566
 7432TIP3    H143711   3.135   0.303   6.683  2.0380  0.7835  0.7678
 7432TIP3    H243712   3.154   0.153   6.671  0.2855  0.5857  0.2931
 7433TIP3   OH243713   5.052   2.054   3.279 -0.1865  0.6690 -0.0230
 7433TIP3    H143714   4.959   2.063   3.298 -0.4892  1.0962 -1.5528
 7433TIP3    H243715   5.070   2.122   3.214  0.9434 -0.1300 -0.5893
 7434TIP3   OH243716   0.222   1.681  13.236  0.6180 -0.5186 -0.4914
 7434TIP3    H143717   0.280   1.675  13.312 -1.6059  0.2536  1.3814
 7434TIP3    H243718   0.157   1.612  13.250  1.3245 -1.7870 -2.8550
 7435TIP3   OH243719   2.840   2.234  14.705 -0.0262 -0.4903  0.4686
 7435TIP3    H143720   2.831   2.302  14.638  1.0188  0.3192  1.1123
 7435TIP3    H243721   2.762   2.180  14.696 -1.5052  1.5188  0.7598
 7436TIP3   OH243722   2.729   4.466  12.338 -0.0431  1.0185 -0.2073
 7436TIP3    H143723   2.777   4.473  12.255 -0.8649 -0.1077 -0.7937
 7436TIP3    H243724   2.775   4.398  12.387 -0.7670  0.2334 -0.5969
 7437TIP3   OH243725   4.670   3.207   0.657 -0.3196  0.3789 -0.5365
 7437TIP3    H143726   4.601   3.264   0.693 -0.0459  1.0057 -0.9932
 7437TIP3    H243727   4.721   3.265   0.600  1.5151  0.3232  0.9679
 7438TIP3   OH243728   3.209   5.002  16.923  0.0078 -0.0619  0.0195
 7438TIP3    H143729   3.212   5.011  16.828 -2.2098 -0.2474 -0.1360
 7438TIP3    H243730   3.227   5.090  16.957 -0.1101  0.2128 -0.6180
 7439TIP3   OH243731   1.155   1.050   1.745 -0.0546 -0.3783  0.1046
 7439TIP3    H143732   1.177   0.980   1.806  0.5534 -0.9333 -0.7225
 7439TIP3    H243733   1.135   1.125   1.801  1.5827 -0.5376  0.9841
 7440TIP3   OH243734   4.847   1.020   1.835  0.1033  0.3448 -0.5160
 7440TIP3    H143735   4.873   0.949   1.776 -0.9323 -0.7765  0.3407
 7440TIP3    H243736   4.900   1.007   1.913 -0.0696  0.5342 -0.3658
 7441TIP3   OH243737   0.588   1.816  12.939  0.6371  0.1833  0.4258
 7441TIP3    H143738   0.520   1.875  12.973 -1.8200 -1.3644 -1.4999
 7441TIP3    H243739   0.579   1.737  12.991  2.7428  0.7503  1.8049
 7442TIP3   OH243740   2.902   6.407  13.748 -0.3155  0.2395 -0.4100
 7442TIP3    H143741   2.981   6.357  13.769 -0.7755  0.0135  0.8861
 7442TIP3    H243742   2.882   6.455  13.828 -0.7281  1.3747 -1.1661
 7443TIP3   OH243743   5.356   2.696  16.143  0.1445  0.0463  0.2827
 7443TIP3    H143744   5.304   2.645  16.082  0.2411  0.2528  0.0253
 7443TIP3    H243745   5.440   2.650  16.149  1.1642  1.4245 -1.8269
 7444TIP3   OH243746   2.103   4.067  15.609 -0.5703 -0.0149  0.5097
 7444TIP3    H143747   2.197   4.085  15.603 -0.6329  1.3844  2.6930
 7444TIP3    H243748   2.083   4.017  15.530  2.1840 -1.1788  0.4649
 7445TIP3   OH243749   2.970   3.621  15.118 -0.0935 -0.2399  0.4065
 7445TIP3    H143750   2.906   3.553  15.138 -0.3487  0.3498  1.7336
 7445TIP3    H243751   3.021   3.630  15.199  1.6648 -0.6678 -0.6010
 7446TIP3   OH243752   3.480   5.061  12.854  0.4208  0.4974  0.2064
 7446TIP3    H143753   3.429   5.101  12.784  0.3910  2.4268  1.2831
 7446TIP3    H243754   3.571   5.073  12.828  0.4026  0.7389  0.2581
 7447TIP3   OH243755   2.583   2.284   5.100 -0.0167 -0.0365  0.0285
 7447TIP3    H143756   2.542   2.317   5.179 -0.7253 -0.0030 -0.3435
 7447TIP3    H243757   2.663   2.241   5.130  0.6067  1.4515  0.5876
 7448TIP3   OH243758   4.114   2.715   1.000  0.4114 -0.1565  0.1831
 7448TIP3    H143759   4.114   2.791   0.943 -1.5145 -0.7599 -0.6956
 7448TIP3    H243760   4.107   2.751   1.088  1.4501  0.7186 -0.0677
 7449TIP3   OH243761   2.872   1.941   5.683  0.1621  0.4624 -0.0292
 7449TIP3    H143762   2.949   1.911   5.635  0.2889 -1.4748  1.2855
 7449TIP3    H243763   2.905   1.961   5.771 -0.9174 -1.1477  0.7933
 7450TIP3   OH243764   0.811   4.830  15.149 -0.0747  0.2926  0.4139
 7450TIP3    H143765   0.836   4.918  15.179  0.3013  0.4547 -0.3390
 7450TIP3    H243766   0.747   4.800  15.213 -1.9324  2.0327 -0.5275
 7451TIP3   OH243767   1.331   1.874  11.902 -0.2122 -0.0835  0.0066
 7451TIP3    H143768   1.280   1.924  11.838 -1.2853  0.7180  1.4588
 7451TIP3    H243769   1.420   1.876  11.867 -0.2477  2.6486 -0.1540
 7452TIP3   OH243770   4.013   4.666   0.893  0.6280 -0.5873  0.3247
 7452TIP3    H143771   4.064   4.747   0.886 -0.2315 -0.0028  0.6459
 7452TIP3    H243772   4.031   4.635   0.982  2.0094 -1.4962 -0.2300
 7453TIP3   OH243773   2.295   0.222  17.055 -0.5586  0.2351 -0.1219
 7453TIP3    H143774   2.363   0.271  17.100 -0.5826  0.1321  0.0282
 7453TIP3    H243775   2.342   0.155  17.005 -0.5737 -0.1669  0.3870
 7454TIP3   OH243776   6.234   0.220   4.863 -0.3288 -0.1741 -0.2119
 7454TIP3    H143777   6.145   0.247   4.883 -0.4270  0.1649 -1.0705
 7454TIP3    H243778   6.283   0.236   4.944 -0.9582  0.0257  0.1296
 7455TIP3   OH243779   6.117   1.535   0.462 -0.2206  0.2434  0.2406
 7455TIP3    H143780   6.087   1.572   0.545 -0.5517 -1.2979  0.8500
 7455TIP3    H243781   6.070   1.452   0.454  1.2047 -0.5404 -0.5428
 7456TIP3   OH243782   0.624   2.457   5.972 -0.3879  0.1577 -0.1625
 7456TIP3    H143783   0.577   2.447   6.055  1.9066 -3.4056  0.9344
 7456TIP3    H243784   0.573   2.406   5.910 -1.8997  2.5195 -0.9845
 7457TIP3   OH243785   1.689   1.718   0.392  0.5948  0.0820 -0.6276
 7457TIP3    H143786   1.733   1.717   0.478 -2.5565 -0.6119  1.1458
 7457TIP3    H243787   1.629   1.643   0.395  1.4181 -0.8791 -4.1373
 7458TIP3   OH243788   6.467   3.490   4.330 -0.4250 -0.2449  0.2481
 7458TIP3    H143789   6.501   3.438   4.403 -2.4538 -1.3026  0.5260
 7458TIP3    H243790   6.545   3.519   4.283  0.8577 -1.9779  1.1787
 7459TIP3   OH243791   5.543   2.789   6.783  0.2093 -0.1570  0.6862
 7459TIP3    H143792   5.583   2.870   6.751 -0.9461  0.4389  0.6887
 7459TIP3    H243793   5.451   2.797   6.759  0.0874 -1.5213  0.6153
 7460TIP3   OH243794   6.272   0.914  13.930 -0.0492 -0.4842  0.1772
 7460TIP3    H143795   6.356   0.954  13.951 -0.1944  0.6002 -1.2107
 7460TIP3    H243796   6.210   0.956  13.989  0.0048  0.4741 -0.4324
 7461TIP3   OH243797   4.503   6.369   1.648 -0.4018  0.3372 -0.5904
 7461TIP3    H143798   4.425   6.326   1.684  0.2993 -0.8226 -0.4282
 7461TIP3    H243799   4.514   6.329   1.561  0.0652  0.4308 -0.5736
 7462TIP3   OH243800   6.699   1.404  11.668  0.2742 -0.1735  0.5300
 7462TIP3    H143801   6.627   1.434  11.613  1.9410  0.9849 -1.1318
 7462TIP3    H243802   6.691   1.308  11.667 -0.7347 -0.0988 -0.2948
 7463TIP3   OH243803   2.870   6.533   0.514  0.7794 -0.5282  0.0711
 7463TIP3    H143804   2.800   6.482   0.473  0.8479 -0.6159  0.0628
 7463TIP3    H243805   2.847   6.536   0.607 -1.1028  2.3746 -0.3768
 7464TIP3   OH243806   5.611   0.730   5.604  0.1323 -0.7812 -0.3565
 7464TIP3    H143807   5.533   0.701   5.652 -0.2681 -0.7253 -0.9660
 7464TIP3    H243808   5.595   0.704   5.513  0.8738 -0.8624 -0.4708
 7465TIP3   OH243809   0.834   0.458  13.249 -0.1490  0.1151  0.0319
 7465TIP3    H143810   0.811   0.549  13.263  0.9555  0.4103  0.0398
 7465TIP3    H243811   0.772   0.408  13.303 -0.3939  0.8819  0.4659
 7466TIP3   OH243812   2.331   0.498  13.942  0.0584 -0.0426  0.5194
 7466TIP3    H143813   2.389   0.564  13.904 -1.3689  1.0521  0.1637
 7466TIP3    H243814   2.360   0.488  14.032  1.1254  0.0740  0.2001
 7467TIP3   OH243815   0.229   4.446  16.471 -0.4711  0.2213 -0.6624
 7467TIP3    H143816   0.159   4.484  16.418 -2.3700  0.1142  1.6142
 7467TIP3    H243817   0.259   4.518  16.526  0.6746  0.0465 -1.0317
 7468TIP3   OH243818   5.494   2.633   0.403  0.4444  0.2940  0.5627
 7468TIP3    H143819   5.585   2.603   0.404  0.5557  0.6222  0.2574
 7468TIP3    H243820   5.443   2.552   0.411  0.7535  0.0630  0.2523
 7469TIP3   OH243821   3.595   3.944  13.826  0.1448 -0.2447  0.0635
 7469TIP3    H143822   3.690   3.945  13.832  0.0857 -1.3318  1.4440
 7469TIP3    H243823   3.567   3.875  13.885 -1.6170  1.4633  1.3632
 7470TIP3   OH243824   6.468   4.508   6.390 -0.2779 -0.0507 -0.1313
 7470TIP3    H143825   6.466   4.556   6.307  1.7688  1.1647  0.4669
 7470TIP3    H243826   6.541   4.447   6.381  0.1830  0.3340  0.9083
 7471TIP3   OH243827   0.129   6.330   2.148 -0.0867 -0.8108 -0.8670
 7471TIP3    H143828   0.216   6.367   2.166 -0.4447 -0.7609  0.8875
 7471TIP3    H243829   0.077   6.405   2.119 -0.3460 -0.2000  1.0467
 7472TIP3   OH243830   6.162   1.963   1.407  1.0740 -0.2023 -0.6020
 7472TIP3    H143831   6.189   1.875   1.433 -0.3398 -0.9021 -1.3617
 7472TIP3    H243832   6.134   1.952   1.316 -0.3356  0.7458 -0.3067
 7473TIP3   OH243833   1.152   5.382  11.698  0.2490 -0.3761 -0.1622
 7473TIP3    H143834   1.082   5.407  11.759 -1.3373  0.9488 -2.3726
 7473TIP3    H243835   1.117   5.305  11.653  0.7630 -0.4669 -0.4146
 7474TIP3   OH243836   5.404   5.899   1.635  0.2075  1.0365 -0.0073
 7474TIP3    H143837   5.378   5.910   1.544  3.1100  0.4127 -1.0011
 7474TIP3    H243838   5.427   5.807   1.643 -0.1804  1.0368  1.4451
 7475TIP3   OH243839   1.975   0.285   5.105  0.2117 -0.6450  0.5457
 7475TIP3    H143840   1.887   0.309   5.076 -0.4730 -1.8347  1.5597
 7475TIP3    H243841   1.963   0.206   5.158  1.6931  0.0381  1.9984
 7476TIP3   OH243842   4.309   0.865   5.286 -0.0282  0.6841 -0.8019
 7476TIP3    H143843   4.303   0.960   5.298 -2.9229  0.4083  1.1010
 7476TIP3    H243844   4.245   0.829   5.348  0.6138 -2.5119 -1.7864
 7477TIP3   OH243845   4.497   1.322  10.760  0.3038 -0.0175  0.0022
 7477TIP3    H143846   4.565   1.257  10.741  1.3749  1.0525  0.0582
 7477TIP3    H243847   4.417   1.286  10.721  0.3800 -2.3463  1.8010
 7478TIP3   OH243848   4.437   6.685  16.879  0.3713 -0.5327  0.1571
 7478TIP3    H143849   4.472   6.760  16.927 -1.9053 -0.5410  1.9951
 7478TIP3    H243850   4.440   6.613  16.942  1.5892 -1.8086 -1.2683
 7479TIP3   OH243851   6.574   0.487   2.030  0.2281 -0.1320 -0.3229
 7479TIP3    H143852   6.624   0.479   1.949 -2.0946  0.8902 -1.9838
 7479TIP3    H243853   6.589   0.578   2.058 -1.6643  0.6653 -1.6393
 7480TIP3   OH243854   1.410   1.938  14.852 -0.0842 -0.2900  0.6052
 7480TIP3    H143855   1.394   1.849  14.883 -0.1057 -0.0042  1.4392
 7480TIP3    H243856   1.353   1.947  14.775 -1.7911 -0.2750  1.8157
 7481TIP3   OH243857   5.873   1.837  14.304 -0.0279  0.2772  0.8909
 7481TIP3    H143858   5.881   1.741  14.304  1.2430  0.3585  2.0313
 7481TIP3    H243859   5.918   1.864  14.224  3.3014  0.0944  2.4939
 7482TIP3   OH243860   5.890   4.364  16.954  0.0357 -0.1854 -0.2522
 7482TIP3    H143861   5.832   4.305  16.906  0.1503 -0.5903  0.0949
 7482TIP3    H243862   5.837   4.397  17.026 -0.2586  0.7314 -0.8672
 7483TIP3   OH243863   5.826   3.789  12.478 -0.1386 -0.1351  0.5761
 7483TIP3    H143864   5.903   3.739  12.504  0.9274 -1.4890 -4.1882
 7483TIP3    H243865   5.859   3.878  12.464  0.2792 -0.3871 -0.0998
 7484TIP3   OH243866   0.904   4.352  13.913 -0.0493  0.6918  0.0006
 7484TIP3    H143867   0.865   4.269  13.940  0.0948  0.6910  0.2059
 7484TIP3    H243868   0.831   4.414  13.912 -0.2548  0.4473 -0.6564
 7485TIP3   OH243869   3.498   5.317   2.129  0.3044  0.1930  0.5765
 7485TIP3    H143870   3.455   5.248   2.179  0.1389 -0.4952 -0.4892
 7485TIP3    H243871   3.582   5.331   2.172  0.2222 -0.4913  0.9543
 7486TIP3   OH243872   0.071   5.006   1.934  0.7121 -0.2570  0.5074
 7486TIP3    H143873   0.087   5.078   1.874  0.8051  0.4166  1.3236
 7486TIP3    H243874   0.068   4.928   1.878 -1.3311  0.5749 -0.6311
 7487TIP3   OH243875   1.702   6.175   6.262  0.8793 -0.2384 -0.5454
 7487TIP3    H143876   1.756   6.096   6.264  0.5918 -0.4332 -0.3669
 7487TIP3    H243877   1.761   6.244   6.232  1.7675 -0.0502  1.4843
 7488TIP3   OH243878   0.777   3.070  12.192 -0.1582  0.1096 -0.0659
 7488TIP3    H143879   0.703   3.090  12.135 -0.7158 -1.3517  0.0904
 7488TIP3    H243880   0.737   3.047  12.276  0.4963 -0.2204  0.1627
 7489TIP3   OH243881   3.467   4.557   1.493  0.6100 -0.0065 -0.2882
 7489TIP3    H143882   3.417   4.478   1.474 -0.9883  0.4429  1.7154
 7489TIP3    H243883   3.423   4.626   1.442  1.3936 -0.1918 -1.2529
 7490TIP3   OH243884   2.156   0.720   0.997  0.0020  0.2285 -0.1254
 7490TIP3    H143885   2.068   0.754   1.013 -0.4761 -1.6391  1.5741
 7490TIP3    H243886   2.215   0.791   1.022 -0.9529  1.9220 -2.3353
 7491TIP3   OH243887   1.386   3.027  14.555 -0.8229  0.2212  0.7025
 7491TIP3    H143888   1.404   3.067  14.469 -0.5817  0.2143  0.7492
 7491TIP3    H243889   1.401   3.098  14.618 -0.9083  0.2001  0.7466
 7492TIP3   OH243890   5.259   3.002  12.439  0.1250 -0.4900 -0.5471
 7492TIP3    H143891   5.343   3.019  12.397  0.8178 -0.5990  0.7238
 7492TIP3    H243892   5.272   2.920  12.486 -0.0730  0.4071  1.1544
 7493TIP3   OH243893   6.520   0.888  14.252  0.4187 -0.4502  0.2381
 7493TIP3    H143894   6.517   0.900  14.157  1.5907  0.5208  0.2974
 7493TIP3    H243895   6.512   0.976  14.288 -1.5606 -0.9456  1.1340
 7494TIP3   OH243896   2.427   0.423  13.400 -0.1502 -0.8897  0.2545
 7494TIP3    H143897   2.377   0.379  13.468  0.0694 -0.3020  0.8069
 7494TIP3    H243898   2.427   0.515  13.425 -0.6775 -0.5466 -0.9310
 7495TIP3   OH243899   3.303   6.226   0.726 -0.0540  0.3687 -0.5147
 7495TIP3    H143900   3.396   6.235   0.705  0.2933  0.4011  0.9575
 7495TIP3    H243901   3.300   6.158   0.793 -0.8285  1.9593  1.1308
 7496TIP3   OH243902   4.402   1.521   3.499  0.0245  0.4853 -0.5907
 7496TIP3    H143903   4.403   1.425   3.501 -0.5312  0.4855  0.7181
 7496TIP3    H243904   4.489   1.547   3.529  0.9861  0.4275 -3.0943
 7497TIP3   OH243905   4.889   2.376  16.276 -0.7247 -0.9431 -0.0407
 7497TIP3    H143906   4.915   2.314  16.208 -1.0887 -0.3035 -0.7889
 7497TIP3    H243907   4.812   2.336  16.316  0.2398 -1.9326  0.8881
 7498TIP3   OH243908   2.927   0.842  15.594  0.1636  0.0974 -0.5587
 7498TIP3    H143909   2.921   0.785  15.518 -1.4403  0.4306 -0.7195
 7498TIP3    H243910   2.862   0.808  15.656  1.4148 -0.1575  0.6766
 7499TIP3   OH243911   3.588   6.200  14.167  0.1808  0.2604 -0.2383
 7499TIP3    H143912   3.659   6.236  14.219 -1.3337 -0.2234  2.3579
 7499TIP3    H243913   3.555   6.126  14.219 -1.9866  0.2536 -1.4829
 7500TIP3   OH243914   0.044   1.894  14.682 -0.4413 -0.0157  0.1872
 7500TIP3    H143915   0.049   1.986  14.710 -0.4009  0.1297 -0.2769
 7500TIP3    H243916  -0.027   1.893  14.618  0.5314  0.0017 -0.9341
 7501TIP3   OH243917   6.349   5.388   0.892  0.0375 -0.4019 -0.0316
 7501TIP3    H143918   6.285   5.322   0.916  0.4698 -0.5900  0.6249
 7501TIP3    H243919   6.405   5.345   0.828 -2.1177  0.6101 -2.7987
 7502TIP3   OH243920   5.102   4.493  14.396 -0.1060 -0.2479 -0.5263
 7502TIP3    H143921   5.059   4.452  14.320 -1.8709  0.9285 -0.2175
 7502TIP3    H243922   5.071   4.442  14.471  0.2977 -0.3589 -0.4326
 7503TIP3   OH243923   2.723   4.237  11.007 -0.3177  0.1678  0.1288
 7503TIP3    H143924   2.809   4.200  10.986 -1.8998 -3.7732 -0.2299
 7503TIP3    H243925   2.706   4.299  10.936  1.7245  0.1537 -0.4390
 7504TIP3   OH243926   5.988   1.613   0.670  0.3421 -0.4444  0.1808
 7504TIP3    H143927   5.968   1.539   0.727 -1.3822 -0.5029 -0.4123
 7504TIP3    H243928   5.987   1.690   0.727 -0.3789 -0.6200  0.4193
 7505TIP3   OH243929   2.832   4.328  16.625 -0.0221 -0.7188  0.6242
 7505TIP3    H143930   2.753   4.381  16.633  1.0884  0.7711  2.4171
 7505TIP3    H243931   2.853   4.330  16.531 -2.1826 -1.3535  0.0626
 7506TIP3   OH243932   2.138   5.270  13.539  0.8977  0.7017  0.0960
 7506TIP3    H143933   2.218   5.232  13.502  0.3214 -0.5299  0.0556
 7506TIP3    H243934   2.097   5.315  13.465 -0.4086 -2.0228 -0.9739
 7507TIP3   OH243935   6.344   4.367   0.505 -0.1040 -0.0639 -0.1839
 7507TIP3    H143936   6.425   4.377   0.555  0.3174 -0.1188 -0.8428
 7507TIP3    H243937   6.373   4.353   0.415 -0.8248 -0.8468 -0.3086
 7508TIP3   OH243938   3.366   6.068   2.272 -0.1476  0.3281 -0.2795
 7508TIP3    H143939   3.457   6.047   2.254  0.5303  2.6290  0.1472
 7508TIP3    H243940   3.368   6.113   2.356 -1.2649  2.7925 -1.4632
 7509TIP3   OH243941   2.767   6.645  14.743  0.0443 -0.7070 -0.1184
 7509TIP3    H143942   2.693   6.679  14.691  0.1858  0.5178  0.4476
 7509TIP3    H243943   2.738   6.654  14.834 -0.0463 -2.4781  0.0664
 7510TIP3   OH243944   5.443   3.272   5.194 -1.0916  0.0320  0.5932
 7510TIP3    H143945   5.361   3.293   5.238 -0.7899  1.1130  0.6538
 7510TIP3    H243946   5.495   3.352   5.199 -0.1938 -0.5089  0.1876
 7511TIP3   OH243947   2.315   4.291   0.014 -0.8350  0.2114  0.4208
 7511TIP3    H143948   2.375   4.336   0.074 -0.0799  0.8779 -0.7691
 7511TIP3    H243949   2.345   4.200   0.013 -0.8377  0.2018  1.0188
 7512TIP3   OH243950   0.130   4.986  14.626  0.3720 -0.7837  0.0999
 7512TIP3    H143951   0.040   5.017  14.620  0.8901  0.4615 -2.3146
 7512TIP3    H243952   0.180   5.064  14.652  0.8538 -1.2776  0.6704
 7513TIP3   OH243953   4.218   4.367  14.580  0.7178 -0.1496 -0.0552
 7513TIP3    H143954   4.285   4.388  14.515  1.5242 -1.0580  0.4754
 7513TIP3    H243955   4.137   4.363  14.529  0.8766  1.8181 -0.5665
 7514TIP3   OH243956   4.682   5.574   0.604 -0.0764  0.1976 -0.3238
 7514TIP3    H143957   4.642   5.490   0.583 -0.3505  0.4791 -0.9588
 7514TIP3    H243958   4.694   5.572   0.699 -2.0161  0.2622 -0.0377
 7515TIP3   OH243959   0.907   2.334   1.657 -0.3332  0.2778  0.0616
 7515TIP3    H143960   0.830   2.293   1.619 -0.6784 -1.6723  2.5902
 7515TIP3    H243961   0.981   2.297   1.609 -0.8172 -0.9661  0.2398
 7516TIP3   OH243962   5.013   3.621   1.744  0.2398 -0.2062  0.1448
 7516TIP3    H143963   5.017   3.530   1.775  2.4793 -0.2587 -0.1522
 7516TIP3    H243964   5.067   3.670   1.806 -0.1404  0.7573 -0.2676
 7517TIP3   OH243965   5.500   1.145  15.667  0.2274 -0.9059 -1.1004
 7517TIP3    H143966   5.409   1.151  15.694  0.6944 -0.4410  0.5165
 7517TIP3    H243967   5.515   1.224  15.615  0.5040  0.8148  1.3889
 7518TIP3   OH243968   0.368   3.915   2.389  0.0004  0.1261  0.0879
 7518TIP3    H143969   0.322   3.984   2.437 -1.1008 -1.0216  0.7682
 7518TIP3    H243970   0.378   3.950   2.301  3.1123  2.7833  1.2935
 7519TIP3   OH243971   2.443   6.209   5.440  0.3292  0.6972  0.3740
 7519TIP3    H143972   2.363   6.242   5.400  0.5042  0.5500 -0.1073
 7519TIP3    H243973   2.417   6.128   5.483  0.5635 -0.3515 -1.3497
 7520TIP3   OH243974   4.217   6.376   5.629 -0.0565  0.5513 -0.1931
 7520TIP3    H143975   4.144   6.340   5.679 -0.7699  0.4892 -1.2281
 7520TIP3    H243976   4.214   6.329   5.545  0.3334  1.4903 -0.7548
 7521TIP3   OH243977   3.489   3.552   1.829  0.5550 -0.1399 -0.3483
 7521TIP3    H143978   3.445   3.513   1.905 -2.0617 -1.5939 -2.4490
 7521TIP3    H243979   3.580   3.525   1.838  0.5190  0.3463  2.5926
 7522TIP3   OH243980   5.181   4.924   3.509 -0.0845  0.1513 -0.1316
 7522TIP3    H143981   5.086   4.928   3.503 -0.1332 -1.0101 -0.3068
 7522TIP3    H243982   5.209   5.015   3.500 -1.1401  0.4336 -0.7561
 7523TIP3   OH243983   1.761   0.477   0.765 -0.2131 -0.5173  0.4399
 7523TIP3    H143984   1.785   0.488   0.673  0.9043 -0.9709  0.6684
 7523TIP3    H243985   1.783   0.386   0.785 -0.7809 -0.5251  1.0648
 7524TIP3   OH243986   3.646   0.288  14.623  0.5257 -0.2351 -0.2079
 7524TIP3    H143987   3.680   0.230  14.691 -1.2117 -1.7693 -0.5670
 7524TIP3    H243988   3.698   0.265  14.545  1.0154 -0.0559  0.0626
 7525TIP3   OH243989   5.367   0.234  12.928  0.6021 -0.1138  0.1554
 7525TIP3    H143990   5.421   0.224  12.849  1.4478 -1.6540  0.8893
 7525TIP3    H243991   5.297   0.170  12.917  0.6123 -0.1953  0.5651
 7526TIP3   OH243992   4.356   4.272   1.725  0.5849 -0.0687 -0.5166
 7526TIP3    H143993   4.429   4.284   1.665  1.4114 -1.1680  0.2360
 7526TIP3    H243994   4.391   4.293   1.812 -0.5874  1.4932 -0.3567
 7527TIP3   OH243995   5.687   1.607  13.313  1.0028 -0.2459  0.2784
 7527TIP3    H143996   5.609   1.661  13.297  1.3985  0.4611  0.6957
 7527TIP3    H243997   5.723   1.591  13.226  1.9387  1.7834  0.2289
 7528TIP3   OH243998   5.669   0.336  13.903  0.6498  0.1823 -0.2692
 7528TIP3    H143999   5.668   0.338  13.808  1.8945  2.2500 -0.3009
 7528TIP3    H244000   5.580   0.310  13.928  0.9066 -2.6349 -1.9470
 7529TIP3   OH244001   5.847   3.261  15.710 -0.0082 -0.6289  0.1210
 7529TIP3    H144002   5.896   3.323  15.765 -1.7958 -0.7177  1.9233
 7529TIP3    H244003   5.906   3.187  15.700  0.3689 -0.6364  2.0198
 7530TIP3   OH244004   2.531   3.696  12.146  0.2695 -0.0932 -0.2422
 7530TIP3    H144005   2.442   3.675  12.175 -0.2807  2.4686  0.2137
 7530TIP3    H244006   2.571   3.741  12.221  0.1538  3.2301 -1.9587
 7531TIP3   OH244007   5.430   2.475   5.730  0.0862 -0.0589  0.2558
 7531TIP3    H144008   5.489   2.452   5.802  1.6061 -0.3262 -1.0070
 7531TIP3    H244009   5.429   2.571   5.729  2.6550  0.0435 -1.2750
 7532TIP3   OH244010   5.223   4.316  15.450  0.6151  0.3675 -0.2816
 7532TIP3    H144011   5.285   4.243  15.453 -0.9095 -0.9476  2.0825
 7532TIP3    H244012   5.277   4.394  15.463  1.7955 -0.7398  1.8920
 7533TIP3   OH244013   5.133   0.686  17.109 -0.3597 -0.1368  0.5895
 7533TIP3    H144014   5.152   0.661  17.019  0.7512  1.4998  0.3126
 7533TIP3    H244015   5.220   0.696  17.150 -0.7679  1.2432  1.1952
 7534TIP3   OH244016   5.398   6.562  12.633 -0.1046  0.3971 -0.5154
 7534TIP3    H144017   5.371   6.500  12.700  0.5350 -0.6580 -1.2069
 7534TIP3    H244018   5.494   6.556  12.631 -0.1495 -1.0046 -2.7526
 7535TIP3   OH244019   4.426   3.319   4.789 -0.1776 -0.0272 -0.3774
 7535TIP3    H144020   4.390   3.334   4.877  1.8822  0.8950  0.3627
 7535TIP3    H244021   4.351   3.333   4.731 -1.6575 -0.9447  1.2205
 7536TIP3   OH244022   1.710   5.243   2.292  0.0660 -0.1978  0.1054
 7536TIP3    H144023   1.649   5.257   2.365 -0.5178  0.4769 -0.5056
 7536TIP3    H244024   1.774   5.313   2.300 -0.4636  0.3620 -0.5009
 7537TIP3   OH244025   6.416   5.444  15.195  0.4618 -0.6803  0.6605
 7537TIP3    H144026   6.414   5.370  15.135 -1.9039  0.3161 -0.6145
 7537TIP3    H244027   6.464   5.513  15.148 -1.4072  0.1063 -0.1653
 7538TIP3   OH244028   3.096   5.232  13.440  0.5030  0.0797  0.1863
 7538TIP3    H144029   3.072   5.316  13.400  3.0143  0.4162 -0.7536
 7538TIP3    H244030   3.132   5.256  13.525 -0.1047 -0.2010  0.5292
 7539TIP3   OH244031   2.132   3.385  13.615 -0.4807 -0.0528  0.4670
 7539TIP3    H144032   2.121   3.451  13.546 -0.8087  0.8786  1.3691
 7539TIP3    H244033   2.225   3.392  13.639 -0.4811 -0.0156  0.4588
 7540TIP3   OH244034   1.167   0.423  15.541  0.1415 -0.3949  0.0100
 7540TIP3    H144035   1.245   0.385  15.501  0.5633 -0.1685  0.6001
 7540TIP3    H244036   1.191   0.437  15.632 -0.7674 -0.7936  0.3206
 7541TIP3   OH244037   6.300   5.056  13.887 -0.2645 -0.4198  0.2848
 7541TIP3    H144038   6.336   5.078  13.973 -0.3305  2.7758 -0.3886
 7541TIP3    H244039   6.234   5.123  13.870 -0.6465 -1.2716 -2.0552
 7542TIP3   OH244040   6.364   3.743  14.623  0.1440  0.3259  0.5637
 7542TIP3    H144041   6.392   3.757  14.533  2.0645 -1.0775  0.8687
 7542TIP3    H244042   6.331   3.653  14.624 -0.5340  0.5728  1.1109
 7543TIP3   OH244043   5.943   4.559  10.955 -0.1403 -0.4639 -0.1530
 7543TIP3    H144044   5.928   4.487  11.017  0.7585  2.0605  3.3223
 7543TIP3    H244045   6.034   4.546  10.925  0.6783  0.1113  1.9112
 7544TIP3   OH244046   2.377   6.077  14.147  0.9384 -0.1118  0.4388
 7544TIP3    H144047   2.458   6.099  14.193 -0.0315 -0.8612  2.6479
 7544TIP3    H244048   2.338   6.006  14.199 -1.3068  0.4582 -0.3492
 7545TIP3   OH244049   5.142   3.620   2.687  0.5584 -0.5831 -0.7954
 7545TIP3    H144050   5.126   3.561   2.614 -0.6983 -1.1707 -0.0773
 7545TIP3    H244051   5.140   3.564   2.765 -0.9040  0.3851 -0.0765
 7546TIP3   OH244052   4.769   6.103  16.924  0.1466  0.3170  0.3792
 7546TIP3    H144053   4.756   6.144  17.010 -0.7724 -0.1241  0.4616
 7546TIP3    H244054   4.737   6.169  16.862 -0.4963  0.0939  0.4616
 7547TIP3   OH244055   0.870   1.180  12.448  0.4329 -0.2314  0.0250
 7547TIP3    H144056   0.782   1.194  12.412  0.5568 -1.5195 -0.8578
 7547TIP3    H244057   0.925   1.245  12.405  0.0868 -0.0479 -0.1441
 7548TIP3   OH244058   4.907   2.363  14.029  0.7547 -0.8831  0.3473
 7548TIP3    H144059   4.914   2.305  14.104  2.4656  1.0029  1.7571
 7548TIP3    H244060   4.986   2.345  13.978  1.9578  0.9185  1.4390
 7549TIP3   OH244061   5.667   5.956  13.034  0.1741 -0.3426  0.9409
 7549TIP3    H144062   5.720   5.875  13.033 -0.1433 -0.5554 -0.1816
 7549TIP3    H244063   5.686   5.997  12.950 -0.8387 -0.0197  0.8625
 7550TIP3   OH244064   2.633   6.376   1.976 -0.5923  0.3819  0.2851
 7550TIP3    H144065   2.619   6.362   2.070  2.2656 -0.0277  0.7382
 7550TIP3    H244066   2.592   6.460   1.958  0.7141  1.5639  2.4570
 7551TIP3   OH244067   5.666   6.009   1.416 -0.0225 -0.7623  0.1616
 7551TIP3    H144068   5.625   6.079   1.366 -0.2208 -0.6138  0.5291
 7551TIP3    H244069   5.698   6.051   1.495  0.7854 -0.8921 -0.0956
 7552TIP3   OH244070   4.912   0.615   5.306  0.7960 -1.0258 -0.1406
 7552TIP3    H144071   4.997   0.592   5.268  0.7125 -0.3819 -0.7279
 7552TIP3    H244072   4.911   0.569   5.391  0.7357 -2.9584 -1.1396
 7553TIP3   OH244073   6.442   5.787  14.155  0.4668  0.5838 -0.2807
 7553TIP3    H144074   6.516   5.729  14.171 -0.4729 -0.1794  1.5599
 7553TIP3    H244075   6.398   5.795  14.240 -2.6300 -0.4518 -1.6355
 7554TIP3   OH244076   2.964   1.654  11.855  0.5418  0.4390 -0.0731
 7554TIP3    H144077   2.877   1.621  11.831  0.3626  1.8606 -1.5743
 7554TIP3    H244078   2.966   1.650  11.951  0.0935 -2.6511 -0.0765
 7555TIP3   OH244079   6.282   1.923   4.005 -0.6019 -0.5232  0.7517
 7555TIP3    H144080   6.233   1.980   4.065 -0.3413  1.1149 -0.5017
 7555TIP3    H244081   6.317   1.854   4.061 -1.1604  0.3948  2.3190
 7556TIP3   OH244082   2.374   4.028  17.006  0.1208 -0.1071 -0.4855
 7556TIP3    H144083   2.366   3.994  17.095 -1.1861  1.2514 -0.0542
 7556TIP3    H244084   2.459   4.072  17.005  0.2044 -0.2496  0.0411
 7557TIP3   OH244085   5.103   6.542   0.758 -0.2407 -0.0985  0.3521
 7557TIP3    H144086   5.169   6.490   0.804  0.9071  1.3200  0.3881
 7557TIP3    H244087   5.058   6.479   0.702  0.6879 -1.2372  0.8348
 7558TIP3   OH244088   1.482   2.306   4.998  0.5816 -0.1819  0.4611
 7558TIP3    H144089   1.549   2.373   4.983  1.0214 -0.8824 -0.9239
 7558TIP3    H244090   1.405   2.340   4.954  0.0460  0.5388  1.8986
 7559TIP3   OH244091   1.810   6.640   1.847 -0.0810  0.1188  0.1764
 7559TIP3    H144092   1.723   6.602   1.848  0.1376 -1.0257 -4.0625
 7559TIP3    H244093   1.868   6.568   1.822  1.9660  1.0915  1.7519
 7560TIP3   OH244094   3.367   1.984  11.335  0.1784 -0.0564 -0.0552
 7560TIP3    H144095   3.343   2.013  11.246  0.6725  2.6359  0.5946
 7560TIP3    H244096   3.300   1.920  11.358 -0.5264 -0.0893 -2.0067
 7561TIP3   OH244097   5.139   4.327   3.736  0.1211  0.4037  0.0269
 7561TIP3    H144098   5.096   4.323   3.821 -0.2841 -1.5963 -0.2171
 7561TIP3    H244099   5.162   4.236   3.717 -1.9772  0.3557 -3.0640
 7562TIP3   OH244100   2.385   3.800  11.729  0.1775 -0.3236  0.0639
 7562TIP3    H144101   2.406   3.864  11.661  1.1289 -0.7140 -0.0262
 7562TIP3    H244102   2.290   3.789  11.724  0.3602 -1.3121 -2.0741
 7563TIP3   OH244103   4.706   2.543   2.173  0.6251  0.3357 -0.2010
 7563TIP3    H144104   4.677   2.521   2.085  0.8302  2.7076 -0.9472
 7563TIP3    H244105   4.801   2.531   2.170  0.6245  0.3513 -0.3000
 7564TIP3   OH244106   0.368   5.573   2.652 -0.0690  0.5973 -0.1092
 7564TIP3    H144107   0.282   5.614   2.640 -1.1316 -1.0545  1.2730
 7564TIP3    H244108   0.392   5.595   2.742  0.2427 -0.1884  0.0060
 7565TIP3   OH244109   5.831   3.580   1.106 -0.2768  1.0709  0.0756
 7565TIP3    H144110   5.779   3.585   1.186 -0.1596 -2.2731  0.4855
 7565TIP3    H244111   5.897   3.649   1.116  0.9507 -0.3973  3.8044
 7566TIP3   OH244112   3.251   0.586   6.165 -0.8938 -0.5246  0.4553
 7566TIP3    H144113   3.322   0.576   6.229 -1.0440 -1.7170  0.4681
 7566TIP3    H244114   3.223   0.496   6.148  0.1742 -0.4131 -2.4511
 7567TIP3   OH244115   1.928   3.252   6.626 -0.4037  0.3779 -0.2998
 7567TIP3    H144116   1.949   3.344   6.613 -0.0160  0.2519 -0.5738
 7567TIP3    H244117   1.832   3.248   6.623 -0.4385  0.8255  0.1036
 7568TIP3   OH244118   1.293   3.951   2.837 -0.8774 -0.0978 -0.2511
 7568TIP3    H144119   1.326   3.861   2.834  1.1808  0.5752  0.1433
 7568TIP3    H244120   1.282   3.970   2.930 -1.0820  0.1282 -0.3206
 7569TIP3   OH244121   1.832   3.768  11.349 -0.2538 -0.3517 -0.5220
 7569TIP3    H144122   1.756   3.783  11.404  0.7902  1.7835  0.4347
 7569TIP3    H244123   1.830   3.838  11.284  1.2777  0.1934 -0.0177
 7570TIP3   OH244124   3.636   1.597  16.122 -0.4750 -0.5043  0.3179
 7570TIP3    H144125   3.630   1.687  16.091 -0.5576 -0.0775  1.5097
 7570TIP3    H244126   3.545   1.569  16.133 -0.4596 -0.9505 -0.6217
 7571TIP3   OH244127   2.063   2.782  14.161  0.6051 -0.4484 -0.4015
 7571TIP3    H144128   1.973   2.774  14.130  1.3084 -1.6158 -2.3505
 7571TIP3    H244129   2.056   2.780  14.256 -1.5992  2.0361 -0.3928
 7572TIP3   OH244130   3.640   0.244   2.668 -0.0970  0.4328 -0.0166
 7572TIP3    H144131   3.718   0.300   2.672  0.6382 -0.6290  0.7630
 7572TIP3    H244132   3.569   0.301   2.695  0.9330  0.5007  2.8196
 7573TIP3   OH244133   2.230   0.840   3.101 -0.7874 -0.6229  0.1277
 7573TIP3    H144134   2.290   0.904   3.140 -1.3814 -0.9139  1.5904
 7573TIP3    H244135   2.178   0.809   3.174 -2.4716 -0.6662 -1.0452
 7574TIP3   OH244136   2.679   2.747   4.697 -0.4274  1.0517  0.2736
 7574TIP3    H144137   2.622   2.670   4.702  0.3578  0.2583 -1.9729
 7574TIP3    H244138   2.738   2.738   4.772  0.1743 -1.0106 -0.3787
 7575TIP3   OH244139   1.065   6.589  17.096  0.0939 -0.1905  0.1675
 7575TIP3    H144140   1.116   6.594  17.177 -0.7832  0.3421  0.7161
 7575TIP3    H244141   1.048   6.681  17.073  0.4032 -0.3332 -0.6786
 7576TIP3   OH244142   6.006   5.378  13.544 -0.0315  0.5326  0.0668
 7576TIP3    H144143   6.082   5.365  13.600 -0.4248 -0.8627  0.3090
 7576TIP3    H244144   5.940   5.416  13.601  0.3456  1.3749 -0.0492
 7577TIP3   OH244145   4.051   5.191   2.338 -0.3302 -0.1954 -0.4008
 7577TIP3    H144146   3.981   5.207   2.402 -0.6793  2.2195 -1.2810
 7577TIP3    H244147   4.118   5.256   2.360  0.7985 -1.1956 -0.7904
 7578TIP3   OH244148   4.844   2.955  16.718 -0.4470  0.0919 -0.3750
 7578TIP3    H144149   4.839   2.938  16.623  0.1647  1.0355 -0.5853
 7578TIP3    H244150   4.937   2.953  16.738 -0.4050  2.0288 -0.2139
 7579TIP3   OH244151   5.012   2.230   2.609 -0.5312 -0.6456  0.2664
 7579TIP3    H144152   5.080   2.164   2.594 -1.3172 -1.3710 -0.1812
 7579TIP3    H244153   4.935   2.179   2.632 -1.4496  0.0427 -1.1645
 7580TIP3   OH244154   1.328   2.174  13.521 -0.2397 -0.7894 -0.4338
 7580TIP3    H144155   1.248   2.225  13.510 -0.0902 -0.3892  0.2632
 7580TIP3    H244156   1.305   2.105  13.583  0.5074  0.6756  1.5829
 7581TIP3   OH244157   6.501   3.182   5.015  0.0129 -0.2487 -0.0119
 7581TIP3    H144158   6.438   3.120   5.052 -0.4673  0.1253 -0.1875
 7581TIP3    H244159   6.447   3.251   4.977  0.5308  1.5943  2.3975
 7582TIP3   OH244160   6.232   2.609  15.971  0.2106  0.0594  0.1058
 7582TIP3    H144161   6.158   2.583  16.025  1.0877 -0.3519  1.1359
 7582TIP3    H244162   6.199   2.603  15.881 -0.6078 -1.4582  0.4682
 7583TIP3   OH244163   2.660   2.890  16.450 -0.2400 -0.2592 -0.0059
 7583TIP3    H144164   2.656   2.798  16.424  0.7686  0.0408 -1.3371
 7583TIP3    H244165   2.680   2.887  16.544 -3.2019 -1.3757  0.7263
 7584TIP3   OH244166   4.116   5.340  15.437  0.4641 -0.0818 -0.3111
 7584TIP3    H144167   4.140   5.253  15.404  0.7507  0.1647 -0.7688
 7584TIP3    H244168   4.022   5.334  15.455  0.3409 -0.2886 -0.9848
 7585TIP3   OH244169   5.480   0.665   1.092  0.4047 -0.5118 -0.5028
 7585TIP3    H144170   5.509   0.586   1.139  0.9560 -0.4971 -0.8114
 7585TIP3    H244171   5.559   0.697   1.049  0.3661  0.6634  0.2565
 7586TIP3   OH244172   4.258   2.005   2.958  0.4518  0.6527  0.3203
 7586TIP3    H144173   4.298   1.919   2.942 -0.3702 -0.1376  2.1586
 7586TIP3    H244174   4.165   1.991   2.942  0.5067  1.6914 -1.0331
 7587TIP3   OH244175   3.684   5.329   3.196  0.6244  0.0688 -0.0152
 7587TIP3    H144176   3.649   5.290   3.275  1.3733  2.1657  1.4601
 7587TIP3    H244177   3.660   5.422   3.202  2.2370  0.6383 -1.3291
 7588TIP3   OH244178   6.117   0.520   2.187  0.3149  0.1882  0.8092
 7588TIP3    H144179   6.061   0.591   2.218  0.8962  0.3201  1.5891
 7588TIP3    H244180   6.191   0.564   2.145 -1.0032  0.0264 -1.9191
 7589TIP3   OH244181   1.298   4.815   1.581 -0.0004 -0.0675 -0.1622
 7589TIP3    H144182   1.391   4.837   1.579 -0.5976  2.8312 -2.8178
 7589TIP3    H244183   1.296   4.720   1.568  2.5600 -0.2249  0.0901
 7590TIP3   OH244184   4.988   0.170   2.035  0.2538 -0.1705 -0.1749
 7590TIP3    H144185   4.991   0.094   1.977  0.0178 -0.1705 -0.1888
 7590TIP3    H244186   4.894   0.189   2.044  0.3625  1.3780 -1.8095
 7591TIP3   OH244187   3.305   3.243  12.774 -0.3800 -0.2489 -0.2234
 7591TIP3    H144188   3.377   3.306  12.769 -1.0759  0.6428  0.7318
 7591TIP3    H244189   3.340   3.170  12.825  0.3394 -0.5447 -1.1053
 7592TIP3   OH244190   4.397   4.758  15.145  0.7283  0.0133 -0.1763
 7592TIP3    H144191   4.317   4.728  15.101  0.8889  0.6269 -0.9083
 7592TIP3    H244192   4.391   4.721  15.233 -0.4802  0.2379 -0.1421
 7593TIP3   OH244193   3.165   1.874   5.405  0.1410 -0.5365 -0.3484
 7593TIP3    H144194   3.169   1.805   5.471 -2.9919  1.2547  1.9547
 7593TIP3    H244195   3.142   1.953   5.453  1.3806  1.7169 -3.1627
 7594TIP3   OH244196   0.555   2.811   6.175  0.1696  0.1742  0.0619
 7594TIP3    H144197   0.545   2.771   6.261 -1.4025 -2.6169 -1.2417
 7594TIP3    H244198   0.477   2.865   6.164 -1.5341 -2.2488 -0.7986
 7595TIP3   OH244199   5.324   3.142   0.261  0.2702 -0.5075 -0.1511
 7595TIP3    H144200   5.351   3.234   0.257 -0.6287 -0.2599 -2.2046
 7595TIP3    H244201   5.403   3.094   0.285  1.1880  0.6745 -0.7113
 7596TIP3   OH244202   2.672   0.402  16.860  0.0154  0.5053 -0.1146
 7596TIP3    H144203   2.660   0.335  16.928  1.5732  0.9054  0.6107
 7596TIP3    H244204   2.613   0.376  16.789 -0.1260 -1.0865  0.5531
 7597TIP3   OH244205   3.514   5.462   0.918  0.4872 -0.0416 -0.6898
 7597TIP3    H144206   3.586   5.470   0.981  0.5363 -0.5441 -0.6810
 7597TIP3    H244207   3.556   5.460   0.833  0.5194 -0.7715 -0.6634
 7598TIP3   OH244208   2.585   5.784  11.233 -0.2387 -0.2796  0.1935
 7598TIP3    H144209   2.554   5.797  11.143 -0.4241 -0.9109  0.1567
 7598TIP3    H244210   2.589   5.689  11.243  3.1205 -0.2961 -0.2867
 7599TIP3   OH244211   2.181   2.945  15.050 -0.7056  0.1347  0.4101
 7599TIP3    H144212   2.253   2.882  15.052 -0.8042  0.0360  1.0928
 7599TIP3    H244213   2.128   2.920  14.975 -0.2505 -0.0382  0.1415
 7600TIP3   OH244214   0.427   2.309  10.619  0.5439  0.1244 -0.2485
 7600TIP3    H144215   0.377   2.347  10.547  0.6066 -0.5399 -0.6533
 7600TIP3    H244216   0.470   2.233  10.581 -0.3127 -0.9111  0.7429
 7601TIP3   OH244217   0.002   2.642   1.101 -0.8036 -0.4934  0.0811
 7601TIP3    H144218   0.025   2.635   1.193 -1.7374 -2.2858  0.2121
 7601TIP3    H244219   0.059   2.578   1.057 -0.2814  0.4235 -0.6271
 7602TIP3   OH244220   0.228   3.506  11.487  0.1812 -0.0439 -0.8003
 7602TIP3    H144221   0.177   3.481  11.410 -0.1308 -0.3305 -0.5003
 7602TIP3    H244222   0.207   3.599  11.500 -1.3754 -0.4944  0.1596
 7603TIP3   OH244223   6.345   2.781  11.737  0.7143  0.5182  0.1553
 7603TIP3    H144224   6.328   2.692  11.768 -1.5460  1.3171  1.4925
 7603TIP3    H244225   6.372   2.828  11.816 -0.2889  1.4958 -0.0639
 7604TIP3   OH244226   5.867   1.398  11.418 -0.6748  0.3081 -0.3396
 7604TIP3    H144227   5.803   1.328  11.407  1.1647 -1.6543  0.6630
 7604TIP3    H244228   5.874   1.409  11.513  0.7280  0.2106 -0.4104
 7605TIP3   OH244229   5.748   2.188  14.356 -0.1628 -0.1246 -0.2989
 7605TIP3    H144230   5.797   2.106  14.356 -0.1179 -0.1416  1.3294
 7605TIP3    H244231   5.658   2.162  14.376 -0.5710  0.0519 -1.7872
 7606TIP3   OH244232   5.190   3.002  15.862 -0.4542  0.5491 -0.6899
 7606TIP3    H144233   5.214   3.081  15.814 -2.6802  1.2532 -0.7529
 7606TIP3    H244234   5.165   3.034  15.949 -0.1954 -0.2360 -0.3217
 7607TIP3   OH244235   0.617   6.334   0.759 -0.6093 -0.2924 -0.4283
 7607TIP3    H144236   0.646   6.264   0.701  0.7518  0.5208 -0.7714
 7607TIP3    H244237   0.529   6.355   0.728  0.0186  0.0184 -2.1394
 7608TIP3   OH244238   4.456   6.233  13.679  0.5761  0.3061  0.1112
 7608TIP3    H144239   4.511   6.280  13.616  0.3292  1.8525  0.9907
 7608TIP3    H244240   4.404   6.173  13.626  0.5655  1.3749 -1.1285
 7609TIP3   OH244241   5.536   3.345   3.377  0.0122  0.4345  0.0136
 7609TIP3    H144242   5.442   3.334   3.363 -0.2999  2.1597  0.4616
 7609TIP3    H244243   5.545   3.346   3.473  0.7441 -1.3710  0.0003
 7610TIP3   OH244244   4.051   5.332   3.185 -0.3031  1.0407  0.4851
 7610TIP3    H144245   3.985   5.399   3.166 -0.7525  0.6762  0.7409
 7610TIP3    H244246   4.005   5.249   3.170  0.0741  0.7849  0.7376
 7611TIP3   OH244247   2.613   1.056  14.830  0.1239 -0.1184  0.1759
 7611TIP3    H144248   2.570   1.139  14.807 -0.9069 -0.9971 -1.2468
 7611TIP3    H244249   2.685   1.082  14.887 -1.1915  1.5981  1.1760
 7612TIP3   OH244250   2.992   4.875   5.555  0.6032  0.6952  0.8340
 7612TIP3    H144251   2.942   4.912   5.483  1.6304  2.6657  1.0670
 7612TIP3    H244252   3.083   4.874   5.524  0.7701 -0.6116  1.2734
 7613TIP3   OH244253   6.406   5.996   2.430 -0.2190 -0.1321 -0.1814
 7613TIP3    H144254   6.501   5.991   2.421  0.4466  3.2098  3.0185
 7613TIP3    H244255   6.384   5.928   2.494 -0.0191 -0.7730 -0.7762
 7614TIP3   OH244256   3.506   0.828  11.354 -0.3254 -0.5486 -0.7607
 7614TIP3    H144257   3.493   0.751  11.410  1.0141 -0.2546 -0.0045
 7614TIP3    H244258   3.421   0.841  11.312 -0.5232 -2.5915 -1.1233
 7615TIP3   OH244259   3.287   2.633   2.417 -0.0855 -0.2882 -0.0807
 7615TIP3    H144260   3.311   2.720   2.384  0.9935 -0.1698  0.9665
 7615TIP3    H244261   3.240   2.592   2.344 -0.8258  1.2471 -0.5095
 7616TIP3   OH244262   5.499   0.901   3.317  0.1164 -0.8417  0.0903
 7616TIP3    H144263   5.588   0.923   3.290  0.0857  0.1022  0.7192
 7616TIP3    H244264   5.472   0.833   3.255  0.8424 -0.3110 -0.8439
 7617TIP3   OH244265   0.822   3.782  15.111  0.1632  0.0696 -0.5806
 7617TIP3    H144266   0.912   3.795  15.081  0.3265  0.0785 -0.1033
 7617TIP3    H244267   0.807   3.688  15.101  0.9469 -0.3018  1.2328
 7618TIP3   OH244268   4.874   6.170   1.735 -0.1187 -0.0049 -0.2584
 7618TIP3    H144269   4.883   6.204   1.824  0.7325  3.6073 -1.5757
 7618TIP3    H244270   4.949   6.112   1.723 -0.0684 -0.2801  1.2314
 7619TIP3   OH244271   4.635   4.450  16.680  0.2138 -0.1730  0.0219
 7619TIP3    H144272   4.580   4.394  16.735  0.4170  1.2024  1.7061
 7619TIP3    H244273   4.576   4.515  16.643  0.4925  0.6448  0.9622
 7620TIP3   OH244274   5.051   0.296   5.938 -0.1610  0.1434  0.4920
 7620TIP3    H144275   5.116   0.337   5.880 -1.4837  0.6641 -0.6823
 7620TIP3    H244276   5.074   0.203   5.936 -1.1651 -0.1487 -2.3382
 7621TIP3   OH244277   3.601   0.212   1.343 -0.4779 -0.0701 -0.0446
 7621TIP3    H144278   3.620   0.299   1.378  0.5904  0.2019 -1.1928
 7621TIP3    H244279   3.509   0.197   1.364 -0.5527  1.1336  0.5856
 7622TIP3   OH244280   4.662   2.942  15.086 -0.5302 -0.2509  0.4590
 7622TIP3    H144281   4.604   3.015  15.110 -0.1394  0.7255 -1.3759
 7622TIP3    H244282   4.615   2.864  15.115 -0.8437  0.6906  2.7487
 7623TIP3   OH244283   5.912   2.843  11.148 -0.2769  0.0929  0.3518
 7623TIP3    H144284   5.934   2.888  11.066  1.0130 -2.3035 -0.7337
 7623TIP3    H244285   5.817   2.852  11.154 -0.4750 -0.0094 -1.6602
 7624TIP3   OH244286   3.455   2.687   4.795  0.1897  0.2038 -0.2546
 7624TIP3    H144287   3.393   2.616   4.779  1.3190 -0.9029  0.1315
 7624TIP3    H244288   3.405   2.767   4.779 -1.3392 -0.6531  0.0980
 7625TIP3   OH244289   2.646   0.158  14.826  0.7688 -0.3025  0.2664
 7625TIP3    H144290   2.605   0.106  14.895  0.4366 -0.9743 -0.4355
 7625TIP3    H244291   2.621   0.116  14.745  2.3666 -0.4018 -0.2212
 7626TIP3   OH244292   0.197   5.769  15.320  0.0526  0.4743  0.0458
 7626TIP3    H144293   0.251   5.751  15.244 -0.0627 -0.9718  0.2904
 7626TIP3    H244294   0.259   5.779  15.393  0.0895  0.7496 -0.0201
 7627TIP3   OH244295   2.456   1.267   5.259 -0.6388 -0.2483  0.2504
 7627TIP3    H144296   2.365   1.243   5.279 -0.4327 -0.0003  1.5404
 7627TIP3    H244297   2.449   1.352   5.217 -1.2195 -1.5618 -2.5697
 7628TIP3   OH244298   2.469   1.969   2.925 -0.0824  0.5824  0.0715
 7628TIP3    H144299   2.484   1.964   3.019  0.1254 -0.8827 -0.0225
 7628TIP3    H244300   2.413   2.046   2.914 -1.4357 -0.1431  1.5503
 7629TIP3   OH244301   0.113   2.070  11.648  0.0948 -0.0477 -0.1588
 7629TIP3    H144302   0.168   2.148  11.654  0.3669 -0.2672  0.2884
 7629TIP3    H244303   0.031   2.101  11.609  0.4124  0.3475 -0.5108
 7630TIP3   OH244304   1.743   1.706   5.929 -0.2074  0.4873  0.5231
 7630TIP3    H144305   1.822   1.653   5.915 -2.4756 -2.7124 -1.3568
 7630TIP3    H244306   1.717   1.687   6.019 -0.3746 -0.7751  0.2248
 7631TIP3   OH244307   4.758   3.583  11.510  0.7701  0.2058  0.0660
 7631TIP3    H144308   4.712   3.543  11.584 -0.4182  1.0886 -0.1593
 7631TIP3    H244309   4.730   3.531  11.434 -1.4299  1.8125 -0.3538
 7632TIP3   OH244310   0.973   4.274  16.372  0.2180  0.2593  0.0171
 7632TIP3    H144311   1.047   4.314  16.326 -0.3917  1.0554 -0.2905
 7632TIP3    H244312   0.903   4.272  16.307 -0.0878 -0.3292  0.3593
 7633TIP3   OH244313   1.861   4.748   4.889 -0.3202  0.2982 -0.6965
 7633TIP3    H144314   1.767   4.762   4.900 -0.1889 -0.5594  2.5751
 7633TIP3    H244315   1.869   4.704   4.805 -2.7574  0.9484 -1.3550
 7634TIP3   OH244316   5.774   1.288  10.943 -0.2753 -1.1108 -0.2262
 7634TIP3    H144317   5.702   1.312  11.001  0.4924 -1.3306  0.8510
 7634TIP3    H244318   5.784   1.194  10.955  1.0441 -0.8915  0.6899
 7635TIP3   OH244319   2.657   6.510  13.989  0.3387 -0.0205 -0.4881
 7635TIP3    H144320   2.614   6.463  14.060 -0.9388 -0.8051 -1.7277
 7635TIP3    H244321   2.624   6.600  13.996  0.9322  0.1408  0.4399
 7636TIP3   OH244322   5.768   0.206  16.028 -0.5378 -0.4690 -0.0500
 7636TIP3    H144323   5.749   0.231  16.118  1.2560 -1.0552  0.5371
 7636TIP3    H244324   5.702   0.140  16.006 -1.6675  0.4664  0.4153
 7637TIP3   OH244325   0.516   5.725   2.849  0.0539  0.0726 -0.3294
 7637TIP3    H144326   0.553   5.651   2.898  0.1605  0.0719 -0.4098
 7637TIP3    H244327   0.556   5.802   2.890  0.6437  0.0402 -0.8329
 7638TIP3   OH244328   3.540   4.357  13.594  0.7442 -0.3235 -0.0543
 7638TIP3    H144329   3.484   4.375  13.518  1.5546  0.6524 -0.4514
 7638TIP3    H244330   3.552   4.443  13.635  1.8091 -0.5348  0.1091
 7639TIP3   OH244331   5.241   0.048  11.320  0.3672  0.2961  0.6257
 7639TIP3    H144332   5.261  -0.039  11.285 -0.8539 -0.6461  2.1755
 7639TIP3    H244333   5.262   0.107  11.248 -2.9222 -1.5904 -2.1916
 7640TIP3   OH244334   6.725   5.875  13.072  0.3036  0.2258 -0.0631
 7640TIP3    H144335   6.721   5.817  13.148 -2.3040 -0.2023 -0.4239
 7640TIP3    H244336   6.655   5.938  13.087  1.4696  1.7955 -0.8938
 7641TIP3   OH244337   2.158   0.150  15.164 -0.1388  0.7492  0.1377
 7641TIP3    H144338   2.158   0.071  15.218 -1.5671 -0.3522 -1.3512
 7641TIP3    H244339   2.098   0.210  15.209 -1.6976 -0.3379 -0.3954
 7642TIP3   OH244340   1.806   6.692  10.281 -0.3131 -0.0746  0.4007
 7642TIP3    H144341   1.836   6.759  10.341  0.3591 -0.5762  0.6343
 7642TIP3    H244342   1.731   6.731  10.237 -0.9441  0.2240  1.7028
 7643TIP3   OH244343   0.792   5.017  16.878 -0.6079 -0.4993  0.0109
 7643TIP3    H144344   0.877   5.031  16.921 -0.9412  1.2536  0.2017
 7643TIP3    H244345   0.813   4.965  16.801  0.5943 -0.4219  0.2524
 7644TIP3   OH244346   2.053   2.963   0.150 -0.1516 -0.2071  0.0481
 7644TIP3    H144347   2.010   3.041   0.185  0.2105 -0.0418  0.1235
 7644TIP3    H244348   2.146   2.980   0.160 -0.0632 -0.4958 -0.2731
 7645TIP3   OH244349   4.024   6.659   4.437 -0.0937 -0.2073  0.0924
 7645TIP3    H144350   4.000   6.680   4.347  1.6579  1.4844 -0.0524
 7645TIP3    H244351   4.104   6.607   4.430  1.0273  1.3564  0.6362
 7646TIP3   OH244352   6.497   2.886  10.252 -0.4194 -0.0613 -0.0445
 7646TIP3    H144353   6.588   2.859  10.265 -0.8728 -0.9880  1.4475
 7646TIP3    H244354   6.499   2.982  10.258  0.7395  0.1014 -2.1512
 7647TIP3   OH244355   4.998   0.615   5.811  0.4803  0.2103 -0.4986
 7647TIP3    H144356   4.985   0.706   5.839  0.4693  0.8084 -2.3133
 7647TIP3    H244357   5.089   0.611   5.783  0.4271 -0.2809 -0.6210
 7648TIP3   OH244358   5.077   6.773  12.597 -0.2170  0.4273  0.3970
 7648TIP3    H144359   5.043   6.842  12.654 -0.1059  0.0956  0.8784
 7648TIP3    H244360   5.168   6.797  12.582 -0.2704  0.5611  0.2916
 7649TIP3   OH244361   3.255   2.444   5.223  0.0001  0.1362  0.0578
 7649TIP3    H144362   3.293   2.357   5.210  0.4977  0.1807  1.1236
 7649TIP3    H244363   3.204   2.460   5.144 -0.8044 -1.4913  0.2024
 7650TIP3   OH244364   0.164   5.560  11.724  0.8704  0.3524  0.0998
 7650TIP3    H144365   0.235   5.573  11.661 -0.5908  1.6233 -1.3719
 7650TIP3    H244366   0.117   5.483  11.693  1.4240 -0.3508  0.9438
 7651TIP3   OH244367   2.434   6.728   5.387  0.0885  0.1950 -0.5348
 7651TIP3    H144368   2.416   6.638   5.360  0.4703  0.0127 -0.1857
 7651TIP3    H244369   2.449   6.775   5.305 -0.8910  0.1174 -0.7697
 7652TIP3   OH244370   2.828   5.485  16.930 -0.0534  0.7503 -0.3245
 7652TIP3    H144371   2.897   5.478  16.996  0.5071  1.3380 -0.8244
 7652TIP3    H244372   2.748   5.496  16.980 -0.2443 -2.7013  0.3690
 7653TIP3   OH244373   1.821   5.107  13.598  0.7465  0.0419 -0.4746
 7653TIP3    H144374   1.892   5.067  13.549  2.0400  0.8367  0.6946
 7653TIP3    H244375   1.862   5.176  13.650 -0.8113  0.3023  0.5053
 7654TIP3   OH244376   2.766   3.448   5.476  0.2708  1.0574  0.2189
 7654TIP3    H144377   2.839   3.508   5.461  2.5891 -1.3301  1.1534
 7654TIP3    H244378   2.782   3.412   5.564 -1.8724  0.1880  0.3210
 7655TIP3   OH244379   2.315   3.355  16.094 -0.5738  0.0073  0.5177
 7655TIP3    H144380   2.342   3.293  16.162 -1.0774 -1.4288 -0.5387
 7655TIP3    H244381   2.225   3.378  16.117 -0.5042  0.0713  0.7263
 7656TIP3   OH244382   2.710   6.528   6.521  0.0893  0.5525  0.9002
 7656TIP3    H144383   2.668   6.613   6.536 -0.6478  0.2532  0.5789
 7656TIP3    H244384   2.651   6.465   6.563  0.6795  0.2036  1.2204
 7657TIP3   OH244385   2.839   1.904   5.275 -0.1145 -0.4529  0.0741
 7657TIP3    H144386   2.929   1.901   5.241 -0.0228  0.1797  0.2540
 7657TIP3    H244387   2.813   1.812   5.279  0.2115 -0.5964 -0.8091
 7658TIP3   OH244388   3.072   0.787   3.008 -0.1473  0.0053  0.1717
 7658TIP3    H144389   3.033   0.807   3.093 -2.3276 -0.7433 -0.5913
 7658TIP3    H244390   3.061   0.693   2.997 -2.7272  0.4524 -2.1660
 7659TIP3   OH244391   3.357   1.283   4.937 -0.5994 -0.3649 -0.2864
 7659TIP3    H144392   3.436   1.274   4.991 -0.9273  2.0296  0.7186
 7659TIP3    H244393   3.285   1.281   5.000 -0.9994  2.3379 -0.5736
 7660TIP3   OH244394   1.243   3.589  12.745  0.1155  0.3151  0.0107
 7660TIP3    H144395   1.183   3.652  12.786  0.0033 -0.6886  1.4531
 7660TIP3    H244396   1.213   3.504  12.775 -0.5537 -0.6069 -2.9688
 7661TIP3   OH244397   3.643   0.675   2.895  0.0818 -0.1385 -0.8559
 7661TIP3    H144398   3.660   0.581   2.893 -0.1741 -0.3259  1.9200
 7661TIP3    H244399   3.547   0.682   2.894  0.0579 -0.0326  0.3078
 7662TIP3   OH244400   4.265   4.922   5.058  0.4977  0.2383 -0.5364
 7662TIP3    H144401   4.254   5.009   5.019  1.8321  0.9427  0.5865
 7662TIP3    H244402   4.267   4.937   5.152 -1.4655 -1.3056 -0.1818
 7663TIP3   OH244403   1.103   1.512  12.109 -0.1144 -0.3299  0.4402
 7663TIP3    H144404   1.089   1.550  12.023  0.2893 -1.6404 -0.2248
 7663TIP3    H244405   1.140   1.583  12.161  1.5743 -0.0683 -1.0466
 7664TIP3   OH244406   4.665   5.921   2.686 -0.0951  0.4990 -0.2348
 7664TIP3    H144407   4.599   5.928   2.755  0.1978 -0.4221  0.1554
 7664TIP3    H244408   4.621   5.874   2.615 -0.8266  2.6185 -1.2606
 7665TIP3   OH244409   2.668   5.795  14.577 -0.2436  0.2606 -0.1350
 7665TIP3    H144410   2.665   5.715  14.630  0.0410  0.1803 -0.2389
 7665TIP3    H244411   2.743   5.843  14.610  0.7312 -0.3894 -1.3095
 7666TIP3   OH244412   4.337   3.390  15.264 -0.7943  0.1820 -0.5656
 7666TIP3    H144413   4.300   3.461  15.318  2.6035  1.8063 -0.1379
 7666TIP3    H244414   4.340   3.427  15.176  0.6699  0.4909 -0.4032
 7667TIP3   OH244415   5.801   0.393  11.438 -0.3345 -0.5636  1.0095
 7667TIP3    H144416   5.731   0.342  11.398 -0.0475 -0.9925  1.0498
 7667TIP3    H244417   5.812   0.355  11.525 -0.6972  0.1205  1.3683
 7668TIP3   OH244418   3.964   5.114  15.923 -0.5573 -0.2530 -0.2808
 7668TIP3    H144419   4.051   5.101  15.960 -1.3587  0.2641  1.9748
 7668TIP3    H244420   3.958   5.208  15.908 -1.2833 -0.0335  1.2051
 7669TIP3   OH244421   6.581   3.227  15.725  0.2947 -0.2324 -0.5552
 7669TIP3    H144422   6.562   3.179  15.805 -1.9856 -0.5052 -1.1654
 7669TIP3    H244423   6.672   3.253  15.732  0.7711 -2.1741  1.0982
 7670TIP3   OH244424   1.973   2.072  14.264 -0.1375  0.2341  0.3746
 7670TIP3    H144425   2.017   2.093  14.182 -0.1010  0.6526  0.5004
 7670TIP3    H244426   1.886   2.040  14.237 -0.7613  1.9545  0.2260
 7671TIP3   OH244427   2.372   2.669   0.683 -0.3102 -0.1286 -0.1638
 7671TIP3    H144428   2.430   2.697   0.753 -1.9939 -2.6941  2.4882
 7671TIP3    H244429   2.325   2.748   0.657  2.1389  1.3725 -0.2884
 7672TIP3   OH244430   6.653   3.100   0.433  0.0974 -0.1562  0.0229
 7672TIP3    H144431   6.661   3.124   0.525 -1.1316  0.7979 -0.0945
 7672TIP3    H244432   6.627   3.008   0.434 -0.9952  0.1498  0.6631
 7673TIP3   OH244433   0.895   5.495  15.888 -0.4810  0.1818 -0.6372
 7673TIP3    H144434   0.824   5.481  15.951 -0.3061  2.2879  0.1389
 7673TIP3    H244435   0.956   5.423  15.904 -0.2636  0.8027  1.9439
 7674TIP3   OH244436   3.352   6.004   3.743  0.3500 -0.3524  0.0102
 7674TIP3    H144437   3.404   6.034   3.817  0.7342 -0.4373 -0.2178
 7674TIP3    H244438   3.265   6.041   3.757  0.2043 -0.9921  0.8971
 7675TIP3   OH244439   5.226   3.808  10.791  0.1192  0.3051  0.1017
 7675TIP3    H144440   5.150   3.790  10.847 -0.9013 -0.2081 -1.3844
 7675TIP3    H244441   5.259   3.892  10.822 -2.8290  2.0248 -1.0166
 7676TIP3   OH244442   0.338   3.019  13.416  0.5870  0.0014  0.3743
 7676TIP3    H144443   0.306   3.061  13.497  1.6403 -0.4436  1.0326
 7676TIP3    H244444   0.279   3.053  13.348  1.0375  2.1316  0.9544
 7677TIP3   OH244445   4.069   6.366  13.918 -0.0558  0.0640 -0.0631
 7677TIP3    H144446   4.070   6.341  13.826  0.3763 -0.1085 -0.0167
 7677TIP3    H244447   4.161   6.359  13.945 -0.3873 -1.5095  0.8125
 7678TIP3   OH244448   3.923   1.261  11.554  0.5840 -0.5775 -0.2296
 7678TIP3    H144449   3.867   1.250  11.631 -0.0154  2.4303 -0.1357
 7678TIP3    H244450   3.873   1.222  11.482  0.7203 -2.5240  0.6446
 7679TIP3   OH244451   3.928   1.482  12.993  0.4528  0.1538  0.1507
 7679TIP3    H144452   3.926   1.533  13.074 -1.2740  0.0151  0.2282
 7679TIP3    H244453   3.915   1.546  12.923  1.2954  0.1893  0.0168
 7680TIP3   OH244454   5.819   0.033   1.607  0.5542  0.5292  0.3227
 7680TIP3    H144455   5.795  -0.004   1.692  1.8788  0.3491  0.6331
 7680TIP3    H244456   5.865  -0.038   1.562 -0.9153  0.3145 -0.9373
 7681TIP3   OH244457   1.290   4.961   5.952  0.5185 -0.6306  0.2955
 7681TIP3    H144458   1.216   4.905   5.972  0.7797 -1.1924 -0.2809
 7681TIP3    H244459   1.316   4.999   6.036 -2.2759  1.9521  0.1457
 7682TIP3   OH244460   5.776   2.051   2.767 -0.3893  0.6594  0.2839
 7682TIP3    H144461   5.847   2.079   2.709 -0.1339 -0.5615 -0.0134
 7682TIP3    H244462   5.771   2.120   2.833  1.9602  0.1710  1.0716
 7683TIP3   OH244463   1.931   1.814  13.311 -0.1556  0.2151  0.1616
 7683TIP3    H144464   1.928   1.814  13.215 -1.7183 -1.5386  0.1596
 7683TIP3    H244465   1.992   1.744  13.333  1.6825  1.8149  0.5277
 7684TIP3   OH244466   4.958   6.219   5.190 -0.0343  0.5171  0.3228
 7684TIP3    H144467   4.965   6.247   5.099  1.3764 -0.4305  0.1190
 7684TIP3    H244468   4.911   6.135   5.185  0.3325  0.3052  0.4358
 7685TIP3   OH244469   3.801   6.347   2.026  0.6598  0.8094  0.6514
 7685TIP3    H144470   3.708   6.329   2.015  0.5592  1.8045 -0.3028
 7685TIP3    H244471   3.845   6.281   1.972  0.3533  2.3127 -1.5673
 7686TIP3   OH244472   4.505   5.087   3.248  0.2412 -0.6174  0.7761
 7686TIP3    H144473   4.415   5.082   3.215  0.2668 -3.3273  0.8749
 7686TIP3    H244474   4.557   5.036   3.186  1.3020 -0.9742  1.8979
 7687TIP3   OH244475   3.171   2.481   2.189  0.9441 -0.1038 -0.7164
 7687TIP3    H144476   3.225   2.403   2.184  1.1852  0.1172 -1.9496
 7687TIP3    H244477   3.081   2.448   2.195  1.1601 -0.4643  0.9062
 7688TIP3   OH244478   1.744   4.710   3.021 -0.1464 -0.2353  0.3557
 7688TIP3    H144479   1.805   4.775   3.055  1.8435 -0.7467 -1.9428
 7688TIP3    H244480   1.795   4.661   2.957 -2.2874 -2.4362  0.1882
 7689TIP3   OH244481   1.518   5.581   3.244 -0.4668 -0.0933  0.1937
 7689TIP3    H144482   1.468   5.616   3.170 -2.2503 -0.5315  1.1322
 7689TIP3    H244483   1.550   5.659   3.290  0.8681  0.1827 -1.1175
 7690TIP3   OH244484   6.537   1.469   4.265  0.2924 -0.4125 -0.8475
 7690TIP3    H144485   6.615   1.440   4.312  1.2045  0.6083 -1.6706
 7690TIP3    H244486   6.470   1.480   4.333  0.6398 -1.9562 -0.2111
 7691TIP3   OH244487   1.951   5.823   5.274  0.0003  0.4282 -0.0312
 7691TIP3    H144488   1.922   5.906   5.238 -1.0813  0.1829  0.2363
 7691TIP3    H244489   1.993   5.778   5.201 -0.6246  0.6534 -0.5344
 7692TIP3   OH244490   0.378   2.648  15.432 -0.0497 -0.0099  0.2965
 7692TIP3    H144491   0.474   2.657  15.434 -0.2239  2.6026  1.4598
 7692TIP3    H244492   0.352   2.683  15.347 -0.0061  0.0701  0.3156
 7693TIP3   OH244493   0.878   3.486  16.160  0.1867  0.0924 -0.0536
 7693TIP3    H144494   0.913   3.573  16.142  0.4469  0.1031  0.4775
 7693TIP3    H244495   0.956   3.431  16.170  0.0660  0.0886  1.0108
 7694TIP3   OH244496   1.582   3.890  16.658 -0.0248 -0.1634 -0.2763
 7694TIP3    H144497   1.513   3.832  16.690 -1.3453  1.1554 -0.6280
 7694TIP3    H244498   1.648   3.831  16.622 -0.4869 -1.4985  0.9744
 7695TIP3   OH244499   3.555   0.833  15.811 -0.4168  0.4078  0.2014
 7695TIP3    H144500   3.497   0.841  15.734 -1.1844  0.9310  0.8138
 7695TIP3    H244501   3.642   0.823  15.774 -0.7833  0.5752 -0.7496
 7696TIP3   OH244502   2.584   5.604  16.028 -0.4279  0.2844  0.2538
 7696TIP3    H144503   2.637   5.528  16.004 -0.0240 -0.0938  2.1938
 7696TIP3    H244504   2.506   5.597  15.972  0.1235 -0.8948 -0.4208
 7697TIP3   OH244505   3.470   2.610  14.215 -0.1612  0.1465  0.0667
 7697TIP3    H144506   3.449   2.703  14.206 -0.3535  0.2051  0.9721
 7697TIP3    H244507   3.395   2.564  14.176 -0.8431  0.3750  1.0536
 7698TIP3   OH244508   2.041   5.919   0.695  0.1947  0.3718 -0.1177
 7698TIP3    H144509   1.996   5.836   0.685  1.4688 -0.5260  1.0744
 7698TIP3    H244510   2.134   5.898   0.683  0.6063  1.4737  0.8144
 7699TIP3   OH244511   1.440   1.712  15.592 -0.0163 -0.1614  0.0155
 7699TIP3    H144512   1.430   1.719  15.687 -2.0383 -1.6330 -0.0417
 7699TIP3    H244513   1.515   1.768  15.572  1.1695 -0.6757  2.6089
 7700TIP3   OH244514   5.415   2.123  16.781  0.0178  0.1073  0.2149
 7700TIP3    H144515   5.384   2.213  16.774  2.2508  1.1101  1.8246
 7700TIP3    H244516   5.425   2.108  16.875  2.7561 -0.5682 -0.0760
 7701TIP3   OH244517   4.323   1.859  16.772 -0.1542  0.4187  0.0561
 7701TIP3    H144518   4.273   1.837  16.694 -2.7317  0.1085  1.6563
 7701TIP3    H244519   4.406   1.812  16.762 -0.8212 -0.4189 -1.9972
 7702TIP3   OH244520   2.447   0.121  11.350  0.8707  0.0170  0.3244
 7702TIP3    H144521   2.492   0.042  11.320  0.4048 -0.4352  0.8034
 7702TIP3    H244522   2.487   0.139  11.435  0.6678  0.0469  0.4123
 7703TIP3   OH244523   3.120   2.751  12.732  0.2065  0.4512  0.1846
 7703TIP3    H144524   3.161   2.819  12.678 -0.6059  1.8184  1.2256
 7703TIP3    H244525   3.029   2.778  12.740  0.2679  0.2091  2.1003
 7704TIP3   OH244526   6.310   2.322   1.667 -0.2345 -0.5455  0.5179
 7704TIP3    H144527   6.313   2.233   1.631  0.4266 -1.5393  2.8399
 7704TIP3    H244528   6.227   2.358   1.636 -0.3703 -1.8501 -0.7319
 7705TIP3   OH244529   5.964   3.381   2.708 -0.5255  0.3634 -0.0718
 7705TIP3    H144530   5.947   3.388   2.801 -2.8019 -0.3381 -0.3711
 7705TIP3    H244531   5.950   3.469   2.674  1.5930  0.9221  0.3744
 7706TIP3   OH244532   6.463   0.312  15.007 -0.0728  0.2116 -0.3578
 7706TIP3    H144533   6.385   0.350  15.048  0.2877  2.0117 -1.2562
 7706TIP3    H244534   6.534   0.334  15.067 -0.0708 -0.4345 -0.1120
 7707TIP3   OH244535   4.711   4.539  13.540 -0.1286 -0.0592 -0.0500
 7707TIP3    H144536   4.754   4.488  13.472  0.4047  0.4531 -0.1051
 7707TIP3    H244537   4.622   4.504  13.544  1.2148 -3.8460  2.7257
 7708TIP3   OH244538   3.762   0.578   0.591 -0.1977  0.6024 -0.2491
 7708TIP3    H144539   3.803   0.585   0.505 -1.9378 -2.1177 -1.4007
 7708TIP3    H244540   3.671   0.603   0.577 -0.9647 -1.6698  0.3161
 7709TIP3   OH244541   0.348   5.426  16.332 -0.3811  0.1974  0.0656
 7709TIP3    H144542   0.432   5.395  16.367 -0.2225 -0.6606 -1.0049
 7709TIP3    H244543   0.352   5.404  16.239 -1.2102  1.4614 -0.2884
 7710TIP3   OH244544   3.611   3.432  13.434 -0.4786 -0.6692  0.3480
 7710TIP3    H144545   3.538   3.381  13.400  0.2814 -1.5522 -0.0043
 7710TIP3    H244546   3.588   3.450  13.526 -1.0909 -1.0119  0.2623
 7711TIP3   OH244547   1.638   3.746  10.528 -0.2510 -0.1079  0.5162
 7711TIP3    H144548   1.640   3.685  10.603 -1.8073 -2.7839 -1.4518
 7711TIP3    H244549   1.726   3.738  10.490 -1.0565 -3.1590 -1.0610
 7712TIP3   OH244550   5.571   4.305   5.171 -0.5061 -0.3873  0.4813
 7712TIP3    H144551   5.593   4.392   5.138  1.3419 -1.5210 -1.5173
 7712TIP3    H244552   5.505   4.321   5.239 -0.7608  2.4874 -0.3160
 7713TIP3   OH244553   2.867   1.079  10.783 -0.0088 -0.3920  0.5461
 7713TIP3    H144554   2.872   1.092  10.878  0.3506 -0.4570  0.5364
 7713TIP3    H244555   2.869   0.984  10.772 -2.6609 -0.5323  0.6222
 7714TIP3   OH244556   4.647   3.492  15.056 -0.1939 -0.6760 -0.3342
 7714TIP3    H144557   4.691   3.575  15.041 -0.4676 -0.2652  0.9513
 7714TIP3    H244558   4.554   3.516  15.067  0.1087 -0.5417  3.6691
 7715TIP3   OH244559   5.761   2.119   5.018  0.3528  0.1439  1.0400
 7715TIP3    H144560   5.792   2.031   5.037 -0.8150 -0.1904  1.4351
 7715TIP3    H244561   5.712   2.145   5.096  0.7170  1.1714  0.9509
 7716TIP3   OH244562   2.979   4.974  13.385 -0.0465 -0.1753  0.2265
 7716TIP3    H144563   2.889   5.007  13.379  0.3207  0.7702 -0.3188
 7716TIP3    H244564   3.028   5.044  13.429  0.3416 -0.8786  0.9497
 7717TIP3   OH244565   6.244   3.913   0.177 -0.0048 -0.8536 -0.1355
 7717TIP3    H144566   6.232   3.868   0.260 -1.0982  0.2053  0.3186
 7717TIP3    H244567   6.169   3.885   0.123 -0.1653 -0.3539 -0.1865
 7718TIP3   OH244568   2.982   4.404   3.519 -0.7308 -0.1850 -0.1723
 7718TIP3    H144569   3.025   4.326   3.553 -0.4978 -0.1801 -0.4436
 7718TIP3    H244570   3.055   4.463   3.496 -0.9247  0.7818  1.5691
 7719TIP3   OH244571   4.754   4.606   0.265  0.4405 -0.2138 -0.5308
 7719TIP3    H144572   4.727   4.529   0.315  3.3807 -0.3959  0.9814
 7719TIP3    H244573   4.820   4.648   0.319  1.6889  1.2532 -3.0179
 7720TIP3   OH244574   2.595   2.391  15.637  0.6290  0.0658 -0.1920
 7720TIP3    H144575   2.504   2.400  15.663  0.2979  0.7687 -1.5118
 7720TIP3    H244576   2.593   2.386  15.542  1.8137 -2.0274 -0.1741
 7721TIP3   OH244577   1.166   2.961   4.435  0.3398 -0.1650 -0.0675
 7721TIP3    H144578   1.134   3.001   4.354 -0.6808 -1.2261 -0.2067
 7721TIP3    H244579   1.172   3.034   4.497 -1.4727  0.2420 -0.3213
 7722TIP3   OH244580   2.418   5.801   2.868 -0.6292  0.1698  0.7588
 7722TIP3    H144581   2.478   5.730   2.891 -0.9318  0.0254  1.1147
 7722TIP3    H244582   2.473   5.865   2.823 -0.0749  0.3114  1.6006
 7723TIP3   OH244583   1.060   5.183  16.558  0.0202  0.3482 -0.6519
 7723TIP3    H144584   1.052   5.260  16.501  3.0324  0.4469 -1.0723
 7723TIP3    H244585   1.100   5.216  16.638 -1.3748 -0.3415  0.3861
 7724TIP3   OH244586   5.733   4.017   0.740 -0.1708  0.4311 -0.0665
 7724TIP3    H144587   5.794   4.060   0.800  0.6828 -0.8773  0.0419
 7724TIP3    H244588   5.673   4.087   0.712  0.3590  1.3851  1.1093
 7725TIP3   OH244589   6.444   1.067  15.502  0.1545 -0.0850 -0.1401
 7725TIP3    H144590   6.501   1.031  15.435 -1.5937 -2.2935 -0.5676
 7725TIP3    H244591   6.504   1.101  15.569  1.9169  0.1936 -1.7909
 7726TIP3   OH244592   6.428   6.756   0.133 -0.2196 -0.2853 -0.6131
 7726TIP3    H144593   6.340   6.793   0.146  0.2049  0.8527 -0.8722
 7726TIP3    H244594   6.483   6.831   0.111  0.8806 -0.9534 -0.2276
 7727TIP3   OH244595   2.515   5.111   1.434  0.1997  0.7060  0.8703
 7727TIP3    H144596   2.428   5.152   1.428  0.2802  0.7285 -0.3677
 7727TIP3    H244597   2.496   5.018   1.451 -0.1480  0.4185 -0.8754
 7728TIP3   OH244598   4.458   2.539   6.151  0.5019  0.6586  0.6726
 7728TIP3    H144599   4.468   2.625   6.192  0.3575  0.4553  1.1360
 7728TIP3    H244600   4.495   2.478   6.214 -2.1757  0.0484  1.7519
 7729TIP3   OH244601   6.344   5.530  17.125 -0.3071 -0.5690 -0.3722
 7729TIP3    H144602   6.396   5.563  17.199 -0.8153  0.2917 -0.3920
 7729TIP3    H244603   6.334   5.437  17.144  1.5923 -0.8639 -0.5819
 7730TIP3   OH244604   3.707   4.706   0.527 -0.6088  0.7129 -0.0755
 7730TIP3    H144605   3.755   4.628   0.555  0.0073  0.4277 -1.8614
 7730TIP3    H244606   3.687   4.751   0.609 -0.8875 -1.2470  0.9944
 7731TIP3   OH244607   3.449   1.383   4.385 -0.0248 -0.4380 -0.1700
 7731TIP3    H144608   3.495   1.456   4.428 -0.3870  0.6115 -1.5055
 7731TIP3    H244609   3.417   1.330   4.457 -0.6781  1.3074  0.8961
 7732TIP3   OH244610   1.461   4.408   2.776 -0.4263 -0.1541  0.3360
 7732TIP3    H144611   1.531   4.433   2.716 -0.3677 -0.9186  0.0851
 7732TIP3    H244612   1.441   4.317   2.754 -0.6256 -0.3432  1.2521
 7733TIP3   OH244613   5.597   2.605   2.346  0.0004 -0.1310 -0.3444
 7733TIP3    H144614   5.568   2.518   2.374  0.5609 -0.2501 -0.1275
 7733TIP3    H244615   5.686   2.592   2.313  0.4829  0.5257  0.6427
 7734TIP3   OH244616   5.951   5.929  11.520 -0.0516 -0.0842 -0.1878
 7734TIP3    H144617   6.014   5.987  11.478 -0.4141 -0.7807 -1.7648
 7734TIP3    H244618   5.944   5.961  11.610  1.0438  1.2206 -0.5510
 7735TIP3   OH244619   6.713   1.125  11.758  0.1924 -0.4459 -0.2613
 7735TIP3    H144620   6.771   1.048  11.764  0.0692 -0.5683 -0.6223
 7735TIP3    H244621   6.627   1.091  11.783  0.0856 -0.4887 -0.6759
 7736TIP3   OH244622   1.066   4.554  10.670 -0.1394 -0.7628 -0.0599
 7736TIP3    H144623   1.036   4.469  10.703 -1.0521 -1.5321 -2.6477
 7736TIP3    H244624   0.986   4.607  10.666  0.3284  0.0487  0.9610
 7737TIP3   OH244625   1.558   5.534  14.069 -0.1093  0.0329  0.2730
 7737TIP3    H144626   1.609   5.522  14.149  1.4116 -1.8038 -0.8786
 7737TIP3    H244627   1.579   5.458  14.016 -1.4910  0.9312 -1.6761
 7738TIP3   OH244628   2.921   6.298   1.600  0.2079 -0.0241 -0.3006
 7738TIP3    H144629   2.910   6.287   1.694 -2.0536 -1.4321 -0.6297
 7738TIP3    H244630   2.978   6.225   1.574 -0.8597 -0.9072 -0.2491
 7739TIP3   OH244631   6.319   6.699   5.490 -0.0112 -0.5898  0.0050
 7739TIP3    H144632   6.366   6.782   5.478 -0.1434 -0.4219  0.6140
 7739TIP3    H244633   6.388   6.633   5.497  0.0975 -0.5217 -0.3632
 7740TIP3   OH244634   2.688   2.749   5.724  0.3041  0.0213 -0.0355
 7740TIP3    H144635   2.668   2.795   5.806 -0.3496  1.2098 -0.8344
 7740TIP3    H244636   2.782   2.762   5.712  0.1218  1.2575 -0.2817
 7741TIP3   OH244637   5.122   3.727   6.082 -0.3070 -0.0988 -0.1448
 7741TIP3    H144638   5.157   3.795   6.140  1.3775 -2.7784  2.2191
 7741TIP3    H244639   5.087   3.661   6.141  0.2316 -2.3549 -2.1946
 7742TIP3   OH244640   4.994   1.945  14.249 -0.3211 -0.4012  0.2546
 7742TIP3    H144641   4.931   2.017  14.241  1.3647  1.0570 -0.5413
 7742TIP3    H244642   5.064   1.981  14.303  1.6015 -0.6180 -1.9524
 7743TIP3   OH244643   4.676   5.236   0.914  0.1717 -0.4365 -0.3511
 7743TIP3    H144644   4.643   5.179   0.845 -0.2375 -1.4357  0.6473
 7743TIP3    H244645   4.770   5.217   0.918  0.7310  1.4225 -2.2608
 7744TIP3   OH244646   3.953   6.348   5.460 -0.3218 -0.1818 -0.5907
 7744TIP3    H144647   3.860   6.326   5.447 -0.5512  0.5602 -0.2149
 7744TIP3    H244648   3.986   6.367   5.372 -0.8641  0.8562 -0.5833
 7745TIP3   OH244649   2.046   6.088   4.329 -0.3224 -0.0481  0.5098
 7745TIP3    H144650   1.981   6.117   4.265  0.9442 -1.0709 -1.3371
 7745TIP3    H244651   2.079   6.169   4.369 -1.5347  0.5742  0.2824
 7746TIP3   OH244652   0.492   4.242   2.249 -0.4571 -0.3433 -0.0646
 7746TIP3    H144653   0.439   4.243   2.170 -2.1156  0.0505  1.0057
 7746TIP3    H244654   0.575   4.283   2.224 -0.3898 -1.5180 -1.9331
 7747TIP3   OH244655   2.335   0.536  12.014 -0.5059 -0.3363  0.7415
 7747TIP3    H144656   2.314   0.619  12.057  0.1747  0.5423 -0.5404
 7747TIP3    H244657   2.263   0.522  11.952 -1.2972 -1.4090  1.8589
 7748TIP3   OH244658   0.175   6.474  17.137 -0.2298 -0.0464  0.6055
 7748TIP3    H144659   0.116   6.414  17.091 -2.0078  0.3629  2.2349
 7748TIP3    H244660   0.244   6.417  17.172  0.8032 -0.4561 -1.8169
 7749TIP3   OH244661   2.322   4.576  16.064 -0.1177  0.3423  0.2324
 7749TIP3    H144662   2.365   4.501  16.023  0.0286  1.8243 -2.6024
 7749TIP3    H244663   2.243   4.539  16.105  0.6695 -1.5178  0.1508
 7750TIP3   OH244664   4.861   5.015   1.778  0.3086  0.5796 -0.6394
 7750TIP3    H144665   4.880   5.087   1.718 -2.3253  1.9748  0.0376
 7750TIP3    H244666   4.852   5.057   1.864  0.9450 -0.9033  0.1848
 7751TIP3   OH244667   3.263   6.466   3.021 -0.3371 -0.1867  0.5350
 7751TIP3    H144668   3.182   6.498   3.059 -0.8385  1.1027 -1.4491
 7751TIP3    H244669   3.252   6.478   2.927  2.8497  1.9634  0.2436
 7752TIP3   OH244670   4.105   1.977   2.188 -1.1653  0.1587 -0.4001
 7752TIP3    H144671   4.076   1.927   2.265 -0.0068 -1.5676 -1.0403
 7752TIP3    H244672   4.178   2.031   2.220  0.8807 -2.2744 -0.6947
 7753TIP3   OH244673   3.420   5.746  13.128  0.2047  0.4156  0.2946
 7753TIP3    H144674   3.412   5.715  13.038  1.0631 -0.3571  0.4710
 7753TIP3    H244675   3.405   5.841  13.122 -0.0039  0.3348 -0.6157
 7754TIP3   OH244676   3.651   2.487  16.868  0.1769  0.1804  0.2152
 7754TIP3    H144677   3.666   2.449  16.782 -0.3914 -1.0313  0.6212
 7754TIP3    H244678   3.739   2.503  16.903  0.4224  1.8840 -1.0588
 7755TIP3   OH244679   0.208   4.013  14.037  0.1404 -0.2066 -0.4064
 7755TIP3    H144680   0.208   3.993  14.130 -0.6668 -1.3407 -0.6288
 7755TIP3    H244681   0.115   4.021  14.015  0.3498  1.7754 -0.7849
 7756TIP3   OH244682   3.701   0.542  13.878 -0.1737  0.1389 -0.2079
 7756TIP3    H144683   3.642   0.469  13.860  0.2918 -0.5255  0.8392
 7756TIP3    H244684   3.743   0.561  13.794 -3.0502  1.7606 -1.4159
 7757TIP3   OH244685   3.144   0.559   0.685  0.5642  0.1392 -0.3365
 7757TIP3    H144686   3.213   0.583   0.747  0.1656  1.3573 -0.3439
 7757TIP3    H244687   3.071   0.617   0.707  0.0999 -0.0529 -1.3509
 7758TIP3   OH244688   0.363   3.789   4.660 -0.3599 -0.1794 -0.2951
 7758TIP3    H144689   0.386   3.760   4.572 -2.4392 -1.4122 -0.5013
 7758TIP3    H244690   0.336   3.880   4.650  1.8536  0.5178 -0.4352
 7759TIP3   OH244691   6.025   0.737   1.583 -0.7225 -0.3094  0.3972
 7759TIP3    H144692   5.943   0.688   1.577 -2.7652  2.7321  1.2913
 7759TIP3    H244693   6.092   0.670   1.596 -2.8030 -3.0596 -1.7668
 7760TIP3   OH244694   4.620   3.446   2.164  0.2921  0.6081  0.2783
 7760TIP3    H144695   4.557   3.403   2.107  1.1264 -1.0594  0.5629
 7760TIP3    H244696   4.590   3.537   2.168 -0.6373  0.4425 -1.6073
 7761TIP3   OH244697   4.831   0.054  16.591 -0.4669  0.0538  0.3185
 7761TIP3    H144698   4.758  -0.006  16.607 -2.5856  2.6136  0.8326
 7761TIP3    H244699   4.835   0.063  16.496 -1.5444  0.6730  0.3166
 7762TIP3   OH244700   4.456   2.573  16.651 -0.1900 -0.0517 -0.0821
 7762TIP3    H144701   4.526   2.634  16.626  0.1595 -0.6029 -0.4762
 7762TIP3    H244702   4.434   2.597  16.741  1.0693 -0.3697  0.3389
 7763TIP3   OH244703   4.533   1.424  14.824  0.2078  0.0767 -0.1816
 7763TIP3    H144704   4.441   1.418  14.798 -0.0984  0.9202  0.6686
 7763TIP3    H244705   4.581   1.417  14.742 -0.6151 -0.2862 -0.6466
 7764TIP3   OH244706   3.686   3.612   3.617 -0.2418 -0.3569  0.3115
 7764TIP3    H144707   3.747   3.544   3.646  2.6918  1.6075 -0.7972
 7764TIP3    H244708   3.628   3.625   3.692  2.0901 -0.8505  2.3387
 7765TIP3   OH244709   5.615   0.028  11.705 -0.1006 -0.3395  0.0899
 7765TIP3    H144710   5.648  -0.060  11.685  0.1465 -0.0366 -0.9047
 7765TIP3    H244711   5.613   0.032  11.800 -0.6978 -1.6394  0.1579
 7766TIP3   OH244712   3.194   4.353   6.094 -0.0943  0.0750  0.0471
 7766TIP3    H144713   3.269   4.296   6.107  0.0241  0.5394  1.6837
 7766TIP3    H244714   3.124   4.313   6.145 -0.4873  0.5017 -0.1451
 7767TIP3   OH244715   6.722   5.249   0.591  0.2298 -0.0600 -0.3472
 7767TIP3    H144716   6.796   5.298   0.554  0.4399  0.0481  0.2062
 7767TIP3    H244717   6.761   5.197   0.661 -0.0757 -0.6667 -0.6230
 7768TIP3   OH244718   4.003   4.136  16.140  0.2770 -1.1590 -0.5133
 7768TIP3    H144719   3.947   4.161  16.067  1.9597  0.4348 -1.3502
 7768TIP3    H244720   3.947   4.145  16.217 -0.6121  0.4596 -1.2993
 7769TIP3   OH244721   2.353   3.520  16.480 -0.0758  0.1524  0.0994
 7769TIP3    H144722   2.428   3.461  16.478 -0.6720 -0.6113 -1.5680
 7769TIP3    H244723   2.383   3.594  16.533  1.5400 -0.5412  0.2229
 7770TIP3   OH244724   1.571   2.402  11.610  0.4322  0.1391  0.8122
 7770TIP3    H144725   1.551   2.330  11.550  0.6608  0.6594  0.0844
 7770TIP3    H244726   1.644   2.370  11.662  0.3894 -0.2356  0.6491
 7771TIP3   OH244727   5.345   6.408  15.062  0.1922  0.5914 -0.5530
 7771TIP3    H144728   5.270   6.366  15.103  0.1942  0.6285 -0.5119
 7771TIP3    H244729   5.401   6.335  15.036 -0.6099  0.4869 -2.0609
 7772TIP3   OH244730   6.158   5.633  14.082 -0.4938  0.6919  0.1597
 7772TIP3    H144731   6.230   5.696  14.085  0.4363  0.0817 -3.7542
 7772TIP3    H244732   6.196   5.551  14.112 -0.6145  1.1087  1.5042
 7773TIP3   OH244733   5.629   1.746   1.101  0.6490  0.6758  0.0116
 7773TIP3    H144734   5.617   1.666   1.151  1.7673 -0.2233 -1.0737
 7773TIP3    H244735   5.573   1.810   1.144  0.0111 -0.5807  1.1382
 7774TIP3   OH244736   3.551   0.058   2.495 -0.3419 -0.0677 -0.8043
 7774TIP3    H144737   3.582   0.135   2.543 -1.8160 -0.1987  0.4354
 7774TIP3    H244738   3.543   0.089   2.404 -1.2823  1.3875 -0.2692
 7775TIP3   OH244739   0.044   0.721   4.843  0.2852  0.1611 -0.0636
 7775TIP3    H144740   0.002   0.773   4.912 -0.7988  1.4285 -1.6166
 7775TIP3    H244741   0.002   0.635   4.848 -1.5763  0.9847 -0.6777
 7776TIP3   OH244742   1.343   3.567   3.182 -0.2721 -0.4797 -0.0301
 7776TIP3    H144743   1.408   3.537   3.245 -0.8495 -1.8820 -0.0715
 7776TIP3    H244744   1.342   3.501   3.113  0.3102  0.9862 -1.5321
 7777TIP3   OH244745   4.873   6.133   4.514  0.3184 -0.0753  0.4843
 7777TIP3    H144746   4.865   6.223   4.547  0.8562 -0.3025  1.2816
 7777TIP3    H244747   4.942   6.137   4.448  1.2369 -0.1153  1.4141
 7778TIP3   OH244748   3.026   1.950  15.334 -0.3372 -0.5918  0.3943
 7778TIP3    H144749   2.972   1.943  15.255 -0.7858  1.0666  0.5124
 7778TIP3    H244750   2.978   2.011  15.390  1.8423  1.3069  0.3288
 7779TIP3   OH244751   5.157   1.125  16.925  0.6858  0.7421  0.1423
 7779TIP3    H144752   5.163   1.219  16.945  0.1622  0.4202  2.0748
 7779TIP3    H244753   5.082   1.119  16.865  0.2786  1.5113  0.5442
 7780TIP3   OH244754   5.340   0.255   4.988 -0.6843 -0.6060 -0.0349
 7780TIP3    H144755   5.245   0.260   4.989 -0.6858 -0.0146 -1.5238
 7780TIP3    H244756   5.364   0.263   4.896  0.7903 -1.1682  0.2705
 7781TIP3   OH244757   4.795   3.008   1.925  0.3471 -0.1753 -0.0747
 7781TIP3    H144758   4.743   3.087   1.941  0.0243 -0.3989 -0.0272
 7781TIP3    H244759   4.763   2.944   1.988  1.5372  0.0679  0.8054
 7782TIP3   OH244760   3.889   0.371   3.783  0.3282  0.0809 -0.1881
 7782TIP3    H144761   3.880   0.450   3.731  0.7711  0.4148  0.2392
 7782TIP3    H244762   3.949   0.316   3.734  0.3703  0.1937 -0.2632
 7783TIP3   OH244763   0.462   3.583  12.846 -0.3177  0.4265  0.1442
 7783TIP3    H144764   0.459   3.552  12.936 -0.0554  1.1973  0.4210
 7783TIP3    H244765   0.476   3.503  12.794 -1.8485 -0.2168  0.6528
 7784TIP3   OH244766   1.162   0.009  11.189  0.0832  0.1794 -0.0042
 7784TIP3    H144767   1.250  -0.005  11.223  0.0845 -0.1482 -0.1336
 7784TIP3    H244768   1.160  -0.041  11.107 -1.3029 -2.7251  1.6715
 7785TIP3   OH244769   2.190   4.192   1.834 -0.2104  0.3765 -0.6673
 7785TIP3    H144770   2.205   4.247   1.757 -2.8517  0.8703 -0.9251
 7785TIP3    H244771   2.095   4.192   1.845  0.0033 -0.7699  1.8310
 7786TIP3   OH244772   3.370   3.808  15.699  0.2015 -0.1369 -0.0165
 7786TIP3    H144773   3.383   3.881  15.638  0.0914  0.5487  0.7697
 7786TIP3    H244774   3.449   3.755  15.690  1.1183  1.0473  0.7104
 7787TIP3   OH244775   6.513   2.211  15.902  0.0457  0.0612  0.5298
 7787TIP3    H144776   6.571   2.197  15.827  0.2230 -3.1225  1.1326
 7787TIP3    H244777   6.505   2.307  15.908 -0.8698  0.5393 -4.1952
 7788TIP3   OH244778   2.125   0.525   3.580 -0.1262  0.0330  0.1599
 7788TIP3    H144779   2.148   0.446   3.531 -0.5032 -0.6710  1.0917
 7788TIP3    H244780   2.206   0.576   3.582  0.7040 -1.2662  1.2547
 7789TIP3   OH244781   5.140   4.935  16.011 -0.5834  0.3743 -0.2914
 7789TIP3    H144782   5.235   4.928  16.005 -0.5358 -0.2118  0.8231
 7789TIP3    H244783   5.110   4.935  15.921  0.7020  4.8534 -0.9859
 7790TIP3   OH244784   2.119   1.398  16.422  0.0836 -0.2530 -0.1991
 7790TIP3    H144785   2.102   1.364  16.334 -1.5242  2.1491 -0.9182
 7790TIP3    H244786   2.060   1.347  16.478 -0.4271 -0.3945 -0.8411
 7791TIP3   OH244787   6.506   4.735  10.992 -0.4920  0.5056  0.1063
 7791TIP3    H144788   6.429   4.777  10.953  0.5564  2.8597  0.4612
 7791TIP3    H244789   6.579   4.793  10.973  0.9370 -0.7920  1.2782
 7792TIP3   OH244790   3.236   1.252   1.225  0.2167  0.2847  0.2870
 7792TIP3    H144791   3.170   1.289   1.166 -0.6416 -0.4382  0.7598
 7792TIP3    H244792   3.290   1.326   1.250 -0.3429  0.8791 -0.2212
 7793TIP3   OH244793   6.194   0.474   1.603  0.3008  0.4871 -0.6187
 7793TIP3    H144794   6.175   0.464   1.696 -1.6299 -1.3060 -1.1520
 7793TIP3    H244795   6.205   0.385   1.570  2.5057  1.1294 -1.8715
 7794TIP3   OH244796   1.493   6.143   3.324  0.3185  0.3541 -0.3357
 7794TIP3    H144797   1.588   6.126   3.323  0.3538  0.5476 -0.3065
 7794TIP3    H244798   1.463   6.106   3.407  0.2648 -0.2608 -0.6244
 7795TIP3   OH244799   5.747   5.364   1.114 -0.7819  0.0943 -0.0495
 7795TIP3    H144800   5.777   5.336   1.028  1.3313  0.5690  0.4863
 7795TIP3    H244801   5.743   5.459   1.109 -1.7440  0.0679  0.0559
 7796TIP3   OH244802   0.580   5.957   0.578 -0.0318 -0.3354  0.2513
 7796TIP3    H144803   0.583   5.877   0.630  0.3109 -0.3368  0.2318
 7796TIP3    H244804   0.666   5.997   0.590 -0.3670  0.2850  0.6577
 7797TIP3   OH244805   4.385   6.210  12.614 -0.3904 -0.3253 -0.2005
 7797TIP3    H144806   4.358   6.119  12.598 -2.9731  0.4408 -0.6302
 7797TIP3    H244807   4.320   6.263  12.568  0.8791  1.7810  0.2840
 7798TIP3   OH244808   2.701   6.688  13.044 -0.4366  0.3016  0.7903
 7798TIP3    H144809   2.714   6.668  12.951  0.0061 -0.5267  1.0217
 7798TIP3    H244810   2.607   6.705  13.052 -0.8376 -1.5352  0.5272
 7799TIP3   OH244811   2.016   1.086   3.415 -0.1950 -0.1484 -0.1328
 7799TIP3    H144812   2.089   1.148   3.422 -0.7247  0.5947 -0.9459
 7799TIP3    H244813   2.058   1.003   3.394  0.3484  0.6099 -2.2986
 7800TIP3   OH244814   1.142   6.562  16.547 -0.1040 -0.6574 -0.5969
 7800TIP3    H144815   1.151   6.634  16.485 -0.3968 -1.0387 -1.0839
 7800TIP3    H244816   1.201   6.586  16.619 -1.2869  0.7829 -0.0589
 7801TIP3   OH244817   3.236   2.713   5.008 -0.1016 -0.5216 -0.0305
 7801TIP3    H144818   3.265   2.726   4.918 -0.5448 -1.1533 -0.2752
 7801TIP3    H244819   3.193   2.795   5.031  0.9615  0.0483 -0.0084
 7802TIP3   OH244820   2.485   1.079  16.606 -0.0474 -0.2540 -0.4504
 7802TIP3    H144821   2.395   1.062  16.580 -0.0092 -0.9353 -0.1649
 7802TIP3    H244822   2.484   1.166  16.644 -0.3382  0.2593 -1.6106
 7803TIP3   OH244823   0.610   5.569  14.295 -0.2040  0.2370 -0.3381
 7803TIP3    H144824   0.693   5.602  14.259  0.0349  0.6638  0.5770
 7803TIP3    H244825   0.634   5.532  14.380 -0.9250  0.1653 -0.1640
 7804TIP3   OH244826   5.604   4.513  16.787 -0.4325 -0.3097 -0.0808
 7804TIP3    H144827   5.589   4.520  16.693  0.4068 -0.6226 -0.2425
 7804TIP3    H244828   5.601   4.604  16.818  0.3191 -0.1009 -0.5823
 7805TIP3   OH244829   5.868   6.069  11.031  0.2075 -0.1152 -0.1397
 7805TIP3    H144830   5.864   6.099  10.940 -1.8790 -1.6175 -0.6205
 7805TIP3    H244831   5.851   6.147  11.083  0.0136  0.5016 -1.1108
 7806TIP3   OH244832   0.465   1.783   3.518  0.2191 -0.4789 -0.5039
 7806TIP3    H144833   0.475   1.806   3.611  0.7214 -0.4962 -0.5500
 7806TIP3    H244834   0.376   1.811   3.496 -0.2855 -1.4191  0.2508
 7807TIP3   OH244835   3.439   0.548  14.910 -0.2116 -0.2462  0.4731
 7807TIP3    H144836   3.436   0.541  14.814 -0.3417  0.9204  0.3722
 7807TIP3    H244837   3.347   0.560  14.935 -0.0416  0.9496  0.5884
 7808TIP3   OH244838   1.663   4.318   1.940 -0.3259 -0.5302 -0.0949
 7808TIP3    H144839   1.640   4.241   1.992 -0.9714  0.7349  1.5749
 7808TIP3    H244840   1.634   4.296   1.851 -0.2988 -2.2689  0.2870
 7809TIP3   OH244841   2.973   6.762  14.604  0.3207  0.1180 -0.0597
 7809TIP3    H144842   2.914   6.723  14.669  0.1837  0.6122  0.1186
 7809TIP3    H244843   3.053   6.782  14.654 -0.6679  2.8754  0.6384
 7810TIP3   OH244844   0.212   6.045   5.822  0.1988  0.4431 -0.3149
 7810TIP3    H144845   0.284   5.983   5.826 -0.4090 -0.4312 -2.1596
 7810TIP3    H244846   0.210   6.074   5.731 -1.7127  0.5032 -0.2874
 7811TIP3   OH244847   5.667   0.478  16.917 -0.1611  0.0438 -0.3802
 7811TIP3    H144848   5.763   0.470  16.914 -0.2540 -1.1113 -0.4060
 7811TIP3    H244849   5.653   0.566  16.954  0.9095 -0.0440  0.3011
 7812TIP3   OH244850   5.659   4.765   3.993 -0.0520 -0.5069 -0.0345
 7812TIP3    H144851   5.751   4.748   4.012 -0.0962 -0.0594  0.6301
 7812TIP3    H244852   5.626   4.683   3.955  0.5732 -0.7325 -0.0896
 7813TIP3   OH244853   2.810   5.155  11.218 -0.3117 -0.1186 -0.3362
 7813TIP3    H144854   2.750   5.187  11.286  1.2196  0.6962  0.6763
 7813TIP3    H244855   2.769   5.074  11.187 -2.0656  0.5458  0.1177
 7814TIP3   OH244856   5.429   1.914   1.179  0.3865 -0.2767  0.1011
 7814TIP3    H144857   5.444   1.864   1.259  0.6907  0.2391  0.3711
 7814TIP3    H244858   5.475   1.997   1.193 -1.4857  0.7692  0.3613
 7815TIP3   OH244859   4.010   1.925  16.771 -0.3710  0.6319  0.0048
 7815TIP3    H144860   3.963   1.843  16.758 -1.6697  1.1917  0.9959
 7815TIP3    H244861   4.092   1.899  16.814 -0.7051 -0.1591  0.1853
 7816TIP3   OH244862   3.826   2.529   1.924 -0.3394 -0.1491 -0.4827
 7816TIP3    H144863   3.764   2.586   1.969 -1.7294 -0.2694 -2.1268
 7816TIP3    H244864   3.903   2.529   1.980 -2.2112 -1.0041  2.3268
 7817TIP3   OH244865   2.407   0.540   0.669 -0.2285  0.3934  0.0722
 7817TIP3    H144866   2.497   0.542   0.701 -0.0718  0.5967 -0.3682
 7817TIP3    H244867   2.364   0.612   0.715 -0.0859  0.4839  0.0670
 7818TIP3   OH244868   1.292   4.272   5.509  0.2086  0.3172 -0.2417
 7818TIP3    H144869   1.275   4.222   5.589  0.2979 -0.2289 -0.5628
 7818TIP3    H244870   1.371   4.322   5.528  0.1811  0.2570  0.0394
 7819TIP3   OH244871   4.528   2.868   4.059  0.1361 -0.5415  0.0614
 7819TIP3    H144872   4.600   2.839   4.115 -1.0679 -1.4111  1.2018
 7819TIP3    H244873   4.452   2.875   4.117 -0.6653  0.6079 -1.0595
 7820TIP3   OH244874   6.382   3.597   0.173  0.2114 -0.1906 -0.0330
 7820TIP3    H144875   6.322   3.666   0.201 -0.8597 -0.2238 -2.0603
 7820TIP3    H244876   6.375   3.597   0.078  0.5532 -2.7701 -0.1141
 7821TIP3   OH244877   6.192   5.798   0.226  0.4973 -0.0325 -0.2333
 7821TIP3    H144878   6.244   5.719   0.217 -0.1374 -0.4888  0.0674
 7821TIP3    H244879   6.238   5.863   0.172  1.3568 -0.4250  0.0066
 7822TIP3   OH244880   3.354   0.613  13.480 -0.0892 -0.0661  0.2389
 7822TIP3    H144881   3.313   0.599  13.395  1.0383 -1.5308 -0.1104
 7822TIP3    H244882   3.282   0.639  13.538 -1.0410 -0.0364 -0.9208
 7823TIP3   OH244883   5.324   6.689  11.776  0.4125 -0.2111 -0.4305
 7823TIP3    H144884   5.380   6.731  11.711  1.4562  0.0637  0.6165
 7823TIP3    H244885   5.240   6.735  11.769  1.4904  2.0831  0.6201
 7824TIP3   OH244886   5.634   6.247  12.668 -0.3070  0.2948  0.3730
 7824TIP3    H144887   5.694   6.172  12.673 -0.6393  0.0673  1.2527
 7824TIP3    H244888   5.591   6.237  12.584 -0.7939 -0.8709  0.7360
 7825TIP3   OH244889   6.426   2.969  16.319  0.0074  0.5623  0.5589
 7825TIP3    H144890   6.389   2.886  16.288 -1.3155  1.2825  0.1455
 7825TIP3    H244891   6.391   2.979  16.408 -0.1963  0.8927  0.4420
 7826TIP3   OH244892   3.449   4.940  11.915 -0.4236  0.8415  0.5852
 7826TIP3    H144893   3.365   4.897  11.896  0.3578 -0.0176 -1.0966
 7826TIP3    H244894   3.511   4.868  11.927  0.1909  1.4780  1.3733
 7827TIP3   OH244895   5.309   4.967  13.800 -0.5186  0.0229 -0.4339
 7827TIP3    H144896   5.246   4.896  13.794  0.0507 -0.5032 -0.3342
 7827TIP3    H244897   5.374   4.947  13.733  0.8256 -0.7637  1.0421
 7828TIP3   OH244898   6.213   2.247   4.182 -0.5599 -0.0476 -0.2498
 7828TIP3    H144899   6.156   2.169   4.180  0.2695 -0.6665 -0.4496
 7828TIP3    H244900   6.159   2.316   4.144 -0.6294 -1.0218 -2.0787
 7829TIP3   OH244901   2.617   3.047   2.603  0.3315  0.8464 -0.4047
 7829TIP3    H144902   2.609   2.953   2.588  0.5484  0.6164  0.8699
 7829TIP3    H244903   2.617   3.085   2.515 -0.0260 -0.3159 -0.9236
 7830TIP3   OH244904   5.195   1.770   2.617  0.3110  0.0143  0.3633
 7830TIP3    H144905   5.220   1.679   2.633  0.8134  0.0743 -0.0497
 7830TIP3    H244906   5.135   1.791   2.689  2.3477  0.2141  2.1186
 7831TIP3   OH244907   0.063   0.764  14.467 -0.4635  0.0755 -0.3945
 7831TIP3    H144908   0.044   0.835  14.529  0.1391 -0.2835  0.2208
 7831TIP3    H244909   0.148   0.731  14.495  0.2106  0.4473 -1.9528
 7832TIP3   OH244910   0.970   4.017  15.256  0.8955  0.0264  0.2449
 7832TIP3    H144911   0.914   3.977  15.190  1.5173 -0.0863 -0.2274
 7832TIP3    H244912   0.922   4.008  15.338  0.1200  0.1505 -0.1855
 7833TIP3   OH244913   3.402   2.259   4.962 -0.1731 -0.3451 -0.0918
 7833TIP3    H144914   3.377   2.329   4.902  0.9702 -1.0891 -1.4824
 7833TIP3    H244915   3.363   2.180   4.924  1.9000 -1.0848 -0.7975
 7834TIP3   OH244916   1.074   1.913  11.332 -0.1409 -0.0078 -0.0393
 7834TIP3    H144917   1.035   1.887  11.249 -2.5592  2.0960  0.2780
 7834TIP3    H244918   1.109   2.001  11.316  1.8707 -0.6558  0.5187
 7835TIP3   OH244919   6.679   2.142  15.357  0.3893  0.4876 -0.6142
 7835TIP3    H144920   6.649   2.132  15.266 -1.8337  1.0629  0.0050
 7835TIP3    H244921   6.771   2.114  15.355  0.0499 -0.6574 -2.7917
 7836TIP3   OH244922   6.532   1.978   6.328  0.3104 -0.2449 -0.2493
 7836TIP3    H144923   6.489   1.968   6.413  3.1650 -0.1152  1.3080
 7836TIP3    H244924   6.590   2.054   6.339  2.4149 -1.5779 -1.5372
 7837TIP3   OH244925   2.977   0.668   2.686 -0.6683  0.2658 -0.2943
 7837TIP3    H144926   2.966   0.759   2.659 -1.9999 -0.4420 -2.3657
 7837TIP3    H244927   2.888   0.635   2.697 -0.2307 -0.1910  2.9237
 7838TIP3   OH244928   4.066   6.401  11.300 -0.4820 -0.5117 -0.3135
 7838TIP3    H144929   4.083   6.351  11.381  1.1301  1.0136  0.3599
 7838TIP3    H244930   4.096   6.343  11.230  0.4181 -0.9125  0.3811
 7839TIP3   OH244931   0.831   0.147   5.356 -0.8956 -0.5900 -0.4160
 7839TIP3    H144932   0.909   0.148   5.412 -1.1232  1.9398 -0.0290
 7839TIP3    H244933   0.837   0.228   5.305 -2.5811 -1.0224 -1.3614
 7840TIP3   OH244934   1.680   3.969  15.912  0.4608 -0.6207 -0.1869
 7840TIP3    H144935   1.635   3.901  15.962 -0.5858 -1.2114 -1.8374
 7840TIP3    H244936   1.610   4.026  15.881  0.9670 -0.8020 -1.7292
 7841TIP3   OH244937   6.415   4.548   1.004 -0.3932  0.0916 -0.1907
 7841TIP3    H144938   6.341   4.494   1.032 -1.7792  2.2435  0.5310
 7841TIP3    H244939   6.488   4.519   1.058 -1.2489 -0.6445  0.5938
 7842TIP3   OH244940   6.174   6.279   1.377 -0.3527  0.0848  0.3382
 7842TIP3    H144941   6.261   6.283   1.418  0.1594 -1.3858 -0.5404
 7842TIP3    H244942   6.120   6.233   1.440 -0.0451 -0.4921  0.1931
 7843TIP3   OH244943   0.388   1.874  11.360 -0.2005  0.3438 -0.5244
 7843TIP3    H144944   0.308   1.860  11.411 -0.0993 -0.2524 -0.5242
 7843TIP3    H244945   0.358   1.882  11.269 -0.1493 -1.2900 -0.7109
 7844TIP3   OH244946   2.183   1.495  11.743  0.2508  0.0614 -0.4094
 7844TIP3    H144947   2.158   1.586  11.758  0.5510  0.3748 -1.7205
 7844TIP3    H244948   2.219   1.494  11.655 -2.5021 -1.8566 -1.6719
 7845TIP3   OH244949   1.810   3.910  12.192 -0.1744 -0.2456 -0.7986
 7845TIP3    H144950   1.781   3.992  12.232  0.8689 -0.0342 -0.4500
 7845TIP3    H244951   1.767   3.842  12.243 -1.1353  0.0714 -1.1561
 7846TIP3   OH244952   4.193   1.723   4.756 -0.3327 -0.4316  0.5954
 7846TIP3    H144953   4.246   1.802   4.742 -0.3942 -0.7233 -1.6202
 7846TIP3    H244954   4.123   1.730   4.692 -1.8019 -1.0984  2.0598
 7847TIP3   OH244955   1.448   4.333  14.425 -0.4333  0.3833 -0.1176
 7847TIP3    H144956   1.503   4.255  14.426 -2.7132 -1.3660  0.6551
 7847TIP3    H244957   1.431   4.351  14.518 -1.8818  0.2530 -0.3273
 7848TIP3   OH244958   5.178   1.373  13.607 -0.5206  0.1987  0.1444
 7848TIP3    H144959   5.127   1.321  13.545 -0.8023 -0.2669  0.7623
 7848TIP3    H244960   5.259   1.393  13.560  0.4599 -2.4680  0.5443
 7849TIP3   OH244961   0.301   1.123   5.841  0.5652  0.0017  0.5510
 7849TIP3    H144962   0.212   1.122   5.875  0.2529 -0.9252 -0.2656
 7849TIP3    H244963   0.333   1.034   5.854  1.3620  0.3158  0.7942
 7850TIP3   OH244964   3.536   3.111  12.208  0.4755 -0.9014 -0.0599
 7850TIP3    H144965   3.606   3.154  12.257  0.2125 -0.1760 -0.3198
 7850TIP3    H244966   3.578   3.033  12.171  1.3488 -0.1038 -0.8178
 7851TIP3   OH244967   3.728   5.289   0.715  0.5848 -0.6024 -0.2725
 7851TIP3    H144968   3.721   5.252   0.627  0.1743 -1.8007  0.2510
 7851TIP3    H244969   3.675   5.369   0.711 -0.5514 -1.3563 -0.7422
 7852TIP3   OH244970   0.008   5.836   0.132 -0.0112  0.6971 -0.2993
 7852TIP3    H144971   0.018   5.842   0.227  0.2121  0.9863 -0.3412
 7852TIP3    H244972   0.089   5.795   0.102 -0.2876  0.1514 -0.3167
 7853TIP3   OH244973   3.657   5.512   0.351 -0.4794 -0.3882  0.0803
 7853TIP3    H144974   3.676   5.605   0.354  0.4997 -0.5334 -1.0102
 7853TIP3    H244975   3.634   5.489   0.441 -0.6370  0.8718  0.3807
 7854TIP3   OH244976   2.584   0.658   3.844 -0.2965 -0.3461  0.3001
 7854TIP3    H144977   2.528   0.674   3.920 -0.7665 -1.3005  0.1714
 7854TIP3    H244978   2.615   0.745   3.818  1.5370 -0.1100  2.8217
 7855TIP3   OH244979   0.548   5.190   0.944  0.0633 -0.2922  0.2896
 7855TIP3    H144980   0.590   5.104   0.940  1.1906  0.2333  0.2195
 7855TIP3    H244981   0.590   5.240   0.874 -1.0321  0.1331 -0.0860
 7856TIP3   OH244982   1.158   6.333   4.193  0.0872 -0.0761 -0.6364
 7856TIP3    H144983   1.131   6.247   4.161  1.2159 -0.7120  0.0307
 7856TIP3    H244984   1.253   6.325   4.205  0.1553  1.1458 -0.1971
 7857TIP3   OH244985   1.368   5.612   4.118 -0.0711  0.5663  0.3181
 7857TIP3    H144986   1.331   5.602   4.205  1.9513  0.0665  1.1722
 7857TIP3    H244987   1.462   5.602   4.130  0.2165 -0.2602 -2.0444
 7858TIP3   OH244988   5.416   5.159   2.436 -0.2542  0.5506 -0.1119
 7858TIP3    H144989   5.364   5.232   2.469 -0.7758  1.0552 -1.9662
 7858TIP3    H244990   5.500   5.168   2.480 -1.1400  0.7412  1.6097
 7859TIP3   OH244991   1.978   3.222  13.264  0.2340  0.0604  0.4775
 7859TIP3    H144992   1.939   3.138  13.239  1.9703 -0.8594  0.6802
 7859TIP3    H244993   2.072   3.204  13.267  0.5557  1.7498  1.5735
 7860TIP3   OH244994   4.740   6.100  15.871 -0.2257 -0.4014 -0.4929
 7860TIP3    H144995   4.788   6.148  15.939  0.2886  0.1025 -1.1940
 7860TIP3    H244996   4.763   6.145  15.789 -0.5533 -1.2126 -1.0445
 7861TIP3   OH244997   3.942   1.370   3.054  0.7128 -0.4997  0.1173
 7861TIP3    H144998   3.930   1.313   2.978 -2.4096  0.9506 -0.6314
 7861TIP3    H244999   3.854   1.382   3.090  1.7296  1.0812  2.3246
 7862TIP3   OH245000   2.294   3.599   4.969  0.1407 -0.0572 -0.0408
 7862TIP3    H145001   2.292   3.543   4.892 -0.7787 -2.5355  1.6311
 7862TIP3    H245002   2.382   3.587   5.005  0.4713  0.8624 -0.5194
 7863TIP3   OH245003   6.424   3.786   1.727  0.4103 -0.0130  0.1350
 7863TIP3    H145004   6.338   3.744   1.727  0.7133 -0.6757  1.5896
 7863TIP3    H245005   6.410   3.871   1.767 -0.3645  1.7815 -3.5362
 7864TIP3   OH245006   2.897   6.359  13.433  0.1268  0.2889 -0.0856
 7864TIP3    H145007   2.860   6.361  13.522  1.9974  2.5926  0.7461
 7864TIP3    H245008   2.866   6.276  13.396  0.7693 -1.6929  3.3771
 7865TIP3   OH245009   2.842   3.656   5.663  0.1015 -0.8034  0.1379
 7865TIP3    H145010   2.933   3.661   5.691 -0.0850 -1.5597  0.9078
 7865TIP3    H245011   2.815   3.747   5.652 -0.0815 -0.3894  3.3109
 7866TIP3   OH245012   3.005   5.283  15.122  0.5535 -0.0743  0.1663
 7866TIP3    H145013   2.920   5.314  15.090  0.9250  0.0733 -0.7103
 7866TIP3    H245014   3.045   5.360  15.162  0.6966  0.1177 -0.3393
 7867TIP3   OH245015   6.462   5.112   3.898 -0.4420 -0.6547  0.0117
 7867TIP3    H145016   6.512   5.044   3.944  0.1264 -0.2784 -0.0440
 7867TIP3    H245017   6.417   5.160   3.967  0.5514  0.0245  0.2013
 7868TIP3   OH245018   4.129   5.941   1.746 -0.1776 -0.8100 -0.3640
 7868TIP3    H145019   4.205   5.922   1.800  0.3015 -3.9452 -1.9230
 7868TIP3    H245020   4.164   5.954   1.658 -1.1154  2.3271 -0.4085
 7869TIP3   OH245021   0.418   5.742  15.820 -0.1609 -0.0718 -0.3435
 7869TIP3    H145022   0.442   5.664  15.769 -0.3736  0.6017 -1.5028
 7869TIP3    H245023   0.364   5.708  15.891 -1.3000 -0.8669 -1.5521
 7870TIP3   OH245024   5.463   5.463   3.745  0.0240 -0.0234 -0.1780
 7870TIP3    H145025   5.394   5.510   3.697  2.0385  0.9099 -2.3646
 7870TIP3    H245026   5.469   5.379   3.700 -0.1328 -0.3785  0.4550
 7871TIP3   OH245027   6.015   2.533  11.121  0.0162  0.3135  0.2463
 7871TIP3    H145028   5.957   2.585  11.177 -1.4980  1.0849 -1.9253
 7871TIP3    H245029   6.023   2.584  11.041  2.3045 -0.6441 -0.2165
 7872TIP3   OH245030   4.557   1.495  15.607  0.3162 -0.2364  0.7297
 7872TIP3    H145031   4.547   1.401  15.623 -0.8094 -0.2867 -0.1693
 7872TIP3    H245032   4.649   1.513  15.627  1.1631 -1.9803 -1.2933
 7873TIP3   OH245033   0.731   0.371   4.196  0.7865  0.1801  0.6186
 7873TIP3    H145034   0.744   0.324   4.278 -0.8537 -1.4565  0.0090
 7873TIP3    H245035   0.637   0.368   4.181  0.9299  1.4220 -0.7685
 7874TIP3   OH245036   4.008   6.687   0.078 -0.0641  0.3790 -0.0519
 7874TIP3    H145037   4.096   6.674   0.044  0.3781  2.0769  0.3483
 7874TIP3    H245038   3.957   6.615   0.040  1.2132  0.0638 -1.2682
 7875TIP3   OH245039   1.956   1.218   3.037  0.0175 -0.1011  0.9408
 7875TIP3    H145040   1.980   1.304   3.003 -2.2474 -0.0280 -0.6976
 7875TIP3    H245041   1.879   1.235   3.092 -0.8907 -1.0954  0.0388
 7876TIP3   OH245042   0.530   5.892  17.179 -0.0649 -0.0330 -0.1037
 7876TIP3    H145043   0.608   5.945  17.166  0.4222 -0.8757 -0.7056
 7876TIP3    H245044   0.465   5.953  17.214  0.2589  1.1209 -1.4361
 7877TIP3   OH245045   3.965   0.138   4.833 -0.4621  0.4834  0.1915
 7877TIP3    H145046   4.045   0.143   4.782 -0.9418 -3.2773 -1.2661
 7877TIP3    H245047   3.994   0.127   4.923  0.8878 -2.6569 -0.4957
 7878TIP3   OH245048   5.136   6.426   1.836  0.2244 -0.2604 -0.0754
 7878TIP3    H145049   5.135   6.366   1.761 -1.1016 -0.9175  0.4385
 7878TIP3    H245050   5.145   6.513   1.797 -0.5806 -0.5762 -1.0210
 7879TIP3   OH245051   0.838   4.930   4.372 -0.0976  0.0499 -0.1202
 7879TIP3    H145052   0.775   5.002   4.377  0.3780  0.4615 -0.0231
 7879TIP3    H245053   0.871   4.920   4.461 -0.1346 -0.2675 -0.1399
 7880TIP3   OH245054   6.625   0.955   6.466  0.3132  0.1386  0.2531
 7880TIP3    H145055   6.634   0.997   6.380 -1.5280  0.2098  0.0565
 7880TIP3    H245056   6.586   1.023   6.522 -1.5270 -0.8601  0.2638
 7881TIP3   OH245057   2.451   4.963  15.696  0.0143  0.3329  0.1164
 7881TIP3    H145058   2.407   4.927  15.773  0.1659  0.8661  0.4606
 7881TIP3    H245059   2.380   4.999  15.642  0.0054  1.1494  0.6473
 7882TIP3   OH245060   0.125   4.930  11.692  0.1965 -0.4545 -0.2007
 7882TIP3    H145061   0.169   5.006  11.655  0.4444  0.5029  1.9096
 7882TIP3    H245062   0.108   4.873  11.617 -0.0653  1.6841 -1.8543
 7883TIP3   OH245063   6.682   4.360  17.080 -0.5960  0.6890 -0.4690
 7883TIP3    H145064   6.682   4.265  17.092 -1.3013  0.4460 -2.1438
 7883TIP3    H245065   6.701   4.373  16.987 -0.0295  2.2163 -0.1713
 7884TIP3   OH245066   3.694   3.480   4.955 -0.0733  0.6620  0.1868
 7884TIP3    H145067   3.656   3.395   4.977  1.0274 -0.4690 -1.9870
 7884TIP3    H245068   3.639   3.513   4.884 -0.0975  1.4905  0.5768
 7885TIP3   OH245069   5.992   4.488  13.594  1.0095 -0.4136  0.4494
 7885TIP3    H145070   5.931   4.541  13.646  1.0560 -0.5469  0.6395
 7885TIP3    H245071   5.939   4.456  13.520  1.1420  0.4249 -0.0204
 7886TIP3   OH245072   5.094   5.370   3.785  0.0679 -0.0537  0.3404
 7886TIP3    H145073   5.136   5.443   3.740  0.9058  0.3086  1.6550
 7886TIP3    H245074   5.083   5.303   3.716  1.2530  0.4934 -0.4224
 7887TIP3   OH245075   6.134   3.480   2.336  1.0627  0.3612 -0.0934
 7887TIP3    H145076   6.190   3.454   2.263  1.8745  1.3575  0.1412
 7887TIP3    H245077   6.195   3.500   2.407  0.3743  0.9227  0.3551
 7888TIP3   OH245078   3.568   4.758  13.485 -0.0238 -0.0530  0.1198
 7888TIP3    H145079   3.529   4.781  13.569  2.9694  0.6320  1.4470
 7888TIP3    H245080   3.521   4.812  13.421 -0.0178  2.1105  1.8326
 7889TIP3   OH245081   5.106   2.787   4.845 -0.3102 -0.0578 -0.5386
 7889TIP3    H145082   5.051   2.712   4.820  1.0036 -1.0370 -0.5813
 7889TIP3    H245083   5.053   2.836   4.907 -2.0345  0.1550 -2.0712
 7890TIP3   OH245084   1.086   1.318   1.248  0.3996  0.2557  0.2183
 7890TIP3    H145085   1.128   1.232   1.245 -0.2573 -0.1188  1.1543
 7890TIP3    H245086   1.012   1.310   1.187  0.4073  0.1921  0.2170
 7891TIP3   OH245087   5.677   6.759  12.872 -0.3021  0.2741  0.1176
 7891TIP3    H145088   5.769   6.764  12.899 -0.0438 -1.4599 -0.3125
 7891TIP3    H245089   5.680   6.715  12.786 -1.5557 -0.2023  0.2982
 7892TIP3   OH245090   4.568   1.523   4.735 -0.3709  0.3390 -0.1441
 7892TIP3    H145091   4.509   1.458   4.772 -0.4912  1.5524  1.9815
 7892TIP3    H245092   4.633   1.538   4.804  1.7584 -0.0751 -1.9434
 7893TIP3   OH245093   0.959   0.293   1.115 -0.2954  0.1566  0.6294
 7893TIP3    H145094   0.983   0.257   1.030  0.7453 -0.6243  1.2243
 7893TIP3    H245095   0.875   0.338   1.100 -0.6804 -0.9049 -0.5517
 7894TIP3   OH245096   3.472   3.042  10.870  0.3005 -0.2821 -0.0045
 7894TIP3    H145097   3.466   3.117  10.929  3.8144 -1.4847  2.2512
 7894TIP3    H245098   3.551   3.059  10.818  0.4759 -1.8222 -0.2992
 7895TIP3   OH245099   1.114   2.981  14.523  0.1270  0.2393  0.4008
 7895TIP3    H145100   1.065   2.940  14.595 -0.1458  1.2537  0.8156
 7895TIP3    H245101   1.204   2.953  14.537 -0.0170 -0.0545  0.7860
 7896TIP3   OH245102   1.005   3.815   4.842 -0.3613 -0.5184 -0.2206
 7896TIP3    H145103   0.913   3.791   4.855 -1.1735  2.6081  0.7935
 7896TIP3    H245104   1.017   3.815   4.747 -1.9097  0.4911 -0.4543
 7897TIP3   OH245105   2.741   0.748   1.625  0.0771 -0.2047 -0.6288
 7897TIP3    H145106   2.688   0.674   1.654 -1.0389 -0.0831 -2.1961
 7897TIP3    H245107   2.830   0.713   1.620  0.2345 -0.4166  2.0692
 7898TIP3   OH245108   6.462   5.940  15.492 -0.0971  0.2732 -0.6496
 7898TIP3    H145109   6.532   5.875  15.497 -1.8394 -2.0990 -3.3173
 7898TIP3    H245110   6.494   6.007  15.432  0.7859  0.6052  0.1694
 7899TIP3   OH245111   6.542   1.847  13.225  0.5380  0.3556 -0.4381
 7899TIP3    H145112   6.543   1.751  13.224  1.1822  0.3641 -0.8814
 7899TIP3    H245113   6.616   1.871  13.281 -0.8044  0.5825  1.3004
 7900TIP3   OH245114   6.701   3.111  12.496  0.7547  0.2945  0.0233
 7900TIP3    H145115   6.668   3.198  12.477  1.0979  0.6415  0.9877
 7900TIP3    H245116   6.638   3.052  12.454 -0.9665  0.9369  1.5817
 7901TIP3   OH245117   3.767   3.751  16.773 -0.1833  0.1367  0.0814
 7901TIP3    H145118   3.824   3.824  16.796  1.8866 -0.3740 -2.8502
 7901TIP3    H245119   3.795   3.680  16.830 -0.9426  1.0537  1.6610
 7902TIP3   OH245120   5.329   1.001   4.701 -0.2614  0.1821  0.0985
 7902TIP3    H145121   5.271   1.076   4.703  1.6813  1.7740 -0.3514
 7902TIP3    H245122   5.404   1.029   4.649  0.2791 -2.2773 -0.5970
 7903TIP3   OH245123   2.860   0.371   1.556  0.2639 -0.7384  0.1781
 7903TIP3    H145124   2.906   0.365   1.471  0.1585 -0.1579  0.0791
 7903TIP3    H245125   2.854   0.465   1.573  0.0953 -0.8503  0.7318
 7904TIP3   OH245126   2.587   4.307   3.966 -0.1154 -0.1782 -0.1856
 7904TIP3    H145127   2.584   4.347   3.879 -2.2759  0.8723  0.2916
 7904TIP3    H245128   2.621   4.376   4.023  1.8166 -1.0394 -0.2258
 7905TIP3   OH245129   4.353   6.064  11.834  0.4346 -0.1859  0.0245
 7905TIP3    H145130   4.429   6.009  11.817  0.5933 -0.0729  0.3609
 7905TIP3    H245131   4.369   6.144  11.784 -0.1710 -0.7523 -1.1091
 7906TIP3   OH245132   3.211   0.381   1.434  0.5066  0.2546  0.5363
 7906TIP3    H145133   3.232   0.455   1.491 -1.2979  1.2882 -0.0415
 7906TIP3    H245134   3.257   0.400   1.352  0.6044  0.3806  0.6193
 7907TIP3   OH245135   1.455   4.473  13.386  0.3784  0.6586 -0.2837
 7907TIP3    H145136   1.387   4.536  13.408 -0.5167 -0.3255 -0.1354
 7907TIP3    H245137   1.535   4.509  13.426 -0.1859  1.4895  0.1259
 7908TIP3   OH245138   5.956   0.419  16.810 -0.2868  0.2779 -0.1537
 7908TIP3    H145139   6.012   0.463  16.874  0.8612 -0.0653 -0.8918
 7908TIP3    H245140   6.007   0.420  16.729 -0.4567 -1.8577 -0.3450
 7909TIP3   OH245141   1.012   5.825  12.754  0.4846 -0.9502 -0.3029
 7909TIP3    H145142   0.990   5.813  12.662 -0.4341 -2.4512  0.0657
 7909TIP3    H245143   1.018   5.736  12.789 -0.4274 -0.4094  1.3428
 7910TIP3   OH245144   2.888   3.736   4.510  0.5372  0.1407  0.6169
 7910TIP3    H145145   2.970   3.689   4.496 -0.2076 -1.7749  2.1795
 7910TIP3    H245146   2.841   3.729   4.427  1.1420 -0.4264  0.3169
 7911TIP3   OH245147   4.030   5.313  11.141  0.1240 -0.6925  0.1355
 7911TIP3    H145148   4.095   5.280  11.203 -0.0414 -1.8747 -0.2965
 7911TIP3    H245149   4.073   5.387  11.098  0.5960 -0.4775  0.9680
 7912TIP3   OH245150   5.198   1.102  16.236  0.3259  0.0409  0.3278
 7912TIP3    H145151   5.125   1.159  16.212 -1.5095 -1.7541  1.2808
 7912TIP3    H245152   5.277   1.152  16.213 -1.1795  1.7997 -1.3719
 7913TIP3   OH245153   5.922   6.634   0.768 -0.1342 -0.0542 -0.1033
 7913TIP3    H145154   5.837   6.678   0.757  0.6348  2.3463  2.2151
 7913TIP3    H245155   5.907   6.545   0.738 -2.7119  0.9680 -2.3036
 7914TIP3   OH245156   3.770   1.079   2.285 -0.5497  0.5134  1.0513
 7914TIP3    H145157   3.756   0.987   2.263  0.0812  0.6817 -0.1721
 7914TIP3    H245158   3.865   1.088   2.291 -0.6518  0.6144  3.4575
 7915TIP3   OH245159   1.542   0.089  16.102 -0.3806  0.6580  0.6180
 7915TIP3    H145160   1.549   0.018  16.166 -1.3377 -0.4727 -0.4867
 7915TIP3    H245161   1.458   0.131  16.121 -1.9865 -1.3615 -1.4597
 7916TIP3   OH245162   4.724   4.732   4.358 -0.2277 -0.3214  0.0026
 7916TIP3    H145163   4.675   4.745   4.439 -1.5032  0.1588 -0.8206
 7916TIP3    H245164   4.723   4.637   4.345 -1.0724 -0.3170 -0.0590
 7917TIP3   OH245165   0.847   5.298   4.834  0.3430  0.0315  0.2897
 7917TIP3    H145166   0.916   5.313   4.899 -2.5100  2.9582  2.9732
 7917TIP3    H245167   0.865   5.362   4.765  1.4893 -0.7860 -0.2123
 7918TIP3   OH245168   4.167   1.444  12.778  0.4877  0.6316  0.0895
 7918TIP3    H145169   4.090   1.501  12.776  1.3542  1.8891  1.0722
 7918TIP3    H245170   4.136   1.363  12.818 -0.1131  1.5048  1.4578
 7919TIP3   OH245171   3.661   3.122  14.061 -0.4458 -0.0152 -0.5459
 7919TIP3    H145172   3.677   3.082  13.976  1.3780 -0.4784 -0.0251
 7919TIP3    H245173   3.689   3.056  14.125  0.1757  1.0861  0.3656
 7920TIP3   OH245174   5.435   3.007  10.994  0.1167 -0.5856 -0.2513
 7920TIP3    H145175   5.393   3.075  10.941  3.0874  1.1721 -0.6104
 7920TIP3    H245176   5.365   2.972  11.049 -2.1087  0.8164 -2.0303
 7921TIP3   OH245177   3.725   2.436  14.617  0.1232 -0.2183  0.1405
 7921TIP3    H145178   3.657   2.459  14.554  1.5540 -1.7189 -2.0900
 7921TIP3    H245179   3.720   2.340  14.624  1.9638 -0.3658 -0.0666
 7922TIP3   OH245180   3.664   5.112   0.957  0.0203 -0.6304  0.3676
 7922TIP3    H145181   3.589   5.149   1.003 -0.2860 -0.6663 -0.1010
 7922TIP3    H245182   3.665   5.158   0.873  0.7697 -0.3299  0.5292
 7923TIP3   OH245183   1.215   3.975   3.125 -0.3904  0.0999 -0.3222
 7923TIP3    H145184   1.207   3.931   3.210 -0.8434  1.5190  0.4102
 7923TIP3    H245185   1.130   4.018   3.113 -0.4034 -0.2530 -1.6097
 7924TIP3   OH245186   3.969   6.061  12.673  0.2124  0.0798  0.5316
 7924TIP3    H145187   3.923   5.983  12.702  0.9254 -1.0137 -1.1444
 7924TIP3    H245188   3.941   6.129  12.734 -0.6831 -1.3881  1.8380
 7925TIP3   OH245189   0.478   6.692   3.403  0.1317 -0.2668 -0.0755
 7925TIP3    H145190   0.411   6.761   3.398 -3.0608 -3.1044  0.1891
 7925TIP3    H245191   0.544   6.719   3.338 -0.8610  2.9911  0.0689
 7926TIP3   OH245192   3.765   3.177   0.620  0.0982  0.4192 -0.3847
 7926TIP3    H145193   3.688   3.132   0.585 -1.2652 -0.1220  2.9171
 7926TIP3    H245194   3.838   3.118   0.599 -0.7394 -0.2956 -1.4279
 7927TIP3   OH245195   6.611   1.196  14.713 -0.0475 -0.0424  0.4366
 7927TIP3    H145196   6.675   1.131  14.743  0.5025  1.0824  1.8172
 7927TIP3    H245197   6.656   1.280  14.724 -0.7418  0.6054 -1.2896
 7928TIP3   OH245198   3.055   3.856  11.130 -0.6541  0.4729  0.1514
 7928TIP3    H145199   3.101   3.887  11.052  1.5092  0.7740  1.4820
 7928TIP3    H245200   2.964   3.881  11.115  0.1270  2.7893 -1.1657
 7929TIP3   OH245201   2.920   5.453  16.598  0.1819 -0.0967 -0.3357
 7929TIP3    H145202   2.950   5.389  16.534  0.4714  2.2178 -2.6781
 7929TIP3    H245203   2.877   5.521  16.546 -4.7798 -0.7143  2.3619
 7930TIP3   OH245204   5.646   2.178  12.723 -0.0119 -0.3364  0.0163
 7930TIP3    H145205   5.560   2.138  12.712 -0.6654  1.4663 -2.1841
 7930TIP3    H245206   5.684   2.133  12.799 -2.4584 -1.8748  0.4388
 7931TIP3   OH245207   4.481   0.682  13.063  0.0959  0.1761  0.4128
 7931TIP3    H145208   4.447   0.595  13.041  2.3729 -0.9683  1.1253
 7931TIP3    H245209   4.501   0.723  12.979 -1.1447  0.1253  0.0688
 7932TIP3   OH245210   4.325   0.327   3.658  0.7325  0.0123 -0.3664
 7932TIP3    H145211   4.338   0.357   3.748 -1.0965 -0.3824  0.0690
 7932TIP3    H245212   4.353   0.401   3.604 -1.1235  1.5229  0.6164
 7933TIP3   OH245213   5.571   5.201   0.504 -0.1840 -0.0309 -0.6870
 7933TIP3    H145214   5.517   5.211   0.582  1.2338 -0.6110  0.4124
 7933TIP3    H245215   5.509   5.174   0.435 -1.1594 -1.8140  0.7938
 7934TIP3   OH245216   4.529   0.161  14.930  0.6825  0.3243  0.2654
 7934TIP3    H145217   4.566   0.243  14.897 -1.1491  0.7887 -0.7490
 7934TIP3    H245218   4.594   0.094  14.907  0.6097  0.9916 -2.2185
 7935TIP3   OH245219   0.262   3.194  14.027  0.1176 -0.4813  0.7306
 7935TIP3    H145220   0.262   3.137  13.950  0.1255 -1.4429  1.4230
 7935TIP3    H245221   0.340   3.168  14.076 -1.5525 -2.1851  2.6829
 7936TIP3   OH245222   4.417   6.259  13.180  0.0361 -0.3600  0.0477
 7936TIP3    H145223   4.392   6.237  13.270 -0.0170 -0.7490 -0.0640
 7936TIP3    H245224   4.390   6.184  13.128 -1.1890  0.4310 -0.5002
 7937TIP3   OH245225   5.183   4.052   3.753 -0.0991 -0.3224  0.1917
 7937TIP3    H145226   5.098   4.060   3.796 -1.1682 -0.6619 -1.7176
 7937TIP3    H245227   5.229   3.984   3.803 -2.1427 -2.2953 -0.4286
 7938TIP3   OH245228   3.833   6.321   4.193 -0.2275 -0.2076 -0.3781
 7938TIP3    H145229   3.858   6.254   4.255 -0.8581  0.6761  0.8644
 7938TIP3    H245230   3.755   6.361   4.230 -0.2530  0.7643 -1.4199
 7939TIP3   OH245231   6.622   0.822  14.967  0.4477 -0.4111  0.1332
 7939TIP3    H145232   6.670   0.904  14.982  2.8085 -1.7000 -0.0173
 7939TIP3    H245233   6.684   0.766  14.920 -0.6936 -2.7123  1.2448
 7940TIP3   OH245234   6.229   5.542  13.760  0.0089 -0.5235  0.0888
 7940TIP3    H145235   6.267   5.540  13.848 -1.1876 -0.8551  0.6127
 7940TIP3    H245236   6.225   5.450  13.733  0.8525 -0.3922 -0.5460
 7941TIP3   OH245237   3.128   4.024   0.709 -0.4455 -0.1639 -0.3067
 7941TIP3    H145238   3.068   4.071   0.767 -0.5022  0.3774 -0.7911
 7941TIP3    H245239   3.070   3.983   0.644 -0.2684  0.9853 -1.2267
 7942TIP3   OH245240   5.824   3.835   4.959  0.1744 -0.5187  0.5848
 7942TIP3    H145241   5.820   3.823   4.864  0.5924 -1.3677  0.6702
 7942TIP3    H245242   5.917   3.838   4.980  0.1395 -2.4642  1.2063
 7943TIP3   OH245243   3.512   2.475  11.771 -0.2047  0.0589 -0.3322
 7943TIP3    H145244   3.513   2.536  11.844  2.9492 -0.8808  0.5305
 7943TIP3    H245245   3.434   2.421  11.786  0.3767 -0.1273  2.3932
 7944TIP3   OH245246   0.941   6.268   4.641  0.0638  0.1152 -0.0806
 7944TIP3    H145247   0.873   6.227   4.695 -0.4692  1.1985  0.0857
 7944TIP3    H245248   1.023   6.239   4.681 -0.3142  0.3601  0.9079
 7945TIP3   OH245249   3.796   5.645   0.041 -0.5008  0.3757  0.0340
 7945TIP3    H145250   3.880   5.663   0.084 -0.1869  0.8996 -0.7767
 7945TIP3    H245251   3.820   5.601  -0.041 -1.1917 -3.4733  1.6522
 7946TIP3   OH245252   4.581   6.315  14.319  0.2044  0.0732 -0.0770
 7946TIP3    H145253   4.638   6.244  14.290 -0.7290 -0.3772 -0.8994
 7946TIP3    H245254   4.495   6.292  14.283 -0.5861  0.5274  1.4277
 7947TIP3   OH245255   0.207   6.226   4.418  0.0062 -0.1848  0.3642
 7947TIP3    H145256   0.142   6.169   4.377  0.6413 -0.5261 -0.1859
 7947TIP3    H245257   0.267   6.165   4.462  1.7568 -0.1228 -1.7496
 7948TIP3   OH245258   2.111   5.530  15.523  0.0171  0.3324  0.1877
 7948TIP3    H145259   2.205   5.528  15.542 -0.4241 -1.7050  2.7317
 7948TIP3    H245260   2.079   5.604  15.574 -0.1339 -0.8206  1.8385
 7949TIP3   OH245261   6.249   1.051   2.225 -0.7344  0.3888 -0.1020
 7949TIP3    H145262   6.216   1.029   2.138 -1.1648 -1.7943  0.5645
 7949TIP3    H245263   6.176   1.035   2.283 -0.0201  0.4358  0.8278
 7950TIP3   OH245264   4.152   0.677  11.366  0.3267  0.1398  0.1036
 7950TIP3    H145265   4.166   0.583  11.374 -1.7943 -0.4400 -1.9778
 7950TIP3    H245266   4.240   0.713  11.351  1.1536 -1.4933  0.7342
 7951TIP3   OH245267   0.015   0.438  13.812  0.3617  0.0798  0.1380
 7951TIP3    H145268   0.021   0.346  13.836 -0.8398 -0.1437 -0.3546
 7951TIP3    H245269   0.068   0.446  13.733  0.5179 -0.1780  0.2148
 7952TIP3   OH245270   6.668   5.206  11.469 -0.0475  0.3449 -0.6051
 7952TIP3    H145271   6.643   5.120  11.503  1.3519 -0.5379 -1.7362
 7952TIP3    H245272   6.602   5.225  11.402  0.1757 -0.2884 -1.0128
 7953TIP3   OH245273   2.842   1.533  16.984 -0.1350  0.0217 -0.2096
 7953TIP3    H145274   2.854   1.463  16.920 -1.1684 -0.1600 -0.2174
 7953TIP3    H245275   2.757   1.571  16.962 -0.6055 -0.1856  1.2020
 7954TIP3   OH245276   0.246   2.965  14.677 -0.0116 -0.1452 -0.7469
 7954TIP3    H145277   0.294   3.000  14.601 -1.4119 -0.1402 -1.6577
 7954TIP3    H245278   0.242   3.038  14.738  2.5549 -0.6057  0.1111
 7955TIP3   OH245279   1.899   1.957   0.821 -0.1479 -0.2318 -0.1267
 7955TIP3    H145280   1.848   1.906   0.883 -0.6635 -0.3220 -0.6230
 7955TIP3    H245281   1.899   2.046   0.857 -2.2192  0.1969 -1.0416
 7956TIP3   OH245282   0.408   2.737  14.373 -0.4436  0.0071  0.8053
 7956TIP3    H145283   0.374   2.754  14.286 -0.4108 -2.4097  0.2532
 7956TIP3    H245284   0.370   2.806  14.428 -0.3359  1.6583 -1.1059
 7957TIP3   OH245285   2.132   3.440  12.484  0.2100 -0.0529 -0.0324
 7957TIP3    H145286   2.051   3.395  12.460  0.6029  0.0357 -1.6386
 7957TIP3    H245287   2.182   3.374  12.532  0.5854 -1.2839 -1.9642
 7958TIP3   OH245288   2.599   0.489   1.291  0.0163  0.2578 -0.0192
 7958TIP3    H145289   2.519   0.516   1.247  2.3623  1.4407 -4.1127
 7958TIP3    H245290   2.577   0.407   1.335 -3.4825  0.8224 -0.4866
 7959TIP3   OH245291   0.666   2.209   3.239  0.3728 -0.6004 -0.1083
 7959TIP3    H145292   0.601   2.251   3.183  2.1016  0.9048 -1.0767
 7959TIP3    H245293   0.615   2.173   3.312 -1.5772  0.1120 -1.0474
 7960TIP3   OH245294   0.779   6.539   3.954  0.1612 -0.0597  0.1805
 7960TIP3    H145295   0.753   6.551   4.046 -1.0629 -1.6718  0.1148
 7960TIP3    H245296   0.778   6.444   3.943 -0.7759  0.1313 -1.7696
 7961TIP3   OH245297   6.478   4.422   1.879  0.0059  0.0650  0.8452
 7961TIP3    H145298   6.442   4.340   1.912 -1.3009 -0.5786 -1.8943
 7961TIP3    H245299   6.549   4.396   1.821 -0.7151  0.7813 -0.4187
 7962TIP3   OH245300   6.030   0.436  10.870  1.0283 -0.3482  0.6454
 7962TIP3    H145301   6.029   0.392  10.785 -0.1338 -0.8322  0.8823
 7962TIP3    H245302   6.064   0.524  10.852  0.7742 -0.4431 -0.3179
 7963TIP3   OH245303   5.736   2.642  11.347  0.2254  0.4257  0.1736
 7963TIP3    H145304   5.695   2.555  11.347  1.3912 -0.2346 -2.5905
 7963TIP3    H245305   5.690   2.690  11.278 -0.8419  2.3195  2.0940
 7964TIP3   OH245306   3.932   5.081  16.469  0.3817  0.0432  0.4354
 7964TIP3    H145307   3.867   5.014  16.490  0.5042  0.7098  3.3025
 7964TIP3    H245308   3.994   5.036  16.411 -0.6773 -1.6652  0.5632
 7965TIP3   OH245309   4.598   2.075   5.396  0.4522  0.2893 -0.4797
 7965TIP3    H145310   4.526   2.030   5.440  0.4026 -0.2265 -1.0814
 7965TIP3    H245311   4.556   2.144   5.345  0.1240 -1.4519 -2.6728
 7966TIP3   OH245312   0.771   5.353  13.855 -0.3812  0.3197  0.0049
 7966TIP3    H145313   0.693   5.390  13.896 -1.1847 -1.8508  0.5734
 7966TIP3    H245314   0.841   5.416  13.876 -1.4087  0.8847  1.9812
 7967TIP3   OH245315   6.405   0.298   6.123  0.0468  0.3155  0.2377
 7967TIP3    H145316   6.488   0.251   6.135  1.9047  3.1093 -0.5449
 7967TIP3    H245317   6.404   0.362   6.195 -0.9429  0.9587 -0.3378
 7968TIP3   OH245318   5.684   5.408  14.249  0.5474  0.5193 -0.8737
 7968TIP3    H145319   5.700   5.479  14.312  2.6180 -0.0578 -0.6881
 7968TIP3    H245320   5.710   5.328  14.295 -0.5288 -0.2567 -1.5376
 7969TIP3   OH245321   0.417   1.036  11.195 -0.3390  0.0804 -0.4062
 7969TIP3    H145322   0.323   1.025  11.185 -0.2302 -1.1127 -0.1875
 7969TIP3    H245323   0.426   1.097  11.269 -0.9315  0.8000 -0.9069
 7970TIP3   OH245324   6.376   6.606   3.639 -0.0357  0.2663  0.1310
 7970TIP3    H145325   6.463   6.571   3.655  1.5137  2.7816 -1.9636
 7970TIP3    H245326   6.363   6.595   3.545 -1.3324  1.2717  0.1637
 7971TIP3   OH245327   5.025   5.707   5.910 -0.3876  0.0649 -0.4970
 7971TIP3    H145328   4.971   5.689   5.987 -0.0612  3.3269  0.6693
 7971TIP3    H245329   5.114   5.713   5.945 -0.2294  1.5380 -1.0773
 7972TIP3   OH245330   2.041   3.137  11.889 -0.1760  0.1971 -0.1074
 7972TIP3    H145331   2.006   3.139  11.800 -0.9535  1.7675  0.1953
 7972TIP3    H245332   2.127   3.179  11.882 -0.9953  2.0262  0.1330
 7973TIP3   OH245333   1.537   0.506  16.417  1.1740  0.2901 -0.0516
 7973TIP3    H145334   1.511   0.477  16.329  3.5878 -0.6911 -0.5235
 7973TIP3    H245335   1.616   0.558  16.403  2.1129 -0.6161  1.5950
 7974TIP3   OH245336   0.527   4.155   5.168 -0.2520 -0.3037  0.1282
 7974TIP3    H145337   0.568   4.108   5.095  1.3532  1.9919 -0.5633
 7974TIP3    H245338   0.596   4.163   5.233 -0.6095  0.6729  0.4099
 7975TIP3   OH245339   3.843   0.004   0.525  0.2221  0.1011  0.1339
 7975TIP3    H145340   3.825  -0.072   0.470 -1.5314  0.6514 -0.1049
 7975TIP3    H245341   3.869  -0.033   0.610  1.8737 -0.7472 -0.6851
 7976TIP3   OH245342   5.501   2.462   3.509  0.4133 -0.2386  0.0865
 7976TIP3    H145343   5.574   2.480   3.449  1.3043  3.3854  2.0027
 7976TIP3    H245344   5.424   2.459   3.452  1.6152 -0.6217 -1.6009
 7977TIP3   OH245345   1.554   4.273   6.165  0.0833 -0.0089 -0.5195
 7977TIP3    H145346   1.620   4.218   6.123  1.7948  0.7304  1.0255
 7977TIP3    H245347   1.508   4.214   6.225 -0.3968 -0.4458 -1.3090
 7978TIP3   OH245348   1.802   2.483  16.525 -0.1263  0.3487  0.2534
 7978TIP3    H145349   1.869   2.542  16.490 -1.2649  1.1980 -0.5651
 7978TIP3    H245350   1.812   2.403  16.474  1.4197 -0.2230  1.3611
 7979TIP3   OH245351   0.342   2.213  11.273  0.1732 -0.3912  0.1762
 7979TIP3    H145352   0.286   2.233  11.348 -1.4093 -1.7301 -0.5829
 7979TIP3    H245353   0.389   2.295  11.256 -0.3060  0.2823  1.8817
 7980TIP3   OH245354   3.274   4.855  12.217 -0.1275 -0.2736 -0.4363
 7980TIP3    H145355   3.231   4.896  12.142  0.1998 -1.8313 -1.5504
 7980TIP3    H245356   3.204   4.807  12.261  0.0732 -1.3028 -1.1792
 7981TIP3   OH245357   3.408   2.365  15.672  0.0938 -0.1994 -0.0622
 7981TIP3    H145358   3.346   2.348  15.602 -3.2148  2.3628  1.9538
 7981TIP3    H245359   3.374   2.317  15.747  0.8983  0.7800  0.9718
 7982TIP3   OH245360   1.851   3.698  16.362  0.0295 -0.3297  0.3496
 7982TIP3    H145361   1.916   3.768  16.370  0.2000 -0.3455 -0.7143
 7982TIP3    H245362   1.832   3.694  16.268 -0.9547 -0.8313  0.5572
 7983TIP3   OH245363   2.736   1.731  14.919 -0.4834  0.2088 -0.0361
 7983TIP3    H145364   2.757   1.740  14.826 -1.2901  0.0160 -0.2433
 7983TIP3    H245365   2.694   1.645  14.925  1.5625 -0.7845  0.8745
 7984TIP3   OH245366   1.337   6.524   4.339  0.3766 -0.0821  0.2406
 7984TIP3    H145367   1.245   6.497   4.337 -0.1478  1.3719  2.3115
 7984TIP3    H245368   1.385   6.446   4.311 -1.4151 -1.1818  0.0780
 7985TIP3   OH245369   6.787   1.039   6.263 -0.0527  0.7368 -0.4492
 7985TIP3    H145370   6.822   1.041   6.174  0.5133  0.1567 -0.2538
 7985TIP3    H245371   6.856   1.080   6.316 -0.1186  0.5267 -0.1988
 7986TIP3   OH245372   1.434   0.721   4.078 -0.3668 -0.2371 -0.0803
 7986TIP3    H145373   1.443   0.636   4.122 -1.9403 -0.3976  0.0138
 7986TIP3    H245374   1.464   0.706   3.989 -0.4145 -0.8305  0.0004
 7987TIP3   OH245375   1.900   0.263   1.522 -0.8857  0.2049  0.1460
 7987TIP3    H145376   1.985   0.300   1.547 -2.2540  3.5693  0.3361
 7987TIP3    H245377   1.851   0.259   1.604 -0.7551 -2.4993  0.1802
 7988TIP3   OH245378   2.019   2.412  10.986 -0.5658  0.7017 -0.0021
 7988TIP3    H145379   2.019   2.441  10.895 -1.0931 -1.7609 -0.8655
 7988TIP3    H245380   2.085   2.343  10.990 -1.1580  0.1621  1.2478
 7989TIP3   OH245381   2.765   2.377  14.989 -0.6951  0.7301  0.1036
 7989TIP3    H145382   2.811   2.429  15.055  0.0570  0.0729  0.1124
 7989TIP3    H245383   2.832   2.352  14.927 -0.7473 -1.3168  0.7902
 7990TIP3   OH245384   1.161   5.028   6.334  0.3869 -0.1665  0.1553
 7990TIP3    H145385   1.120   4.942   6.345 -2.0230  0.8516 -0.1202
 7990TIP3    H245386   1.238   5.025   6.390  0.0191 -2.2911  0.6395
 7991TIP3   OH245387   1.928   1.143   0.349 -0.1653  0.2254 -0.4805
 7991TIP3    H145388   2.014   1.107   0.370 -0.7172 -0.4156  0.7900
 7991TIP3    H245389   1.908   1.107   0.263 -0.0687 -1.4063  0.1346
 7992TIP3   OH245390   0.549   1.323  14.922 -0.0594  0.0642 -0.1575
 7992TIP3    H145391   0.527   1.365  14.839 -0.0456 -1.7055 -1.1063
 7992TIP3    H245392   0.643   1.339  14.933 -0.3049  1.3864  0.1981
 7993TIP3   OH245393   0.392   1.909  13.204 -0.5619  0.0592  0.1559
 7993TIP3    H145394   0.320   1.969  13.183 -1.2204 -0.8271 -0.1956
 7993TIP3    H245395   0.349   1.826  13.227  0.3333 -0.4167  0.1771
 7994TIP3   OH245396   3.712   5.659  14.751 -0.3557  0.3495  0.0885
 7994TIP3    H145397   3.761   5.598  14.805 -2.8755 -1.7539  0.2104
 7994TIP3    H245398   3.778   5.705  14.699  1.7201 -1.9899  0.5233
 7995TIP3   OH245399   4.975   2.886  12.484  0.0548 -0.4186 -0.5150
 7995TIP3    H145400   4.998   2.885  12.577  0.4980 -1.4408 -0.6264
 7995TIP3    H245401   5.049   2.844  12.440 -0.2763 -0.1924 -1.3021
 7996TIP3   OH245402   4.519   0.507   2.217 -0.8537 -0.0943 -0.2365
 7996TIP3    H145403   4.610   0.511   2.190 -0.8038  0.7467  0.0463
 7996TIP3    H245404   4.509   0.419   2.254  0.0933  0.1420  0.6055
 7997TIP3   OH245405   4.183   1.541  17.179 -0.1095  0.3041  0.1371
 7997TIP3    H145406   4.105   1.584  17.212  0.1773  0.4038  0.6864
 7997TIP3    H245407   4.241   1.532  17.255  1.0475  1.5877 -0.5541
 7998TIP3   OH245408   5.323   2.281   1.608  0.3465 -0.2142  0.0946
 7998TIP3    H145409   5.319   2.222   1.533 -1.7936 -0.5513  0.4218
 7998TIP3    H245410   5.375   2.356   1.577  2.7302 -1.9737 -0.4712
 7999TIP3   OH245411   4.541   2.010   2.776  0.4108 -0.1922  0.9998
 7999TIP3    H145412   4.501   1.930   2.742  0.7121 -0.5203  1.4175
 7999TIP3    H245413   4.590   1.982   2.853  2.3303  0.0192 -0.0893
 8000TIP3   OH245414   0.051   1.769  17.142 -0.2982  0.7778 -0.1656
 8000TIP3    H145415   0.099   1.845  17.175  1.2256 -0.1138 -0.2206
 8000TIP3    H245416   0.060   1.775  17.046  2.0857 -0.7623 -0.1401
 8001TIP3   OH245417   5.384   4.136  16.183 -0.4756 -0.4277 -0.2609
 8001TIP3    H145418   5.406   4.166  16.271 -1.2869 -0.4704 -0.0360
 8001TIP3    H245419   5.442   4.185  16.125  2.2448 -2.5552  0.4656
 8002TIP3   OH245420   6.566   0.267   1.809  0.5740  0.2067 -0.3903
 8002TIP3    H145421   6.587   0.227   1.893  0.7416  2.9114  0.9839
 8002TIP3    H245422   6.651   0.297   1.775  0.2271  1.5755 -0.1144
 8003TIP3   OH245423   6.659   0.847  12.855  0.0633 -0.6681  0.6331
 8003TIP3    H145424   6.667   0.886  12.768 -1.2478  0.4696  0.9870
 8003TIP3    H245425   6.749   0.829  12.882  0.4826 -1.0151 -0.9375
 8004TIP3   OH245426   6.110   1.254   5.318 -0.2803 -0.4067  0.8712
 8004TIP3    H145427   6.144   1.295   5.398 -0.4314  0.9559  0.2654
 8004TIP3    H245428   6.178   1.191   5.293 -0.1517 -0.7324  1.9683
 8005TIP3   OH245429   4.034   2.825   1.589  0.1480  0.2022  0.3272
 8005TIP3    H145430   4.008   2.916   1.571 -0.9545 -0.5119 -2.1339
 8005TIP3    H245431   3.958   2.787   1.633  0.1729  0.1873  0.3567
 8006TIP3   OH245432   0.645   5.576  15.029  0.1730 -0.1163  0.9228
 8006TIP3    H145433   0.675   5.549  15.116  0.4272 -3.4070 -0.0435
 8006TIP3    H245434   0.715   5.549  14.970 -0.5886  0.8180 -0.4623
 8007TIP3   OH245435   1.866   0.961   2.445 -0.0998  0.5597 -0.3641
 8007TIP3    H145436   1.794   0.909   2.482  1.9893 -0.4602  2.6133
 8007TIP3    H245437   1.832   1.051   2.444 -1.6644  0.0239  0.2237
 8008TIP3   OH245438   4.207   3.545  13.912  0.1574  0.0895 -0.3749
 8008TIP3    H145439   4.253   3.472  13.872  1.1140  0.0442  0.7408
 8008TIP3    H245440   4.276   3.603  13.943 -0.5086  0.1257  1.1712
 8009TIP3   OH245441   4.972   5.037  13.721 -0.0631 -0.2204 -0.1282
 8009TIP3    H145442   4.949   5.092  13.795  1.6885  1.0215 -0.4398
 8009TIP3    H245443   4.972   4.948  13.756 -0.9274  0.1593  0.8997
 8010TIP3   OH245444   5.457   1.965   3.116 -0.1782 -0.5477  0.2360
 8010TIP3    H145445   5.478   2.058   3.104 -1.1629 -0.1255  1.5129
 8010TIP3    H245446   5.491   1.944   3.203 -1.1019 -1.0201  0.4909
 8011TIP3   OH245447   6.378   6.076   2.958 -0.1112 -0.0197 -0.4492
 8011TIP3    H145448   6.415   6.082   2.869  1.5977  1.3759  0.2827
 8011TIP3    H245449   6.388   5.984   2.981 -0.8932 -0.4785 -1.8169
 8012TIP3   OH245450   6.295   5.536   2.558 -0.5606 -0.7153 -0.4683
 8012TIP3    H145451   6.265   5.504   2.473  0.5477  0.9434 -1.5249
 8012TIP3    H245452   6.383   5.569   2.542  0.5993 -2.3971  1.8388
 8013TIP3   OH245453   2.656   5.498  12.634  0.3583 -0.0764  0.1588
 8013TIP3    H145454   2.610   5.442  12.572 -1.3005 -2.9475  3.6357
 8013TIP3    H245455   2.748   5.491  12.609 -0.1725 -1.6661 -1.5202
 8014TIP3   OH245456   3.939   2.239   5.660 -0.4676  0.6831  0.3803
 8014TIP3    H145457   3.954   2.181   5.735  1.9785  1.5063  0.6010
 8014TIP3    H245458   3.878   2.305   5.694 -1.8469 -0.6611  0.6611
 8015TIP3   OH245459   2.640   1.819   5.879 -0.2055 -0.5689 -0.1671
 8015TIP3    H145460   2.669   1.905   5.848  0.8878 -2.0912 -3.9892
 8015TIP3    H245461   2.551   1.811   5.846 -1.1583 -0.1287  2.1341
 8016TIP3   OH245462   4.885   5.153  13.956 -0.6122  0.0250  0.2876
 8016TIP3    H145463   4.892   5.143  14.051  0.0788  0.6264  0.3091
 8016TIP3    H245464   4.795   5.128  13.936 -0.7456 -0.1691  1.0913
 8017TIP3   OH245465   4.086   6.039   1.013  0.0587 -0.0324  0.1234
 8017TIP3    H145466   4.033   5.960   1.005 -0.7551  0.4750  0.4208
 8017TIP3    H245467   4.129   6.048   0.928 -1.1629  0.1272 -0.4968
 8018TIP3   OH245468   3.079   5.720  13.470 -0.3126 -0.2598  0.2826
 8018TIP3    H145469   3.115   5.671  13.544  0.4832  0.7815  0.6204
 8018TIP3    H245470   3.102   5.811  13.489 -3.6470  0.6054  0.8545
 8019TIP3   OH245471   3.748   0.962  12.018 -0.6288 -0.3871  0.2665
 8019TIP3    H145472   3.742   1.032  11.952 -0.7804  0.5713  1.2544
 8019TIP3    H245473   3.791   0.890  11.973 -0.2380  0.4387 -0.7245
 8020TIP3   OH245474   2.624   3.518   5.783 -0.1520 -0.3063 -0.1195
 8020TIP3    H145475   2.604   3.575   5.857 -2.4664  1.5657 -2.0082
 8020TIP3    H245476   2.698   3.560   5.739  0.5364 -0.8463  0.4875
 8021TIP3   OH245477   0.604   0.258   3.887  0.1774 -0.6436 -0.4122
 8021TIP3    H145478   0.662   0.185   3.907  0.2787 -1.0146 -1.9645
 8021TIP3    H245479   0.566   0.282   3.972  3.2524  0.2431  0.8504
 8022TIP3   OH245480   5.143   1.437  14.040  1.0108  0.8709  0.3503
 8022TIP3    H145481   5.212   1.390  13.994  0.9960  1.4117 -0.2575
 8022TIP3    H245482   5.070   1.438  13.977 -0.0827 -0.9294  1.5092
 8023TIP3   OH245483   2.525   0.332   3.913  0.0480 -0.2505 -0.7236
 8023TIP3    H145484   2.479   0.388   3.976 -0.9978 -0.0719 -1.6130
 8023TIP3    H245485   2.522   0.381   3.831  0.1108 -1.1088 -1.2514
 8024TIP3   OH245486   5.114   6.053   1.751 -0.5050 -0.5151 -0.6427
 8024TIP3    H145487   5.098   5.977   1.694  1.4205 -0.5134 -1.2805
 8024TIP3    H245488   5.170   6.019   1.821  0.1949  0.2441 -0.8122
 8025TIP3   OH245489   1.783   2.449   5.780 -0.5294  0.3136  0.1852
 8025TIP3    H145490   1.739   2.504   5.715 -1.4572 -1.5014 -0.8002
 8025TIP3    H245491   1.784   2.362   5.741  2.8421 -0.0059  0.7367
 8026TIP3   OH245492   6.458   2.885   1.368 -0.5124 -0.5666 -0.4964
 8026TIP3    H145493   6.515   2.950   1.410 -0.8065 -0.6673  0.0796
 8026TIP3    H245494   6.518   2.828   1.319 -0.0242 -1.0989  0.6729
 8027TIP3   OH245495   4.671   2.760   5.480 -0.6255 -0.8546  0.3951
 8027TIP3    H145496   4.626   2.830   5.432  0.4459 -2.3526 -3.1844
 8027TIP3    H245497   4.734   2.806   5.535 -1.3189  1.0383 -0.2784
 8028TIP3   OH245498   3.219   2.567  13.502 -0.2518  0.8426  0.0112
 8028TIP3    H145499   3.166   2.643  13.523 -0.3164  1.0366 -0.8106
 8028TIP3    H245500   3.156   2.501  13.472  0.0512  1.7014 -2.8172
 8029TIP3   OH245501   0.192   2.437   3.585  0.3352  0.2097 -0.0787
 8029TIP3    H145502   0.194   2.450   3.680  1.4385  1.5678 -0.2496
 8029TIP3    H245503   0.156   2.519   3.551 -0.2683 -0.3606 -0.8345
 8030TIP3   OH245504   3.770   2.489   5.711  0.3182  0.4727 -0.3199
 8030TIP3    H145505   3.687   2.472   5.754  0.6908 -0.8328 -0.0590
 8030TIP3    H245506   3.801   2.572   5.749 -0.1612  0.2141  0.6680
 8031TIP3   OH245507   3.034   5.020   2.477  0.6009  0.0980  0.5902
 8031TIP3    H145508   3.001   4.942   2.433  1.2722  0.6046 -0.8567
 8031TIP3    H245509   2.955   5.067   2.503  0.1087  0.7332 -1.8164
 8032TIP3   OH245510   1.004   0.392   4.592  0.1090  0.1738  0.1686
 8032TIP3    H145511   0.979   0.484   4.598  0.8036  0.4940 -1.4186
 8032TIP3    H245512   0.981   0.366   4.503  0.8571 -0.8982  0.2619
 8033TIP3   OH245513   5.132   3.231  17.187  0.2894 -0.1951 -0.0138
 8033TIP3    H145514   5.097   3.251  17.100  0.4862 -0.2268 -0.0987
 8033TIP3    H245515   5.057   3.196  17.235 -0.0108  0.5411  0.0691
 8034TIP3   OH245516   0.566   0.770   1.289 -0.0076 -0.7319 -0.1963
 8034TIP3    H145517   0.634   0.717   1.331 -0.8715 -0.5008  1.5540
 8034TIP3    H245518   0.560   0.849   1.341 -0.2683  0.1462 -1.4999
 8035TIP3   OH245519   4.560   4.575   0.593  1.0708 -0.2925  0.3918
 8035TIP3    H145520   4.519   4.540   0.672  1.1053 -0.0192  0.5347
 8035TIP3    H245521   4.624   4.639   0.626  0.6324  0.2929  0.1196
 8036TIP3   OH245522   1.256   6.123   4.038 -0.1775  0.0262  0.6627
 8036TIP3    H145523   1.280   6.153   3.951  2.0508 -1.4849  0.6895
 8036TIP3    H245524   1.279   6.031   4.040 -0.2876 -0.0118  2.8127
 8037TIP3   OH245525   6.610   6.261  11.556  0.0244 -0.0884  0.1666
 8037TIP3    H145526   6.657   6.326  11.608 -0.2466  0.0750  0.2069
 8037TIP3    H245527   6.677   6.196  11.533  0.1870 -0.0605  0.5533
 8038TIP3   OH245528   4.850   4.843   3.593 -0.6952  0.1657  0.6975
 8038TIP3    H145529   4.945   4.836   3.602 -0.7174  0.2669  1.0196
 8038TIP3    H245530   4.815   4.789   3.664 -0.8661  1.3472  1.5511
 8039TIP3   OH245531   5.711   5.369   2.639 -0.3023 -0.1776 -0.0864
 8039TIP3    H145532   5.750   5.442   2.688 -0.3977 -0.5851  0.6167
 8039TIP3    H245533   5.653   5.411   2.576  0.3926  0.3962 -0.3613
 8040TIP3   OH245534   2.553   4.597  11.800 -0.2903  0.2996 -0.2529
 8040TIP3    H145535   2.570   4.508  11.768  0.3054  0.2856  0.0900
 8040TIP3    H245536   2.473   4.624  11.754 -0.1483 -0.1898 -0.8059
 8041TIP3   OH245537   4.869   3.631  17.043  0.1130 -0.0258 -0.7117
 8041TIP3    H145538   4.850   3.631  16.949 -1.7951  1.2795 -0.3843
 8041TIP3    H245539   4.835   3.715  17.074 -0.5350 -1.0066  1.3791
 8042TIP3   OH245540   6.332   1.407   0.261  0.1146 -0.0403 -0.0791
 8042TIP3    H145541   6.344   1.418   0.167  0.2139  2.4305  0.1446
 8042TIP3    H245542   6.383   1.479   0.300  0.5960 -1.3730  1.9014
 8043TIP3   OH245543   5.120   5.425   1.512  0.3134  0.1858  0.3187
 8043TIP3    H145544   5.115   5.483   1.588 -3.1378  0.8795 -0.2551
 8043TIP3    H245545   5.144   5.482   1.439 -2.3025  0.9044 -0.0973
 8044TIP3   OH245546   2.863   2.933   0.874 -0.5497  0.0777  0.6850
 8044TIP3    H145547   2.851   2.920   0.968  0.6975  3.4917  1.4858
 8044TIP3    H245548   2.956   2.953   0.865 -0.4432 -1.1840 -1.4696
 8045TIP3   OH245549   2.688   2.656   0.687 -0.1454  0.5786  0.1987
 8045TIP3    H145550   2.619   2.713   0.720  1.5370  2.9079 -0.0304
 8045TIP3    H245551   2.734   2.710   0.622  1.7388 -0.9552  0.1777
 8046TIP3   OH245552   5.461   4.375  13.684  0.7792  0.3906  0.0627
 8046TIP3    H145553   5.422   4.408  13.765  0.8175 -1.4106  0.8522
 8046TIP3    H245554   5.417   4.425  13.615 -1.3687 -0.0141  1.0493
 8047TIP3   OH245555   6.619   4.174   4.345 -0.1362 -0.1928  0.0041
 8047TIP3    H145556   6.673   4.243   4.307 -1.2157  0.5413 -0.2504
 8047TIP3    H245557   6.679   4.125   4.401  1.1544 -0.3766 -1.4700
 8048TIP3   OH245558   6.120   0.034  14.957 -0.0504  0.1469  0.1140
 8048TIP3    H145559   6.136   0.058  14.866 -1.0257  1.0414  0.1614
 8048TIP3    H245560   6.142  -0.059  14.962  0.2448  0.1479 -0.9747
 8049TIP3   OH245561   3.058   1.447   5.858  0.0959 -0.1537  0.4858
 8049TIP3    H145562   2.991   1.502   5.818  0.2184  0.1601  0.7086
 8049TIP3    H245563   3.029   1.358   5.842 -0.6977 -0.0184  1.1206
 8050TIP3   OH245564   6.434   2.330  11.174  0.5343 -0.2055  0.0345
 8050TIP3    H145565   6.496   2.365  11.110  2.0079 -1.6661  0.6108
 8050TIP3    H245566   6.395   2.408  11.213  2.7518  0.8394  0.3490
 8051TIP3   OH245567   1.222   4.920   2.219  0.4855 -0.1459 -1.0282
 8051TIP3    H145568   1.230   4.988   2.285 -0.4725 -0.8412 -0.1525
 8051TIP3    H245569   1.240   4.964   2.136  0.5974  0.9944 -0.4140
 8052TIP3   OH245570   1.095   4.534  13.913 -0.0541  0.0528 -0.4413
 8052TIP3    H145571   1.170   4.514  13.969  0.1233  0.3396 -0.5741
 8052TIP3    H245572   1.026   4.475  13.944  0.2680 -0.3180 -0.4156
 8053TIP3   OH245573   1.199   6.299  16.556 -0.1374  0.5136  0.3929
 8053TIP3    H145574   1.115   6.263  16.527 -0.4564 -0.7805  2.6544
 8053TIP3    H245575   1.179   6.390  16.580 -1.9864 -0.6715  4.3805
 8054TIP3   OH245576   1.901   6.060   5.158  0.3034 -0.6700 -0.5098
 8054TIP3    H145577   1.915   6.152   5.182 -0.9310 -0.7338  0.6141
 8054TIP3    H245578   1.809   6.056   5.131  0.8277 -1.2426 -2.3788
 8055TIP3   OH245579   5.266   1.720  12.872 -0.3272  0.5011 -0.0001
 8055TIP3    H145580   5.267   1.813  12.849 -1.5214  0.2922 -1.0005
 8055TIP3    H245581   5.247   1.719  12.965 -1.5153  1.2377 -0.2152
 8056TIP3   OH245582   5.494   1.836  12.189 -0.0244  0.1494 -0.2308
 8056TIP3    H145583   5.411   1.883  12.184 -0.1061  0.0534  0.1547
 8056TIP3    H245584   5.481   1.758  12.136  0.1200  0.5666 -0.8940
 8057TIP3   OH245585   3.576   0.953  12.779  0.4580  0.0779  0.1832
 8057TIP3    H145586   3.585   0.896  12.703 -0.5980 -0.6851  0.6032
 8057TIP3    H245587   3.482   0.972  12.784  0.1479 -1.6285  2.4995
 8058TIP3   OH245588   3.897   5.766   4.514 -0.6656 -0.5128 -0.1658
 8058TIP3    H145589   3.880   5.706   4.586 -2.4183 -0.3410 -0.3946
 8058TIP3    H245590   3.979   5.734   4.475 -1.0205 -2.1200  0.3432
 8059TIP3   OH245591   4.285   0.370   1.776 -0.4775 -0.4793  0.1415
 8059TIP3    H145592   4.362   0.393   1.828  0.0195  0.7432 -1.0721
 8059TIP3    H245593   4.316   0.301   1.717 -0.1976  0.2354 -0.5663
 8060TIP3   OH245594   0.526   5.889  13.441 -0.1691 -0.4701  0.1052
 8060TIP3    H145595   0.504   5.982  13.445 -1.1771 -0.7241  1.0676
 8060TIP3    H245596   0.563   5.877  13.353 -0.3521  0.7567 -0.1662
 8061TIP3   OH245597   0.148   5.574  13.944 -0.4425  0.5358 -0.3833
 8061TIP3    H145598   0.188   5.641  14.000 -0.6545  1.4097 -1.2603
 8061TIP3    H245599   0.221   5.516  13.921 -0.2621  0.4471  0.3974
 8062TIP3   OH245600   4.276   3.934   1.088  0.7136  0.1009 -0.0536
 8062TIP3    H145601   4.315   3.971   1.167  0.6657 -0.3582  0.1925
 8062TIP3    H245602   4.187   3.912   1.114 -0.3511  2.7518 -1.0844
 8063TIP3   OH245603   2.697   4.633  15.571  0.2720  0.4413  0.3967
 8063TIP3    H145604   2.601   4.635  15.575  0.0891 -1.3991 -1.7537
 8063TIP3    H245605   2.722   4.726  15.575 -1.4258  0.9238  2.6722
 8064TIP3   OH245606   3.383   6.766   4.016 -0.1006 -0.2334 -0.7314
 8064TIP3    H145607   3.452   6.707   3.986  0.8876 -0.0206  0.9857
 8064TIP3    H245608   3.311   6.752   3.955  0.7626 -1.8859 -1.4274
 8065TIP3   OH245609   6.532   1.872   1.878 -0.0943  0.0359 -0.3476
 8065TIP3    H145610   6.464   1.931   1.908  0.6313  0.6315  0.1565
 8065TIP3    H245611   6.514   1.789   1.923 -0.6801  0.0746 -0.4991
 8066TIP3   OH245612   0.229   1.314  15.981  0.1765 -0.5337 -0.1856
 8066TIP3    H145613   0.143   1.342  15.950 -0.0260 -2.0742 -1.0803
 8066TIP3    H245614   0.211   1.240  16.039  0.7575  0.6056  1.5402
 8067TIP3   OH245615   2.643   6.035  12.804  0.4813  0.4112 -0.1258
 8067TIP3    H145616   2.703   5.996  12.867  1.4681  0.3208 -1.0935
 8067TIP3    H245617   2.595   5.960  12.767 -1.1805  0.5829  1.5440
 8068TIP3   OH245618   0.714   2.010  13.662  0.2655  0.2727  0.3813
 8068TIP3    H145619   0.798   2.010  13.616 -0.7036 -1.6400 -1.5357
 8068TIP3    H245620   0.664   2.081  13.622 -0.0622 -0.4784 -0.5686
 8069TIP3   OH245621   4.123   2.232  13.179  0.7326 -0.1818  0.0085
 8069TIP3    H145622   4.136   2.307  13.122  0.1016 -0.7543 -0.9268
 8069TIP3    H245623   4.105   2.269  13.266  1.7786  0.6984 -0.1411
 8070TIP3   OH245624   4.003   2.757   0.631 -0.3586  0.1224 -0.1243
 8070TIP3    H145625   3.957   2.705   0.565 -3.0274 -0.5466  2.0418
 8070TIP3    H245626   4.072   2.700   0.663 -0.6552 -0.5149 -0.5939
 8071TIP3   OH245627   2.382   0.036   1.025 -0.1773 -0.2598 -0.1102
 8071TIP3    H145628   2.314   0.079   1.077  1.1064 -0.1608  1.5839
 8071TIP3    H245629   2.381  -0.055   1.056 -0.3421 -0.5523 -0.9546
 8072TIP3   OH245630   4.066   2.231   0.689 -0.0718  0.3262  0.3540
 8072TIP3    H145631   4.058   2.284   0.610  0.0084 -0.5684 -0.2710
 8072TIP3    H245632   3.996   2.263   0.746 -0.9350  0.1476 -0.5772
 8073TIP3   OH245633   5.119   1.120   5.764  0.4856  0.4924 -0.6210
 8073TIP3    H145634   5.071   1.098   5.844 -0.4912  1.6762 -0.8509
 8073TIP3    H245635   5.108   1.044   5.708  2.4328 -0.9974  0.8812
 8074TIP3   OH245636   5.989   2.912   3.328  0.3290 -0.1773  0.4018
 8074TIP3    H145637   6.013   2.821   3.308  0.7039  0.0420 -0.1475
 8074TIP3    H245638   5.992   2.957   3.244 -0.3737  0.2343  0.5907
 8075TIP3   OH245639   1.029   6.270  15.475 -0.0317 -0.3191  0.0273
 8075TIP3    H145640   1.113   6.298  15.511 -0.0964 -1.0283  0.7435
 8075TIP3    H245641   0.969   6.342  15.494  0.0857 -0.4149  0.7626
 8076TIP3   OH245642   3.701   1.964   2.512  0.0526  0.1302  0.0201
 8076TIP3    H145643   3.693   1.889   2.570 -0.9675  0.5195  0.4065
 8076TIP3    H245644   3.621   2.014   2.527  0.7711  1.3565 -0.1461
 8077TIP3   OH245645   3.825   0.944  13.479  0.0849  0.1900  0.4996
 8077TIP3    H145646   3.861   0.857  13.498  0.5336 -0.0625 -1.3334
 8077TIP3    H245647   3.869   0.971  13.399 -1.6532  1.1587 -0.1852
 8078TIP3   OH245648   3.342   2.821  14.414  0.2933 -0.4537  0.1304
 8078TIP3    H145649   3.262   2.872  14.423 -0.2259 -0.8935 -1.6541
 8078TIP3    H245650   3.315   2.730  14.429  0.6639 -0.5067  0.5086
 8079TIP3   OH245651   5.706   4.744  13.221  0.0076 -0.5092 -0.0547
 8079TIP3    H145652   5.636   4.741  13.286 -0.6740  0.3062 -0.7318
 8079TIP3    H245653   5.677   4.686  13.151 -0.5122  0.6069 -0.8068
 8080TIP3   OH245654   5.292   5.547   5.637 -0.2094 -0.2671  0.0964
 8080TIP3    H145655   5.318   5.578   5.550  0.3419 -0.9315  0.0191
 8080TIP3    H245656   5.312   5.619   5.696  2.7852 -1.0594  0.2056
 8081TIP3   OH245657   6.129   2.349   3.026 -0.0444 -0.5040  0.2358
 8081TIP3    H145658   6.140   2.272   2.970 -0.2923  0.7540 -1.5996
 8081TIP3    H245659   6.038   2.375   3.014  0.1254  0.2790  0.6007
 8082TIP3   OH245660   0.303   6.245   0.002  0.0472 -0.1275 -0.3967
 8082TIP3    H145661   0.238   6.176  -0.012  0.0652  0.0576 -1.4824
 8082TIP3    H245662   0.310   6.252   0.097  0.5842 -2.1538 -0.2242
 8083TIP3   OH245663   6.788   0.150   4.502  0.1390 -0.1645 -0.1812
 8083TIP3    H145664   6.798   0.059   4.529  0.1592  0.1820  1.0455
 8083TIP3    H245665   6.869   0.192   4.528 -0.7600  0.6867  1.4268
 8084TIP3   OH245666   3.526   6.547   1.488 -0.0687 -0.0755 -0.5427
 8084TIP3    H145667   3.462   6.599   1.440  3.1562  2.0728 -2.9719
 8084TIP3    H245668   3.552   6.479   1.426  1.5922  0.5255 -0.5605
 8085TIP3   OH245669   4.036   3.295  15.514  0.2984  0.1693 -0.2165
 8085TIP3    H145670   4.001   3.317  15.428 -0.4821  1.7574  0.4550
 8085TIP3    H245671   4.097   3.223  15.498  0.1914  0.4448 -2.0856
 8086TIP3   OH245672   2.552   1.661  13.754  0.4182  0.0554  0.4490
 8086TIP3    H145673   2.582   1.654  13.664  1.6892  0.1905  0.8359
 8086TIP3    H245674   2.458   1.646  13.750  0.6024 -0.8609 -0.7774
 8087TIP3   OH245675   1.460   5.009  15.836 -0.3746 -0.4986 -0.0145
 8087TIP3    H145676   1.473   5.048  15.749 -0.1207 -1.0430 -0.2294
 8087TIP3    H245677   1.485   5.077  15.897 -1.9139  0.4016 -0.3270
 8088TIP3   OH245678   1.006   1.448   6.214  0.1085 -0.3406  0.2831
 8088TIP3    H145679   0.986   1.535   6.250  1.3910  0.2122 -0.2552
 8088TIP3    H245680   0.958   1.387   6.270 -0.8217  0.7108  0.6703
 8089TIP3   OH245681   0.853   2.175   0.900 -0.1776 -0.0331 -0.6121
 8089TIP3    H145682   0.840   2.112   0.829  2.0299 -1.1932 -0.0926
 8089TIP3    H245683   0.925   2.230   0.870 -0.6773  0.8795 -0.1644
 8090TIP3   OH245684   5.419   1.471   1.958  0.0908  0.1615 -0.0109
 8090TIP3    H145685   5.479   1.448   1.887  0.2693  1.4104 -0.2978
 8090TIP3    H245686   5.374   1.550   1.927 -0.2580  0.3848  1.0143
 8091TIP3   OH245687   4.906   4.246   3.889  0.0864  0.1142  0.4031
 8091TIP3    H145688   4.835   4.302   3.858  1.2930  1.7654  0.5059
 8091TIP3    H245689   4.870   4.157   3.886 -1.3944  0.7247 -1.1721
 8092TIP3   OH245690   3.707   3.136   0.902  0.0184 -0.6988 -0.8604
 8092TIP3    H145691   3.796   3.154   0.934  0.2305 -3.2324  0.1917
 8092TIP3    H245692   3.704   3.176   0.815  1.6327  0.8193 -0.2648
 8093TIP3   OH245693   4.930   5.782  16.692  0.4231  0.8752  0.2397
 8093TIP3    H145694   4.942   5.869  16.730  1.2844 -0.0672  2.2952
 8093TIP3    H245695   5.017   5.754  16.665 -0.1363  1.4317 -2.4407
 8094TIP3   OH245696   2.827   3.219   1.058  0.5548  0.0125  0.0669
 8094TIP3    H145697   2.886   3.245   0.988 -0.0807 -3.5762 -2.0250
 8094TIP3    H245698   2.739   3.241   1.025  0.3622  0.6370  0.9346
 8095TIP3   OH245699   5.574   0.002  11.976 -0.1058 -0.5193 -0.4880
 8095TIP3    H145700   5.545  -0.074  12.026 -0.8738  0.6755  0.9644
 8095TIP3    H245701   5.562   0.076  12.036  0.5183  0.7624 -1.8888
 8096TIP3   OH245702   3.202   3.578   0.615  0.3144 -0.0584  0.1461
 8096TIP3    H145703   3.163   3.665   0.606 -2.0876 -1.2503 -2.8909
 8096TIP3    H245704   3.279   3.580   0.558 -0.6395 -0.3422 -1.1768
 8097TIP3   OH245705   4.476   2.248   4.910 -0.4539 -0.3329  0.0445
 8097TIP3    H145706   4.547   2.261   4.972 -0.7036  0.0781  0.2512
 8097TIP3    H245707   4.483   2.156   4.884  0.3089 -0.2279 -0.1417
 8098TIP3   OH245708   6.633   3.757   0.263  0.2870 -0.3444 -0.8905
 8098TIP3    H145709   6.686   3.763   0.183 -2.3766  0.8381 -2.7278
 8098TIP3    H245710   6.573   3.684   0.246 -0.6851  0.2875 -0.2550
 8099TIP3   OH245711   3.909   2.426  13.616  0.0004  0.2512 -0.2515
 8099TIP3    H145712   3.890   2.519  13.624  1.1577  0.4760 -0.0157
 8099TIP3    H245713   3.917   2.395  13.707  0.0084 -0.0009 -0.3357
 8100TIP3   OH245714   0.560   4.745   3.854 -0.5339 -0.3089 -0.0475
 8100TIP3    H145715   0.596   4.832   3.871 -0.2639 -0.6372  1.1410
 8100TIP3    H245716   0.470   4.750   3.885 -0.0157 -0.9343  1.6678
 8101TIP3   OH245717   4.348   6.178  16.571  0.7433  0.8121  0.1660
 8101TIP3    H145718   4.384   6.126  16.643  2.7467  3.5483  1.3381
 8101TIP3    H245719   4.391   6.144  16.493  0.2184 -0.7628  0.5247
 8102TIP3   OH245720   1.335   1.309   4.611  0.8571 -0.0954 -0.1789
 8102TIP3    H145721   1.409   1.365   4.636  0.2867 -0.3544  2.4733
 8102TIP3    H245722   1.372   1.246   4.550  2.3197  1.0549 -0.5445
 8103TIP3   OH245723   1.359   1.193   3.123  0.0782 -0.1690 -0.1531
 8103TIP3    H145724   1.338   1.223   3.034 -2.7737 -1.2644  0.0632
 8103TIP3    H245725   1.421   1.121   3.109  1.0377  0.7995 -1.1113
 8104TIP3   OH245726   5.191   4.255   2.436  0.6172  0.1884  0.2441
 8104TIP3    H145727   5.184   4.323   2.369 -1.3696  0.6081  0.7981
 8104TIP3    H245728   5.269   4.279   2.486  1.1519  0.8335 -0.8532
 8105TIP3   OH245729   3.806   5.353  14.739 -0.6138 -0.0286  0.4304
 8105TIP3    H145730   3.831   5.415  14.808  1.7113 -1.5150  1.0334
 8105TIP3    H245731   3.867   5.372  14.667  0.8914 -2.1912  1.0226
 8106TIP3   OH245732   4.553   5.818  12.938  0.7598  0.7521  0.6651
 8106TIP3    H145733   4.503   5.798  12.860 -0.2931  1.9057  1.0148
 8106TIP3    H245734   4.496   5.875  12.989  1.1755 -0.4304  2.5623
 8107TIP3   OH245735   5.275   4.005   2.658  0.2389  0.0596 -0.0849
 8107TIP3    H145736   5.298   4.068   2.726  1.1795 -0.4515  0.0790
 8107TIP3    H245737   5.237   4.059   2.588 -0.6627  0.5956  0.7926
 8108TIP3   OH245738   1.977   3.357   5.418  0.1715 -0.1207  0.7936
 8108TIP3    H145739   2.017   3.320   5.497  0.4333  0.9467  1.1774
 8108TIP3    H245740   1.893   3.312   5.411  0.0831 -0.1333  1.7629
 8109TIP3   OH245741   1.472   2.353  14.852 -0.5413 -0.1805 -1.0515
 8109TIP3    H145742   1.431   2.287  14.795 -0.0404 -1.2429 -0.2142
 8109TIP3    H245743   1.524   2.407  14.793 -1.0316 -0.4784 -1.7667
 8110TIP3   OH245744   1.172   3.159   0.247 -0.5006 -0.1427 -0.3533
 8110TIP3    H145745   1.170   3.248   0.281  2.6039 -0.2215  0.3332
 8110TIP3    H245746   1.179   3.104   0.325  1.0467 -0.7094 -0.8464
 8111TIP3   OH245747   3.000   0.951  15.279 -0.5259  0.1969 -0.5836
 8111TIP3    H145748   3.082   0.952  15.230 -0.4387 -1.5014 -0.5292
 8111TIP3    H245749   2.997   0.865  15.320 -1.6588  0.7522  0.5998
 8112TIP3   OH245750   2.966   1.545   4.864  0.4884 -0.5001 -0.7832
 8112TIP3    H145751   2.977   1.450   4.852  0.1171 -0.7937  1.0273
 8112TIP3    H245752   2.987   1.561   4.956 -0.8190  0.9773 -0.6984
 8113TIP3   OH245753   3.610   6.132  15.007 -0.2621 -0.1529  0.9254
 8113TIP3    H145754   3.670   6.063  14.978  0.2828 -0.1228  1.9268
 8113TIP3    H245755   3.537   6.085  15.046 -0.7482 -0.1814  0.0200
 8114TIP3   OH245756   0.734   0.209   1.381  0.3536 -0.0339  0.7525
 8114TIP3    H145757   0.733   0.146   1.310 -1.6045 -1.4238  1.9202
 8114TIP3    H245758   0.796   0.174   1.444  1.0248  0.4564  0.3726
 8115TIP3   OH245759   6.364   6.081  14.600 -0.0063  0.0644  0.2428
 8115TIP3    H145760   6.303   6.019  14.639 -0.0903  0.7337  1.1912
 8115TIP3    H245761   6.380   6.146  14.668  1.1154  0.3615 -0.2825
 8116TIP3   OH245762   0.648   2.291  14.186  0.0738  0.2505 -0.2505
 8116TIP3    H145763   0.739   2.284  14.214  0.1023  0.7643 -0.1983
 8116TIP3    H245764   0.645   2.372  14.135  0.0143 -0.6542 -1.7353
 8117TIP3   OH245765   4.619   2.651   3.327  0.4407  0.0892  0.4297
 8117TIP3    H145766   4.710   2.682   3.328  0.2127  0.8740 -0.8758
 8117TIP3    H245767   4.567   2.731   3.328 -0.1966 -0.2904 -0.7916
 8118TIP3   OH245768   0.781   6.400   3.657 -0.0486 -0.3278 -0.6531
 8118TIP3    H145769   0.803   6.333   3.592  0.1393 -0.8955 -0.0250
 8118TIP3    H245770   0.786   6.354   3.741  0.4421  0.5753 -0.1746
 8119TIP3   OH245771   1.094   2.265  15.766 -0.3710  0.0259  0.0509
 8119TIP3    H145772   1.105   2.249  15.672  2.3191  1.7606 -0.0358
 8119TIP3    H245773   1.131   2.352  15.781  0.2558 -0.6100  2.8720
 8120TIP3   OH245774   6.093   0.259  15.704  0.1218 -0.0781  0.0068
 8120TIP3    H145775   6.044   0.331  15.665  3.2146  1.6600 -1.0549
 8120TIP3    H245776   6.082   0.187  15.642 -1.1362  0.1993 -0.1284
 8121TIP3   OH245777   5.260   6.605  13.780 -0.3064  0.2501 -0.2985
 8121TIP3    H145778   5.251   6.571  13.691  2.4618 -0.9665 -0.2117
 8121TIP3    H245779   5.332   6.668  13.776 -0.3860  0.4630  1.0039
 8122TIP3   OH245780   4.531   2.414  13.722  0.2264  0.5997 -0.3979
 8122TIP3    H145781   4.534   2.470  13.800  0.3046 -1.0638  0.8512
 8122TIP3    H245782   4.446   2.370  13.728  1.0409 -1.0173 -0.1242
 8123TIP3   OH245783   1.860   4.901  12.586  0.4569  0.0805  0.2781
 8123TIP3    H145784   1.799   4.845  12.634 -0.4031 -0.7515 -1.6443
 8123TIP3    H245785   1.849   4.874  12.494  0.1000  3.3272 -0.7516
 8124TIP3   OH245786   4.472   5.715  12.697 -0.3825  0.0250 -0.1241
 8124TIP3    H145787   4.509   5.631  12.671 -0.8288 -0.5224  0.9187
 8124TIP3    H245788   4.394   5.726  12.642 -0.2892 -0.2161 -0.3048
 8125TIP3   OH245789   1.022   4.084   5.531  0.0559  0.0737  0.9328
 8125TIP3    H145790   1.049   4.131   5.452  0.6887  0.8969  1.6321
 8125TIP3    H245791   0.990   4.000   5.498 -2.1433  1.3603 -0.4716
 8126TIP3   OH245792   0.740   5.745   3.788  0.4060 -0.1770 -0.6052
 8126TIP3    H145793   0.695   5.798   3.853 -1.2197 -0.2361 -1.6256
 8126TIP3    H245794   0.688   5.664   3.781  0.3966 -0.0803 -2.1021
 8127TIP3   OH245795   5.921   5.264  12.704 -0.4312  0.0361 -0.2725
 8127TIP3    H145796   5.965   5.331  12.756  0.3365 -1.1872  0.7202
 8127TIP3    H245797   5.926   5.295  12.614  0.2210  1.1250  0.1271
 8128TIP3   OH245798   5.534   2.010   4.372  0.5848 -1.1561 -0.1788
 8128TIP3    H145799   5.620   1.982   4.340  0.6425  0.1988 -1.2746
 8128TIP3    H245800   5.543   2.104   4.386 -0.5946 -1.0752  0.1148
 8129TIP3   OH245801   5.229   3.703  11.564 -0.1157  0.4039  0.8495
 8129TIP3    H145802   5.209   3.719  11.656  2.5017  0.5919  1.4610
 8129TIP3    H245803   5.287   3.775  11.539 -0.2183 -0.0332 -0.7287
 8130TIP3   OH245804   1.046   4.239   0.766  0.4622  0.2220  0.0833
 8130TIP3    H145805   1.007   4.236   0.853  0.7057  0.9725  0.2281
 8130TIP3    H245806   0.973   4.222   0.706  0.7948 -3.2828  0.4938
 8131TIP3   OH245807   4.354   2.574  14.794 -0.2415 -0.1333 -0.4993
 8131TIP3    H145808   4.432   2.580  14.850 -1.1549  3.3922  0.6199
 8131TIP3    H245809   4.313   2.491  14.820  2.9707 -2.0883 -1.0840
 8132TIP3   OH245810   4.803   1.869   2.940 -0.3730  0.0606  0.4148
 8132TIP3    H145811   4.847   1.953   2.937 -2.2555  1.0817 -0.6158
 8132TIP3    H245812   4.755   1.869   3.023  0.0274 -0.2280  0.6505
 8133TIP3   OH245813   0.162   4.034  15.109 -0.5788  0.1528  0.0804
 8133TIP3    H145814   0.138   4.110  15.056  0.9356 -0.2123 -1.2382
 8133TIP3    H245815   0.161   4.066  15.199 -0.3761  1.6251 -0.4120
 8134TIP3   OH245816   0.300   5.951   1.303  0.6647 -0.5634 -0.2730
 8134TIP3    H145817   0.266   6.035   1.331  1.3335 -0.0558 -0.9323
 8134TIP3    H245818   0.395   5.963   1.299  0.6492 -0.7461 -2.2155
 8135TIP3   OH245819   0.272   4.535   2.986 -1.0096  0.3418 -0.0264
 8135TIP3    H145820   0.187   4.578   2.988 -0.9888  0.3878  2.1498
 8135TIP3    H245821   0.273   4.478   3.063  0.3871 -0.7500 -0.7929
 8136TIP3   OH245822   1.266   5.650   6.056 -0.0514 -0.1822  0.3340
 8136TIP3    H145823   1.348   5.699   6.058 -0.9347  1.3235  0.4018
 8136TIP3    H245824   1.197   5.716   6.054 -1.2956 -1.4074  0.6994
 8137TIP3   OH245825   6.464   2.220  12.103  0.5766 -0.4764 -0.2510
 8137TIP3    H145826   6.373   2.190  12.097  0.3831  0.1573 -0.5296
 8137TIP3    H245827   6.458   2.315  12.108  1.2122 -0.4481  0.0832
 8138TIP3   OH245828   3.324   3.725  13.034  0.4276  0.2015  0.2316
 8138TIP3    H145829   3.256   3.708  13.099  0.6700  0.6063  0.5925
 8138TIP3    H245830   3.302   3.667  12.961 -0.6195  0.7186  0.1159
 8139TIP3   OH245831   6.648   1.677   2.169  0.1973 -0.0314 -0.2067
 8139TIP3    H145832   6.667   1.584   2.165  0.4863  0.0037  0.2751
 8139TIP3    H245833   6.682   1.712   2.086  0.2073 -0.3294 -0.3291
 8140TIP3   OH245834   1.198   1.318  16.803  0.2513  0.4216  0.2677
 8140TIP3    H145835   1.172   1.403  16.838 -1.5500  0.4733 -1.0210
 8140TIP3    H245836   1.287   1.331  16.771 -0.4324  2.2341 -1.0547
 8141TIP3   OH245837   2.864   3.076  15.302 -0.8447 -0.0650 -0.1147
 8141TIP3    H145838   2.880   3.000  15.359 -0.5265  1.0995  1.4234
 8141TIP3    H245839   2.824   3.039  15.223  0.8632 -2.0166 -0.1409
 8142TIP3   OH245840   2.061   0.007   0.593  0.4793  0.0814  0.5412
 8142TIP3    H145841   2.040   0.088   0.546  1.6444  0.4143  0.5602
 8142TIP3    H245842   2.012   0.014   0.675  1.7383  1.4872  1.1974
 8143TIP3   OH245843   0.559   4.530  15.510 -0.2680 -0.0846 -0.2815
 8143TIP3    H145844   0.634   4.571  15.466 -0.4829  1.9432  1.0766
 8143TIP3    H245845   0.504   4.498  15.438  1.6330 -1.2236 -1.3183
 8144TIP3   OH245846   6.455   3.311  16.681  0.3025 -0.2438 -0.8378
 8144TIP3    H145847   6.462   3.315  16.777  0.6184 -1.1934 -0.8161
 8144TIP3    H245848   6.369   3.348  16.662 -0.1579 -0.9182 -0.1152
 8145TIP3   OH245849   6.715   6.262  17.045  0.0076  0.2345  0.1678
 8145TIP3    H145850   6.682   6.346  17.013 -0.4662  0.6313  1.6404
 8145TIP3    H245851   6.710   6.269  17.140 -1.4357 -2.0204  0.3149
 8146TIP3   OH245852   6.321   3.193   5.858 -0.0934 -1.3018  0.1387
 8146TIP3    H145853   6.371   3.118   5.888  2.5049  0.1429 -0.3350
 8146TIP3    H245854   6.327   3.190   5.763  0.3456 -0.3007  0.1270
 8147TIP3   OH245855   2.833   2.076  12.279 -0.0755  0.2957  0.1754
 8147TIP3    H145856   2.814   2.169  12.290  1.0335  0.6189 -0.4181
 8147TIP3    H245857   2.775   2.032  12.340 -1.1567  1.3245 -0.0644
 8148TIP3   OH245858   3.838   3.838   5.800 -0.0299  0.0169 -0.2696
 8148TIP3    H145859   3.856   3.930   5.817  1.3936 -0.5686  1.8565
 8148TIP3    H245860   3.743   3.829   5.809 -0.0072  0.9937  1.1559
 8149TIP3   OH245861   4.019   1.031  11.273  0.8054  0.0217 -0.4034
 8149TIP3    H145862   3.965   1.067  11.203  1.2217 -0.1666 -0.8227
 8149TIP3    H245863   4.033   1.104  11.334  1.6527  0.5800 -1.2481
 8150TIP3   OH245864   5.262   6.340   0.461 -0.0053  0.4770  0.3030
 8150TIP3    H145865   5.181   6.292   0.452 -0.4949  1.1543  0.9323
 8150TIP3    H245866   5.323   6.278   0.500 -0.8010  0.5102  1.6702
 8151TIP3   OH245867   0.616   6.169   5.448 -0.3239  0.8355 -0.0395
 8151TIP3    H145868   0.665   6.199   5.371  1.9043  0.4832  1.1342
 8151TIP3    H245869   0.683   6.158   5.516 -1.7138 -1.8964  1.0530
 8152TIP3   OH245870   6.289   6.021  10.607  0.5236 -0.0879 -0.1272
 8152TIP3    H145871   6.360   6.081  10.630 -0.3171  0.8399  0.1032
 8152TIP3    H245872   6.296   6.011  10.512  0.4792  0.6316 -0.2110
 8153TIP3   OH245873   2.950   4.556  12.560 -0.2677  0.6324  0.0888
 8153TIP3    H145874   2.955   4.500  12.637  1.2667 -0.4631 -0.7524
 8153TIP3    H245875   2.923   4.497  12.489 -1.3829  1.5612 -0.3027
 8154TIP3   OH245876   2.884   0.030   1.524  0.2087 -0.1804  0.2985
 8154TIP3    H145877   2.795   0.021   1.490  0.1079  1.0870  0.1908
 8154TIP3    H245878   2.931   0.081   1.458  1.2689 -1.5180 -0.0371
 8155TIP3   OH245879   0.271   6.684   4.781 -0.0568 -0.0584 -0.4979
 8155TIP3    H145880   0.287   6.691   4.876 -0.4391 -1.4126 -0.3171
 8155TIP3    H245881   0.329   6.750   4.743  1.4096 -0.6835  0.5606
 8156TIP3   OH245882   4.966   0.498  15.487  0.2435 -0.5067 -0.6324
 8156TIP3    H145883   4.995   0.412  15.457 -1.4828 -1.0355 -0.8754
 8156TIP3    H245884   5.043   0.554  15.477  1.5870 -2.1258  0.0765
 8157TIP3   OH245885   2.816   1.817   2.519  0.3232 -0.2065  0.5166
 8157TIP3    H145886   2.735   1.799   2.471  0.2670 -0.8238  0.8293
 8157TIP3    H245887   2.863   1.734   2.520  0.4078 -0.1609  1.3538
 8158TIP3   OH245888   4.064   3.221  13.389  0.6073  0.2626 -0.1984
 8158TIP3    H145889   4.098   3.275  13.460  0.9537  0.0528 -0.2008
 8158TIP3    H245890   3.974   3.251  13.377  0.2195 -0.3608  0.9786
 8159TIP3   OH245891   4.930   5.931  15.128 -0.2860 -0.2935 -0.0478
 8159TIP3    H145892   4.869   5.899  15.061 -0.1931 -0.6579  0.0372
 8159TIP3    H245893   5.016   5.917  15.090 -0.2406 -0.2523  0.0404
 8160TIP3   OH245894   0.189   1.537  13.562 -0.2209  0.1824  0.1274
 8160TIP3    H145895   0.147   1.464  13.516  2.7578 -0.9000 -1.1426
 8160TIP3    H245896   0.196   1.506  13.653 -0.6660 -0.3068  0.0009
 8161TIP3   OH245897   3.282   0.317  13.645 -0.4833  0.7562  0.3408
 8161TIP3    H145898   3.238   0.293  13.564 -0.2801  1.5344 -0.0064
 8161TIP3    H245899   3.212   0.325  13.709 -0.8101  1.5261 -0.0971
 8162TIP3   OH245900   4.111   2.418   3.849  0.7599  0.1958 -0.1290
 8162TIP3    H145901   4.176   2.382   3.788  0.5514 -0.4983  0.0558
 8162TIP3    H245902   4.037   2.358   3.844  0.7165  0.1673  0.7724
 8163TIP3   OH245903   1.486   0.239   0.848  0.0782 -0.6028  0.1389
 8163TIP3    H145904   1.561   0.237   0.908  0.9522  0.0538 -0.9040
 8163TIP3    H245905   1.484   0.151   0.811 -0.1412 -0.8521  0.7228
 8164TIP3   OH245906   2.770   2.810  10.711 -0.8343 -1.0200  0.6667
 8164TIP3    H145907   2.787   2.729  10.760  1.7211 -1.0014 -0.0250
 8164TIP3    H245908   2.851   2.861  10.721 -0.6732 -0.4660 -2.4540
 8165TIP3   OH245909   1.827   5.989  15.680 -0.2820  0.4391  0.1245
 8165TIP3    H145910   1.784   5.926  15.622 -0.1758 -0.1834  0.7202
 8165TIP3    H245911   1.776   5.987  15.761 -0.6351  1.5616 -0.0542
 8166TIP3   OH245912   3.599   6.065  13.458 -0.7458  0.3204  0.0191
 8166TIP3    H145913   3.578   5.979  13.420 -0.7623  0.2399  0.2063
 8166TIP3    H245914   3.685   6.087  13.423 -0.3495 -0.1812  0.6721
 8167TIP3   OH245915   4.618   5.930  13.259  0.0188 -0.4672  0.1486
 8167TIP3    H145916   4.689   5.909  13.199 -0.9994  1.0611 -1.7073
 8167TIP3    H245917   4.539   5.896  13.215 -1.0609  2.8328 -0.7167
 8168TIP3   OH245918   3.599   4.545   5.211 -0.6807  0.4124  0.1958
 8168TIP3    H145919   3.561   4.531   5.125  1.0342  0.3192 -0.5685
 8168TIP3    H245920   3.577   4.465   5.260  0.2853 -0.5605 -0.8978
 8169TIP3   OH245921   2.611   5.666  14.037  0.5577  0.1399  0.3251
 8169TIP3    H145922   2.569   5.647  14.121 -1.2266  0.5259 -0.4382
 8169TIP3    H245923   2.612   5.762  14.032  0.8880  0.1211 -0.0006
 8170TIP3   OH245924   5.510   6.591   5.213 -0.5583 -0.0785 -0.1731
 8170TIP3    H145925   5.442   6.579   5.279  0.3645 -0.7898  0.6753
 8170TIP3    H245926   5.587   6.618   5.262 -0.4612  1.6937 -1.2284
 8171TIP3   OH245927   1.435   0.526   2.922  0.4725  0.2801  0.1924
 8171TIP3    H145928   1.410   0.448   2.971  0.1184  0.4284  0.2528
 8171TIP3    H245929   1.522   0.549   2.955  0.2395  0.3784  0.7526
 8172TIP3   OH245930   1.226   5.870   2.491 -0.6883 -0.3331 -0.6021
 8172TIP3    H145931   1.164   5.919   2.545  0.7289  0.6706  0.1907
 8172TIP3    H245932   1.297   5.932   2.475  0.4668 -1.6722 -0.8427
 8173TIP3   OH245933   1.194   3.448  14.643  0.2543 -0.4669 -0.2639
 8173TIP3    H145934   1.146   3.395  14.706 -0.6313  1.2074  0.5292
 8173TIP3    H245935   1.146   3.438  14.561 -0.1884 -0.4813 -0.0013
 8174TIP3   OH245936   3.321   5.154  13.318 -0.3040 -0.1393  0.1999
 8174TIP3    H145937   3.301   5.153  13.224 -1.5221 -0.6831  0.4445
 8174TIP3    H245938   3.237   5.170  13.360  0.0162 -1.0596  1.2419
 8175TIP3   OH245939   3.886   5.564   2.438 -0.1548 -0.3243 -0.4376
 8175TIP3    H145940   3.912   5.655   2.437  0.7323 -0.5533  0.3424
 8175TIP3    H245941   3.795   5.565   2.469  0.4347  0.1930  1.3901
 8176TIP3   OH245942   0.301   1.536   2.107  0.3914 -0.1899  0.0838
 8176TIP3    H145943   0.290   1.473   2.179  0.8707 -1.7811 -1.1725
 8176TIP3    H245944   0.389   1.570   2.119 -0.2279  1.1071  1.3715
 8177TIP3   OH245945   1.801   6.643  15.814  0.4139  0.0356 -0.3564
 8177TIP3    H145946   1.851   6.720  15.843 -0.1787 -0.1931  1.3420
 8177TIP3    H245947   1.750   6.675  15.739 -0.0301  1.3775  0.4862
 8178TIP3   OH245948   2.322   4.694  12.058 -0.4833  0.1170 -0.0621
 8178TIP3    H145949   2.388   4.631  12.087 -0.9755 -0.4278 -0.1204
 8178TIP3    H245950   2.299   4.742  12.137 -1.7505 -1.2960  0.4725
 8179TIP3   OH245951   2.590   3.015  12.356 -0.7240 -0.3083 -0.4218
 8179TIP3    H145952   2.636   3.000  12.274 -0.2653 -2.4340  0.1645
 8179TIP3    H245953   2.498   2.997  12.335 -0.5956 -0.9412 -0.4665
 8180TIP3   OH245954   6.411   1.567   3.685 -0.5366 -0.1168 -0.0455
 8180TIP3    H145955   6.343   1.529   3.628 -0.4973  0.1998 -0.3045
 8180TIP3    H245956   6.368   1.641   3.727  0.7190  2.6938 -3.2672
 8181TIP3   OH245957   3.296   2.566  13.000  0.1698 -0.1014 -0.4215
 8181TIP3    H145958   3.204   2.547  13.019  0.3118 -0.4223 -0.0312
 8181TIP3    H245959   3.311   2.529  12.913 -0.0426 -0.1450 -0.4412
 8182TIP3   OH245960   0.481   5.115   5.973  0.6585  0.0787 -0.1861
 8182TIP3    H145961   0.475   5.191   6.031  0.5107  0.2474 -0.4200
 8182TIP3    H245962   0.391   5.082   5.968  0.8291 -0.5033  0.4317
 8183TIP3   OH245963   4.229   4.510  16.301 -0.1940  0.0435 -0.1191
 8183TIP3    H145964   4.272   4.587  16.264  1.0552 -0.5050  0.1383
 8183TIP3    H245965   4.288   4.481  16.371  0.0551 -1.9087 -1.0700
 8184TIP3   OH245966   3.308   2.070   4.770  0.0194 -0.1272 -0.0158
 8184TIP3    H145967   3.260   1.993   4.738  0.3294  0.4195 -1.8900
 8184TIP3    H245968   3.399   2.052   4.748  0.0549  0.8993 -0.7398
 8185TIP3   OH245969   5.222   4.025   3.478  0.1230  0.4406  0.4242
 8185TIP3    H145970   5.209   4.016   3.573  0.2420  1.5324  0.5602
 8185TIP3    H245971   5.316   4.040   3.469  0.4685 -1.6723 -0.0615
 8186TIP3   OH245972   5.026   5.473  11.088  0.0662  0.5636  0.1550
 8186TIP3    H145973   4.953   5.411  11.086 -0.2788  0.8660  1.7890
 8186TIP3    H245974   5.077   5.453  11.010  0.4452 -2.3519  1.0517
 8187TIP3   OH245975   2.821   4.345   0.226 -0.3416 -0.7157  0.0239
 8187TIP3    H145976   2.887   4.414   0.217 -1.7898  0.9173  1.0922
 8187TIP3    H245977   2.868   4.263   0.210  1.3297  0.5264 -1.9668
 8188TIP3   OH245978   5.143   6.289  13.612 -0.2179 -0.6972 -0.2219
 8188TIP3    H145979   5.081   6.251  13.674 -0.8999  0.2447 -0.3098
 8188TIP3    H245980   5.222   6.236  13.622 -1.1643 -2.2141 -0.4464
 8189TIP3   OH245981   3.965   6.308  16.883  0.7325 -0.3385  0.0410
 8189TIP3    H145982   4.003   6.242  16.824 -0.0699  0.6750 -1.6673
 8189TIP3    H245983   4.041   6.355  16.917  1.1999 -0.7380 -0.4237
 8190TIP3   OH245984   6.115   5.954  14.820  0.2214 -0.4311 -0.4710
 8190TIP3    H145985   6.124   5.891  14.891  0.8488  1.2477  0.9941
 8190TIP3    H245986   6.114   5.901  14.740  0.2711 -2.2973  0.7303
 8191TIP3   OH245987   2.574   2.833  11.364 -0.4395 -0.5986  0.3079
 8191TIP3    H145988   2.662   2.851  11.331  0.3638 -4.1683  0.0119
 8191TIP3    H245989   2.525   2.805  11.287 -1.6042  0.4955  0.6269
 8192TIP3   OH245990   3.243   6.500  15.376  0.8246 -0.2545 -0.5369
 8192TIP3    H145991   3.154   6.465  15.366  0.8027 -0.5962  0.7509
 8192TIP3    H245992   3.300   6.426  15.353  0.7755 -0.2501 -0.6734
 8193TIP3   OH245993   1.545   4.279   2.295  0.6416  0.0296  0.0634
 8193TIP3    H145994   1.460   4.314   2.319 -0.6559 -2.4163 -0.6566
 8193TIP3    H245995   1.529   4.232   2.213  2.1738 -2.2773  0.9934
 8194TIP3   OH245996   5.023   0.909   3.678 -0.3463  0.4482  0.1542
 8194TIP3    H145997   5.107   0.900   3.633 -0.9564  0.2019 -0.9767
 8194TIP3    H245998   5.039   0.878   3.767  1.2465  2.2469  0.5467
 8195TIP3   OH245999   4.203   5.277   4.445  0.2014 -0.0279  0.3728
 8195TIP3    H146000   4.112   5.250   4.457 -0.1783  1.0221 -0.0132
 8195TIP3    H246001   4.231   5.235   4.363  0.3347 -0.9931  0.8989
 8196TIP3   OH246002   3.040   1.622  15.050  0.0446 -0.0073 -0.0051
 8196TIP3    H146003   3.129   1.636  15.018 -0.8520  1.8133 -1.9849
 8196TIP3    H246004   2.999   1.708  15.045 -1.9656 -0.8829  0.4084
 8197TIP3   OH246005   2.618   1.559  14.514  0.4906  0.2061 -0.3304
 8197TIP3    H146006   2.524   1.577  14.520  0.2662 -1.2455  1.2599
 8197TIP3    H246007   2.658   1.617  14.579  0.7701  1.1688 -1.3430
 8198TIP3   OH246008   2.360   5.612   4.797  0.3878  0.2908 -0.2426
 8198TIP3    H146009   2.369   5.602   4.703  1.0694  0.1597 -0.1735
 8198TIP3    H246010   2.450   5.626   4.828  0.0723  1.2819  0.2763
 8199TIP3   OH246011   0.563   5.487   5.120 -1.1449  0.0420 -0.4519
 8199TIP3    H146012   0.627   5.530   5.063 -2.3463  0.9222 -1.1619
 8199TIP3    H246013   0.530   5.414   5.067 -0.2741 -0.8445  0.1687
 8200TIP3   OH246014   5.859   3.285   6.424  0.2179 -0.0866 -0.6282
 8200TIP3    H146015   5.921   3.253   6.359 -0.6708  0.3033 -1.7010
 8200TIP3    H246016   5.775   3.288   6.378 -0.4157  0.3086  0.5052
 8201TIP3   OH246017   5.902   5.718  13.345 -0.8308  0.3444  0.4088
 8201TIP3    H146018   5.936   5.701  13.257  1.4855  0.4404  1.2248
 8201TIP3    H246019   5.947   5.797  13.374  2.3020 -2.2543  3.4547
 8202TIP3   OH246020   5.267   6.254   4.952  0.2598 -0.7518 -0.0432
 8202TIP3    H146021   5.251   6.160   4.955  1.2334 -0.9117  0.8687
 8202TIP3    H246022   5.185   6.291   4.921  0.2117 -1.9783 -1.5233
 8203TIP3   OH246023   3.348   6.787  11.049  0.6154  0.1432  0.0520
 8203TIP3    H146024   3.298   6.805  11.128  2.1888 -0.8137  1.3111
 8203TIP3    H246025   3.395   6.869  11.030 -1.0140  0.9120 -0.9051
 8204TIP3   OH246026   0.853   1.308   4.464 -0.1131 -0.4798  0.7812
 8204TIP3    H146027   0.905   1.388   4.471 -0.5871 -0.1583  0.7184
 8204TIP3    H246028   0.898   1.255   4.398 -0.5831  0.3715 -0.2586
 8205TIP3   OH246029   4.794   1.488  10.903  0.0101  0.1153  0.6526
 8205TIP3    H146030   4.727   1.539  10.856 -0.1282 -0.8989 -0.2858
 8205TIP3    H246031   4.854   1.459  10.835 -0.2062 -1.4234  1.0831
 8206TIP3   OH246032   0.140   1.566   0.816  0.7301  0.2072 -0.0323
 8206TIP3    H146033   0.091   1.489   0.845 -1.3505  0.5046 -2.3577
 8206TIP3    H246034   0.118   1.635   0.878 -0.9134  0.0027 -0.3516
 8207TIP3   OH246035   1.473   2.099  11.656 -0.1028 -0.0046  0.2612
 8207TIP3    H146036   1.445   2.065  11.572 -1.8462  0.0615  0.7668
 8207TIP3    H246037   1.530   2.032  11.692 -1.3239 -1.1788  0.0763
 8208TIP3   OH246038   0.375   6.086   4.572  0.6302 -0.0031  0.0917
 8208TIP3    H146039   0.408   6.121   4.654  1.7368  1.1932 -0.8218
 8208TIP3    H246040   0.449   6.036   4.537  0.1924 -0.4395 -0.2197
 8209TIP3   OH246041   5.423   2.850  16.635 -0.3229  0.3439 -0.0679
 8209TIP3    H146042   5.335   2.834  16.600 -0.6093 -0.5832  1.0201
 8209TIP3    H246043   5.482   2.815  16.569 -0.8708 -1.8917  0.5548
 8210TIP3   OH246044   0.326   4.846   1.962 -0.0813  0.7758  0.0155
 8210TIP3    H146045   0.282   4.782   2.018 -0.9575  0.9783 -0.4288
 8210TIP3    H246046   0.293   4.930   1.992  0.7680  1.0040  0.3334
 8211TIP3   OH246047   4.311   2.428  13.502 -0.1701  0.3989 -0.3104
 8211TIP3    H146048   4.308   2.452  13.595  1.2583  0.5734 -0.2856
 8211TIP3    H246049   4.338   2.509  13.457  1.1031 -0.1693 -0.6302
 8212TIP3   OH246050   5.528   4.738  11.830 -0.3980  0.0978  0.1449
 8212TIP3    H146051   5.562   4.753  11.741  0.1732  1.8174  0.6018
 8212TIP3    H246052   5.433   4.736  11.820 -0.5642  3.3816 -0.2214
 8213TIP3   OH246053   5.953   4.049   3.130 -0.0877 -0.2364  0.2827
 8213TIP3    H146054   6.043   4.019   3.135  0.1763  0.4618 -0.1079
 8213TIP3    H246055   5.959   4.145   3.130 -0.8569 -0.1777  0.7358
 8214TIP3   OH246056   5.155   4.253  16.556  0.6246 -0.1060  0.4928
 8214TIP3    H146057   5.074   4.207  16.536 -0.3222  1.4980  0.4921
 8214TIP3    H246058   5.137   4.301  16.637  1.6469  0.0811  0.6255
 8215TIP3   OH246059   4.887   2.419   3.376 -0.1592 -0.2491 -0.1988
 8215TIP3    H146060   4.965   2.471   3.354 -0.5612  0.7874  0.7302
 8215TIP3    H246061   4.902   2.390   3.466 -0.0375 -1.6132 -0.6293
 8216TIP3   OH246062   3.266   4.637  13.220  0.8871  0.9510 -0.0436
 8216TIP3    H146063   3.327   4.652  13.147  0.8421  2.7268  0.2471
 8216TIP3    H246064   3.202   4.707  13.212 -2.1766 -1.7597 -1.3183
 8217TIP3   OH246065   6.185   5.454   1.248  0.2001  0.3669  0.0612
 8217TIP3    H146066   6.122   5.516   1.285  0.0517  0.2278  0.0412
 8217TIP3    H246067   6.134   5.374   1.233  0.0210  0.7226 -1.3576
 8218TIP3   OH246068   5.045   0.112   2.920 -0.7553 -0.3317 -0.1743
 8218TIP3    H146069   5.129   0.067   2.925 -0.1615  0.6755 -0.8013
 8218TIP3    H246070   4.981   0.047   2.950  0.2794 -0.9958  0.6507
 8219TIP3   OH246071   1.363   2.346   2.085  0.3080  0.2308 -0.4721
 8219TIP3    H146072   1.419   2.268   2.076  0.7691  0.6588 -1.4977
 8219TIP3    H246073   1.421   2.413   2.121 -0.1414  0.0577  0.5982
 8220TIP3   OH246074   6.238   1.131  13.458 -0.0875 -0.0771  0.2777
 8220TIP3    H146075   6.197   1.051  13.490 -2.1031  0.7342 -0.1105
 8220TIP3    H246076   6.225   1.128  13.363  1.0842  0.0652  0.0982
 8221TIP3   OH246077   3.313   5.640  14.304  0.0986 -0.3904  0.6964
 8221TIP3    H146078   3.370   5.646  14.227 -0.3140 -2.3361  0.1929
 8221TIP3    H246079   3.224   5.647  14.269 -0.0396  1.0560  1.2928
 8222TIP3   OH246080   2.020   0.290  14.573  0.0073 -0.5060 -0.0568
 8222TIP3    H146081   2.072   0.370  14.578 -1.2838  0.2856  3.8897
 8222TIP3    H246082   1.929   0.319  14.569 -0.5833 -1.6024  2.9598
 8223TIP3   OH246083   5.637   6.343   1.924  0.2497  0.4383  0.2963
 8223TIP3    H146084   5.594   6.308   2.002 -0.4203  0.5344 -0.0171
 8223TIP3    H246085   5.703   6.403   1.957  1.5789 -1.2728  0.8622
 8224TIP3   OH246086   2.686   6.069  15.504  0.1677 -0.5010 -0.3836
 8224TIP3    H146087   2.765   6.017  15.490  0.5801 -0.3811  1.3550
 8224TIP3    H246088   2.711   6.136  15.567 -1.3709 -0.6074  0.4058
 8225TIP3   OH246089   0.942   3.753  12.550 -0.2007  0.1638  0.0639
 8225TIP3    H146090   0.921   3.769  12.643 -0.1578  0.3804  0.0372
 8225TIP3    H246091   0.982   3.666  12.549  0.3345  0.4043  0.3296
 8226TIP3   OH246092   1.796   5.933   1.349  0.5470  0.3091  0.1817
 8226TIP3    H146093   1.825   5.846   1.378 -0.7077 -0.5269 -0.9292
 8226TIP3    H246094   1.844   5.948   1.268  0.8117  0.6903  0.4081
 8227TIP3   OH246095   5.896   1.796  13.363 -0.4712  0.1756  0.2414
 8227TIP3    H146096   5.823   1.738  13.340  0.1986 -0.9511  0.8657
 8227TIP3    H246097   5.952   1.743  13.419  0.1927  1.4325  0.8072
 8228TIP3   OH246098   2.034   6.483  10.462 -0.2636  0.5054  0.6076
 8228TIP3    H146099   2.097   6.412  10.453 -1.8918 -0.8528 -0.9619
 8228TIP3    H246100   2.047   6.538  10.385 -0.5682  0.5502  0.5851
 8229TIP3   OH246101   4.462   0.136  14.398  0.8529  0.2788  0.1509
 8229TIP3    H146102   4.470   0.220  14.352  2.5690  0.7295  1.1603
 8229TIP3    H246103   4.375   0.137  14.437  0.4062  1.0607 -0.8498
 8230TIP3   OH246104   0.777   1.407  12.913 -0.4226  0.9820 -0.3319
 8230TIP3    H146105   0.823   1.487  12.941 -0.7339  0.9520  0.2783
 8230TIP3    H246106   0.846   1.341  12.907 -0.3461  1.0002  0.3203
 8231TIP3   OH246107   5.235   4.262  11.300  0.1378 -0.1558  0.0114
 8231TIP3    H146108   5.150   4.236  11.263  0.0300  1.3425 -0.8907
 8231TIP3    H246109   5.222   4.259  11.395 -1.2132  0.8832 -0.1171
 8232TIP3   OH246110   5.583   1.480  11.565  0.2614  0.0003  0.1437
 8232TIP3    H146111   5.628   1.499  11.483  1.2935  0.0664  0.7143
 8232TIP3    H246112   5.544   1.393  11.552  4.7746 -2.4900  1.2911
 8233TIP3   OH246113   5.849   4.986  13.246  0.6262  0.0402 -1.0696
 8233TIP3    H146114   5.911   4.938  13.302  0.4615  0.5903 -0.4069
 8233TIP3    H246115   5.787   4.919  13.218 -1.6260  0.3374  2.6011
 8234TIP3   OH246116   3.354   4.381  14.156 -0.5668  0.0012  0.1267
 8234TIP3    H146117   3.291   4.317  14.189  0.4299 -2.2036 -1.9281
 8234TIP3    H246118   3.433   4.330  14.138 -0.2686  1.3673 -3.2903
 8235TIP3   OH246119   5.059   0.779   0.722  0.2905 -0.3930  0.2358
 8235TIP3    H146120   5.154   0.791   0.727  0.1543  0.4257  1.3570
 8235TIP3    H246121   5.047   0.710   0.657  1.7389 -1.7525  1.3521
 8236TIP3   OH246122   6.782   0.022  11.552 -0.0683  0.4461 -0.4109
 8236TIP3    H146123   6.836  -0.055  11.530  0.4209  0.1392  1.6554
 8236TIP3    H246124   6.722   0.031  11.477  0.8730 -1.0155 -1.4034
 8237TIP3   OH246125   6.369   4.975   5.502 -0.5701 -0.5713 -0.1718
 8237TIP3    H146126   6.371   5.037   5.575  2.5758 -0.2687 -0.3761
 8237TIP3    H246127   6.290   4.923   5.516 -0.7496  0.3261  2.7090
 8238TIP3   OH246128   5.866   5.218   4.335 -0.1547  0.2883  0.1708
 8238TIP3    H146129   5.791   5.163   4.359  0.6178 -0.3571  1.1886
 8238TIP3    H246130   5.942   5.173   4.371  0.8296  0.5592 -1.4715
 8239TIP3   OH246131   4.680   4.255  15.843 -0.4955 -0.3848  0.3041
 8239TIP3    H146132   4.623   4.203  15.900  2.0256 -0.3583  3.1265
 8239TIP3    H246133   4.651   4.345  15.857 -0.5629 -0.4744  0.7734
 8240TIP3   OH246134   3.566   0.820  12.157 -0.0602  0.2387 -0.7097
 8240TIP3    H146135   3.589   0.876  12.083 -0.2543 -0.2488 -1.1433
 8240TIP3    H246136   3.644   0.767  12.173  0.1294  0.6408 -0.2878
 8241TIP3   OH246137   6.556   5.464   4.554  0.0629 -0.0337 -0.3598
 8241TIP3    H146138   6.560   5.369   4.553  2.4729 -0.0434  1.8987
 8241TIP3    H246139   6.537   5.487   4.645  2.1734  1.6391 -0.2731
 8242TIP3   OH246140   2.070   4.329   3.022  0.4838  0.0530  0.1199
 8242TIP3    H146141   2.068   4.245   2.977 -3.0666  0.9187 -1.6953
 8242TIP3    H246142   2.140   4.378   2.979 -0.1277 -0.5934 -1.7197
 8243TIP3   OH246143   3.554   4.809   5.645  0.5848  0.2930 -0.5429
 8243TIP3    H146144   3.493   4.735   5.654  1.5479 -0.4640 -0.1226
 8243TIP3    H246145   3.536   4.843   5.557 -0.8176  0.4362 -0.2351
 8244TIP3   OH246146   2.069   3.683   1.112  0.5925 -0.6703  0.1607
 8244TIP3    H146147   2.063   3.718   1.023  2.0501  0.0773  0.3278
 8244TIP3    H246148   2.044   3.756   1.169 -0.2461 -1.1174  0.3832
 8245TIP3   OH246149   6.559   5.635   2.501  0.4310  0.1280  0.4577
 8245TIP3    H146150   6.565   5.730   2.496  2.1480  0.0193 -0.4445
 8245TIP3    H246151   6.621   5.604   2.435 -0.5211 -1.6207  0.3242
 8246TIP3   OH246152   6.622   4.218   0.900  0.2324 -0.0892 -0.2723
 8246TIP3    H146153   6.589   4.130   0.881 -0.2856  0.2369 -0.9475
 8246TIP3    H246154   6.657   4.213   0.989  1.5980 -1.3702 -0.8460
 8247TIP3   OH246155   4.381   3.381  14.436  0.6688  0.1077 -0.0459
 8247TIP3    H146156   4.392   3.442  14.363  0.9708  0.0058 -0.0878
 8247TIP3    H246157   4.296   3.340  14.420  0.9626 -0.2884 -0.6267
 8248TIP3   OH246158   0.432   6.527  11.793  0.3962 -0.2964  0.0866
 8248TIP3    H146159   0.479   6.555  11.872  0.5143  1.0772 -0.4528
 8248TIP3    H246160   0.340   6.528  11.819  0.4625 -0.2741  0.3291
 8249TIP3   OH246161   2.498   2.479  15.011  0.5115 -0.0703  0.1626
 8249TIP3    H146162   2.444   2.420  15.063 -0.0557 -0.1045 -0.4495
 8249TIP3    H246163   2.581   2.433  15.000  1.7363  1.0570  3.3502
 8250TIP3   OH246164   6.580   6.527   2.724  0.1193 -0.3825 -0.1600
 8250TIP3    H146165   6.515   6.528   2.654 -0.4297  1.2978  0.3181
 8250TIP3    H246166   6.606   6.435   2.731 -1.4223 -0.9407 -1.0878
 8251TIP3   OH246167   6.659   3.961   2.500 -0.4260 -0.2128  0.2481
 8251TIP3    H146168   6.700   3.875   2.514  1.6803  0.8394  1.0884
 8251TIP3    H246169   6.706   4.019   2.559 -1.8823  1.5192 -0.2152
 8252TIP3   OH246170   3.027   0.029  15.462 -0.1687  0.2276 -0.4570
 8252TIP3    H146171   2.945   0.072  15.439 -0.2128 -0.4509 -1.6619
 8252TIP3    H246172   3.009  -0.064  15.449  0.4695 -0.0070  0.3207
 8253TIP3   OH246173   3.454   0.319  11.989 -0.1557  0.1717  0.2582
 8253TIP3    H146174   3.504   0.312  11.907 -0.5795 -0.8980  0.0758
 8253TIP3    H246175   3.516   0.291  12.057  0.2184  1.1261  0.3297
 8254TIP3   OH246176   4.480   6.030   3.272  0.0215  0.0102  0.4110
 8254TIP3    H146177   4.407   5.976   3.242 -0.1748  0.7806 -0.5478
 8254TIP3    H246178   4.558   5.975   3.258 -0.1478  0.0503 -0.8193
 8255TIP3   OH246179   5.743   3.726   3.161 -0.0303 -0.2999  0.1678
 8255TIP3    H146180   5.709   3.725   3.251  0.9018  0.8425  0.5442
 8255TIP3    H246181   5.805   3.653   3.159  3.1042  2.0625  1.7801
 8256TIP3   OH246182   3.414   1.102   4.700  0.6051 -1.0792 -0.0522
 8256TIP3    H146183   3.335   1.122   4.649 -0.1260 -2.0511  0.6671
 8256TIP3    H246184   3.413   1.165   4.772  0.5083 -1.0694 -0.0623
 8257TIP3   OH246185   5.360   0.162   4.142  0.0947 -0.2606 -0.3560
 8257TIP3    H146186   5.394   0.229   4.083 -0.9173  1.5603  1.0042
 8257TIP3    H246187   5.297   0.113   4.089 -0.1347  0.7628 -1.0652
 8258TIP3   OH246188   4.649   3.387   6.234 -0.4449 -0.3987  0.1916
 8258TIP3    H146189   4.681   3.439   6.307 -0.6698  0.8334 -0.5712
 8258TIP3    H246190   4.725   3.375   6.177 -0.8202  0.7361 -0.5742
 8259TIP3   OH246191   4.568   4.752   2.662  0.2092 -0.1964  0.0047
 8259TIP3    H146192   4.628   4.681   2.642  0.9908 -0.0076  1.5205
 8259TIP3    H246193   4.625   4.827   2.680 -0.3406 -0.3088  2.6454
 8260TIP3   OH246194   2.472   1.650   4.777  0.1085 -0.0840 -0.2112
 8260TIP3    H146195   2.489   1.732   4.731  1.1414 -0.3518 -0.3259
 8260TIP3    H246196   2.488   1.582   4.712 -1.4800 -0.3750 -0.3345
 8261TIP3   OH246197   2.780   0.521  14.159 -0.0008 -0.4819  0.3109
 8261TIP3    H146198   2.833   0.597  14.182 -0.0791  0.7931 -3.1527
 8261TIP3    H246199   2.811   0.452  14.218  2.9667  1.1495  0.8575
 8262TIP3   OH246200   3.840   3.212   0.284  0.8088 -0.1653  0.0871
 8262TIP3    H146201   3.916   3.250   0.329  0.1224  1.5365 -0.1346
 8262TIP3    H246202   3.854   3.118   0.289  2.9883  0.1086 -0.0342
 8263TIP3   OH246203   0.128   5.258  11.888  0.7651 -0.2202 -0.2266
 8263TIP3    H146204   0.186   5.319  11.932 -1.1760  1.0299  0.7444
 8263TIP3    H246205   0.125   5.288  11.797  0.5514  0.5906  0.0423
 8264TIP3   OH246206   3.416   1.659   3.183  0.3797  0.0439 -0.4333
 8264TIP3    H146207   3.350   1.726   3.166 -0.4739 -1.0170 -1.4365
 8264TIP3    H246208   3.417   1.651   3.278 -0.2394  0.7514 -0.3510
 8265TIP3   OH246209   0.304   4.673   3.875 -0.2796 -0.2943  0.1020
 8265TIP3    H146210   0.292   4.588   3.833  1.6104 -0.4007 -0.3095
 8265TIP3    H246211   0.311   4.653   3.968 -1.4232 -0.3857  0.1884
 8266TIP3   OH246212   1.193   3.093   5.838  0.2060  0.1345  0.0968
 8266TIP3    H146213   1.231   3.024   5.893 -1.1507 -0.4220  0.3704
 8266TIP3    H246214   1.207   3.173   5.888  0.8101 -0.0810  0.2893
 8267TIP3   OH246215   3.530   0.353  13.740  0.5052 -0.3733 -0.7951
 8267TIP3    H146216   3.445   0.315  13.720  0.1897  0.4464 -1.0716
 8267TIP3    H246217   3.582   0.339  13.660  0.7437 -1.1648 -0.5075
 8268TIP3   OH246218   6.078   0.286  12.880 -0.2191 -0.3709 -0.1530
 8268TIP3    H146219   6.169   0.259  12.868  0.4210  0.7594  1.6988
 8268TIP3    H246220   6.030   0.203  12.887  1.0902 -1.0560  1.5064
 8269TIP3   OH246221   0.136   6.486   4.979  0.7374  0.1991  0.3154
 8269TIP3    H146222   0.050   6.461   4.945  1.1270 -0.6631 -0.0459
 8269TIP3    H246223   0.117   6.559   5.039 -0.3549 -0.5773  0.9568
 8270TIP3   OH246224   2.340   1.312  13.910  0.1168  0.2111  0.1620
 8270TIP3    H146225   2.301   1.226  13.928 -0.1833  0.2874 -0.1096
 8270TIP3    H246226   2.276   1.375  13.942  0.4016  0.3350  0.4913
 8271TIP3   OH246227   5.687   3.112   6.178 -0.0868 -0.4136 -0.6340
 8271TIP3    H146228   5.749   3.054   6.223  2.9178  3.3179  0.6264
 8271TIP3    H246229   5.628   3.142   6.247  0.0508  0.0050 -0.6967
 8272TIP3   OH246230   2.982   2.617   0.621 -0.3002  0.0927  0.1664
 8272TIP3    H146231   3.030   2.592   0.700  0.3833  2.2027  0.4609
 8272TIP3    H246232   2.897   2.647   0.652 -0.1640  0.5818  0.0741
 8273TIP3   OH246233   2.090   3.042   0.956  0.5642 -0.1595  0.0122
 8273TIP3    H146234   2.126   2.970   0.904 -0.6374 -0.2034 -0.7986
 8273TIP3    H246235   2.166   3.091   0.986  1.3297 -0.7407 -0.9288
 8274TIP3   OH246236   3.915   5.826   3.712 -0.1456 -0.1958  0.1148
 8274TIP3    H146237   3.991   5.785   3.671  0.3906 -0.9118  1.7421
 8274TIP3    H246238   3.932   5.920   3.707  0.2678 -0.3052 -0.6038
 8275TIP3   OH246239   4.594   3.298   5.928  0.1362 -0.3323  0.2890
 8275TIP3    H146240   4.538   3.243   5.873 -0.6126 -0.2765  0.9768
 8275TIP3    H246241   4.676   3.248   5.936  0.5213 -0.0305 -1.4152
 8276TIP3   OH246242   3.729   4.861   0.164  0.7246  0.3610  0.4335
 8276TIP3    H146243   3.787   4.937   0.169  0.0411  0.8159  3.0971
 8276TIP3    H246244   3.773   4.794   0.217 -0.2183  0.0643  0.8670
 8277TIP3   OH246245   2.949   6.513  10.914 -0.0386  0.1487 -0.5554
 8277TIP3    H146246   2.945   6.456  10.837 -0.2872 -0.9048  0.2044
 8277TIP3    H246247   3.008   6.584  10.890  1.3790 -1.1710 -1.0684
 8278TIP3   OH246248   0.090   5.960   2.984  0.2359  0.0874 -0.5366
 8278TIP3    H146249   0.151   6.003   3.044 -0.4131  1.7518 -1.0077
 8278TIP3    H246250   0.009   5.951   3.034 -0.2478  1.3034 -1.0532
 8279TIP3   OH246251   3.838   0.468  15.092  0.0614 -0.7844 -0.2004
 8279TIP3    H146252   3.762   0.410  15.086 -0.1753 -0.3684 -1.6599
 8279TIP3    H246253   3.865   0.481  15.001  2.7786 -2.0986  0.3065
 8280TIP3   OH246254   2.114   2.322   0.338  0.6248 -0.4986  0.5334
 8280TIP3    H146255   2.082   2.274   0.415  1.1778 -0.9982  0.4625
 8280TIP3    H246256   2.098   2.262   0.265 -0.9263  0.4150  0.0800
 8281TIP3   OH246257   0.388   6.394  16.599  0.1918  0.5056  0.8226
 8281TIP3    H146258   0.482   6.376  16.606  0.0420 -0.4993  0.3394
 8281TIP3    H246259   0.348   6.309  16.580 -0.6823  1.1328 -0.2579
 8282TIP3   OH246260   4.840   0.507  16.085 -0.4020  0.2586  0.0096
 8282TIP3    H146261   4.810   0.515  15.994 -0.8382 -2.1269 -0.1252
 8282TIP3    H246262   4.846   0.597  16.117  0.0954  1.1849 -2.4793
 8283TIP3   OH246263   1.363   1.336   2.865 -0.3923 -0.5302 -0.0822
 8283TIP3    H146264   1.272   1.332   2.837 -0.2485  0.8607 -0.8390
 8283TIP3    H246265   1.366   1.409   2.927  0.5307  0.6513 -1.4692
 8284TIP3   OH246266   2.257   2.313   1.731  0.3835 -0.1730 -0.1907
 8284TIP3    H146267   2.212   2.394   1.754  0.1023 -0.4262  0.1488
 8284TIP3    H246268   2.266   2.265   1.813 -1.4533 -1.5097 -0.6977
 8285TIP3   OH246269   6.445   1.403  11.515  0.0067 -0.1918  0.0227
 8285TIP3    H146270   6.422   1.325  11.464  0.2182 -1.4752  1.8214
 8285TIP3    H246271   6.362   1.431  11.554  0.1749 -0.3209  0.4702
 8286TIP3   OH246272   6.418   1.246   3.500 -0.6042 -0.2126  0.1744
 8286TIP3    H146273   6.390   1.327   3.457 -0.4171  0.5668  1.4369
 8286TIP3    H246274   6.404   1.178   3.436  0.1658  0.9566 -1.3124
 8287TIP3   OH246275   6.286   5.725  11.015 -0.6912  0.5845  0.3584
 8287TIP3    H146276   6.203   5.752  11.054  0.0295  0.9517  1.7147
 8287TIP3    H246277   6.315   5.801  10.965 -0.3704  1.0863  1.2807
 8288TIP3   OH246278   0.078   3.552   4.453  0.2044  0.2546  0.3754
 8288TIP3    H146279  -0.004   3.582   4.493  0.1488  1.3806 -0.5450
 8288TIP3    H246280   0.094   3.613   4.381  0.5643 -1.4220 -1.0399
 8289TIP3   OH246281   3.672   0.745  14.875  0.5388  0.4068  0.2347
 8289TIP3    H146282   3.751   0.759  14.928  0.5544 -0.1288  0.3617
 8289TIP3    H246283   3.663   0.650  14.871 -0.4342  0.4654  0.7089
 8290TIP3   OH246284   5.160   2.947  15.015 -0.0576 -0.4453  0.2226
 8290TIP3    H146285   5.213   2.868  15.002  0.6873  0.3000 -1.5738
 8290TIP3    H246286   5.148   2.983  14.927 -2.2816  0.2570  0.7437
 8291TIP3   OH246287   3.867   5.732   5.447 -0.1552 -0.4903  0.4873
 8291TIP3    H146288   3.915   5.786   5.384 -0.5645 -1.8582 -1.0957
 8291TIP3    H246289   3.776   5.762   5.439 -0.1025 -0.1992  0.9548
 8292TIP3   OH246290   5.076   2.291  15.162  0.0654  0.1684  0.0632
 8292TIP3    H146291   5.001   2.262  15.214 -0.7774 -0.3080 -1.3562
 8292TIP3    H246292   5.064   2.385  15.154  0.3552  0.2924  0.9278
 8293TIP3   OH246293   0.481   3.696   4.435  0.6025 -0.3101  0.1222
 8293TIP3    H146294   0.471   3.714   4.342  3.3848 -0.0302 -0.2033
 8293TIP3    H246295   0.533   3.615   4.439 -1.9990 -2.0699  1.5228
 8294TIP3   OH246296   6.276   4.423   4.316  0.1831  0.0520 -0.5041
 8294TIP3    H146297   6.203   4.423   4.254 -1.2245  0.0281  1.0489
 8294TIP3    H246298   6.253   4.493   4.378  1.5885  0.1497 -0.0627
 8295TIP3   OH246299   2.427   3.147   0.459  0.5845  0.2130  0.0079
 8295TIP3    H146300   2.423   3.114   0.549 -0.2841  0.6494  0.1351
 8295TIP3    H246301   2.495   3.094   0.418  1.8310  0.7878  1.2299
 8296TIP3   OH246302   0.601   3.918  13.214 -0.2163 -0.2699 -0.1593
 8296TIP3    H146303   0.550   3.987  13.172 -1.6284 -0.3739  1.2893
 8296TIP3    H246304   0.541   3.880  13.278  0.9571 -1.9817 -0.0269
 8297TIP3   OH246305   3.648   3.169  12.475  0.1715 -0.0560  0.0481
 8297TIP3    H146306   3.703   3.229  12.427 -0.3481 -0.7707 -1.5013
 8297TIP3    H246307   3.707   3.127  12.538  1.2281 -0.1961 -0.9989
 8298TIP3   OH246308   0.993   3.626  11.983  0.2481  0.2187  0.1039
 8298TIP3    H146309   0.926   3.613  12.051  0.2095  0.4233  0.1061
 8298TIP3    H246310   0.943   3.645  11.904  0.2598 -0.9865 -0.2092
 8299TIP3   OH246311   6.330   2.915   3.159 -0.1842  0.6799  0.0513
 8299TIP3    H146312   6.280   2.835   3.176  0.0656  0.4742 -0.1607
 8299TIP3    H246313   6.285   2.956   3.084  0.7526 -0.2184 -1.0500
 8300TIP3   OH246314   0.430   2.812   5.284  0.4074 -0.4332  0.4066
 8300TIP3    H146315   0.343   2.799   5.322  0.1839  0.3314  0.1857
 8300TIP3    H246316   0.450   2.904   5.302  0.0786  0.1230 -1.7221
 8301TIP3   OH246317   0.563   5.328   2.188 -0.0333 -0.5583  0.0572
 8301TIP3    H146318   0.556   5.298   2.097  1.6830 -1.1116  0.0719
 8301TIP3    H246319   0.637   5.389   2.188  0.0921 -0.6866  1.1201
 8302TIP3   OH246320   1.898   4.773   0.684  0.5422  0.0096 -0.0558
 8302TIP3    H146321   1.880   4.853   0.636  1.5318  0.2335 -0.0877
 8302TIP3    H246322   1.993   4.775   0.699  1.0570 -2.3310 -2.2365
 8303TIP3   OH246323   0.012   3.408  15.058  0.0226  0.1431  0.1463
 8303TIP3    H146324   0.033   3.326  15.014 -2.7721 -1.0155  0.7326
 8303TIP3    H246325  -0.025   3.382  15.142  2.2308  2.2009  1.9037
 8304TIP3   OH246326   5.889   5.994  16.057 -0.1869  0.2044  0.2643
 8304TIP3    H146327   5.876   5.990  16.152 -3.0934 -0.3678 -0.0485
 8304TIP3    H246328   5.811   6.039  16.025  0.4628 -0.1423 -1.9088
 8305TIP3   OH246329   5.787   6.429  12.051  0.1901 -0.3890 -0.0991
 8305TIP3    H146330   5.703   6.452  12.090  0.8862 -0.8066  1.7620
 8305TIP3    H246331   5.781   6.334  12.037  1.4163 -1.1029  3.1444
 8306TIP3   OH246332   1.172   5.387  14.424 -0.0625 -0.2032  0.0153
 8306TIP3    H146333   1.187   5.470  14.468  0.0387  0.1720 -0.7138
 8306TIP3    H246334   1.222   5.393  14.343 -0.4960 -0.7524 -0.3036
 8307TIP3   OH246335   1.472   1.867  14.363  0.6444  0.1628 -0.1591
 8307TIP3    H146336   1.442   1.922  14.435  0.9118 -0.2722  0.2860
 8307TIP3    H246337   1.537   1.809  14.402 -1.8581 -2.6506  0.1007
 8308TIP3   OH246338   0.566   2.231   5.764 -0.4489 -0.6872  0.6007
 8308TIP3    H146339   0.623   2.168   5.807 -0.3194 -0.0119  1.4735
 8308TIP3    H246340   0.489   2.236   5.821  0.1057  0.8793  1.2932
 8309TIP3   OH246341   4.810   3.236   0.076 -0.2104  0.0877  0.3528
 8309TIP3    H146342   4.840   3.326   0.091  0.5034  0.1038 -0.9844
 8309TIP3    H246343   4.790   3.233  -0.018  0.1820 -1.2544  0.2919
 8310TIP3   OH246344   1.747   5.445  12.774 -0.1546 -0.1281 -0.2868
 8310TIP3    H146345   1.735   5.538  12.790 -0.6533  0.0039 -1.3849
 8310TIP3    H246346   1.691   5.402  12.838  0.7487  0.2831  0.8210
 8311TIP3   OH246347   5.432   4.205   3.527 -0.1897 -0.3598  0.0992
 8311TIP3    H146348   5.445   4.224   3.620  0.3155 -0.6402  0.0894
 8311TIP3    H246349   5.422   4.291   3.486 -0.3484 -0.2311  0.4024
 8312TIP3   OH246350   0.219   3.342   1.824 -0.0116 -0.9431  0.5081
 8312TIP3    H146351   0.235   3.409   1.758 -0.1574 -2.0696 -0.7361
 8312TIP3    H246352   0.173   3.387   1.895 -0.1679  0.2326 -0.3187
 8313TIP3   OH246353   4.947   0.399  13.697  0.0470  0.8384  0.0101
 8313TIP3    H146354   4.881   0.466  13.680 -0.0288  0.6749 -0.3552
 8313TIP3    H246355   4.898   0.323  13.728  0.0631  0.7324 -0.2173
 8314TIP3   OH246356   6.325   6.755   0.782 -0.5038  0.2933 -0.0976
 8314TIP3    H146357   6.344   6.845   0.809 -0.8502 -0.1608  1.7532
 8314TIP3    H246358   6.264   6.722   0.847 -1.3411 -0.9135 -1.4265
 8315TIP3   OH246359   1.148   4.794  14.690 -0.3661  0.8208 -0.2865
 8315TIP3    H146360   1.132   4.701  14.672 -1.4230  0.6715  1.2202
 8315TIP3    H246361   1.096   4.840  14.625  0.0209  0.3798 -0.9312
 8316TIP3   OH246362   4.895   4.047  17.170  0.4205 -0.6299 -0.6342
 8316TIP3    H146363   4.959   4.094  17.118 -0.5828  0.7160 -0.6937
 8316TIP3    H246364   4.860   4.113  17.230 -1.5977 -1.0826 -1.2577
 8317TIP3   OH246365   1.666   0.868  15.603  0.4039 -0.7568 -0.0207
 8317TIP3    H146366   1.715   0.881  15.521 -1.0549 -3.0072 -1.3372
 8317TIP3    H246367   1.585   0.825  15.576 -1.4621  1.0482  2.3198
 8318TIP3   OH246368   3.390   1.684   1.694 -0.5597  0.2569  0.0516
 8318TIP3    H146369   3.442   1.747   1.644 -1.3188  0.9080  0.0684
 8318TIP3    H246370   3.386   1.722   1.782  0.7032 -0.8404  0.6249
 8319TIP3   OH246371   3.292   3.183   4.153 -0.2559 -0.4601  0.4326
 8319TIP3    H146372   3.289   3.146   4.065  0.5413 -0.6155  0.4610
 8319TIP3    H246373   3.378   3.224   4.159 -0.0667 -0.9500  1.3336
 8320TIP3   OH246374   5.826   5.017  12.009  0.2954  0.3514  1.0524
 8320TIP3    H146375   5.858   5.099  11.972  0.4457 -0.2348 -0.1561
 8320TIP3    H246376   5.872   5.008  12.092  2.1855  0.2418  0.0305
 8321TIP3   OH246377   0.900   2.043   2.110  0.0593  0.2191 -0.0105
 8321TIP3    H146378   0.812   2.073   2.133  0.4137  1.7939 -0.5598
 8321TIP3    H246379   0.933   2.110   2.049  1.2927 -0.8156 -0.5276
 8322TIP3   OH246380   6.396   0.087  11.623 -0.8153  0.1408 -0.1109
 8322TIP3    H146381   6.469   0.149  11.627  1.8562 -2.7768  0.0037
 8322TIP3    H246382   6.365   0.082  11.713  1.4756 -1.3208  0.7018
 8323TIP3   OH246383   0.401   1.920   1.504  0.1319 -0.1936  0.0844
 8323TIP3    H146384   0.372   1.963   1.423 -1.0567 -3.2309 -1.2514
 8323TIP3    H246385   0.496   1.926   1.502  0.0336  2.8586  0.3555
 8324TIP3   OH246386   2.961   0.755   0.696 -0.4823 -0.5269 -0.4001
 8324TIP3    H146387   2.896   0.808   0.743  0.3653  0.1807 -0.0126
 8324TIP3    H246388   3.028   0.817   0.670 -1.2806 -0.7250 -3.2701
 8325TIP3   OH246389   1.702   3.358   6.254  0.3404 -0.1259  0.1193
 8325TIP3    H146390   1.735   3.274   6.221  1.9042  0.8576 -0.9624
 8325TIP3    H246391   1.612   3.339   6.281  0.5029 -2.0408 -0.5020
 8326TIP3   OH246392   3.122   3.628  14.869 -0.4272  0.2245 -0.2828
 8326TIP3    H146393   3.058   3.597  14.805 -0.3447  0.9274 -0.7135
 8326TIP3    H246394   3.083   3.605  14.954 -0.7725 -0.2605 -0.5653
 8327TIP3   OH246395   5.309   4.078  12.740 -0.3880  0.6384 -0.2942
 8327TIP3    H146396   5.319   4.156  12.793 -0.1948  0.6844 -0.3988
 8327TIP3    H246397   5.263   4.108  12.661 -2.8490  0.1618  0.8533
 8328TIP3   OH246398   1.050   4.791  15.747 -0.0782  0.5898 -0.3147
 8328TIP3    H146399   1.104   4.790  15.667 -0.1225  0.3777 -0.3440
 8328TIP3    H246400   0.984   4.724  15.731  1.2143 -1.0319  0.7755
 8329TIP3   OH246401   4.806   5.683   3.390 -0.2106 -0.3741 -0.0164
 8329TIP3    H146402   4.769   5.676   3.478  0.5472  1.6097  0.4982
 8329TIP3    H246403   4.893   5.643   3.397  2.0009  4.0550  1.5882
 8330TIP3   OH246404   4.737   3.399   4.818 -0.0840 -0.2574  0.0243
 8330TIP3    H146405   4.642   3.394   4.831  0.1329 -1.7843  1.4656
 8330TIP3    H246406   4.757   3.325   4.760  0.4777 -1.7247  1.9602
 8331TIP3   OH246407   1.418   3.840   1.836 -0.0683  0.5838  0.4117
 8331TIP3    H146408   1.428   3.906   1.904  1.4106  1.4287 -0.5800
 8331TIP3    H246409   1.342   3.870   1.785 -0.0342  0.9508  0.5746
 8332TIP3   OH246410   5.452   5.372   6.231 -0.4603  0.0425 -0.3170
 8332TIP3    H146411   5.431   5.465   6.236  0.2347  0.1756  0.1476
 8332TIP3    H246412   5.508   5.355   6.306 -1.1384 -0.9093 -0.0016
 8333TIP3   OH246413   5.407   3.906  13.456 -0.5284  0.5743  0.2999
 8333TIP3    H146414   5.359   3.836  13.501 -0.1681  0.0082 -0.1795
 8333TIP3    H246415   5.435   3.965  13.526 -0.4873  0.0206  0.7525
 8334TIP3   OH246416   2.628   4.472  10.864  0.0869 -0.8302 -0.5716
 8334TIP3    H146417   2.697   4.531  10.835  0.3604 -0.6337  0.4642
 8334TIP3    H246418   2.563   4.474  10.793  0.4691  0.0853 -0.9009
 8335TIP3   OH246419   4.322   4.654  11.534  0.0403  0.6031  0.2931
 8335TIP3    H146420   4.313   4.589  11.604  0.9842  0.2042  0.0529
 8335TIP3    H246421   4.404   4.699  11.554  0.7165 -0.0186 -0.9574
 8336TIP3   OH246422   2.648   6.614   1.742  0.4921  0.2540  0.2929
 8336TIP3    H146423   2.621   6.640   1.829  0.8088  0.7733  0.2431
 8336TIP3    H246424   2.743   6.598   1.750  0.5138  0.2587  0.0533
 8337TIP3   OH246425   1.630   5.532   4.914 -0.0259 -0.2029  0.0024
 8337TIP3    H146426   1.587   5.594   4.973  2.7487  0.5674  1.3879
 8337TIP3    H246427   1.643   5.453   4.967 -2.0507 -1.4383 -1.2406
 8338TIP3   OH246428   6.069   2.518  14.859  0.0225  0.2919  0.5415
 8338TIP3    H146429   6.087   2.608  14.884  0.1768  0.3794  0.1305
 8338TIP3    H246430   6.106   2.465  14.929 -0.0898  0.5492  0.7946
 8339TIP3   OH246431   3.888   5.144  11.602 -0.0832  0.2490  0.0129
 8339TIP3    H146432   3.870   5.080  11.533  0.5551  1.5154 -1.3797
 8339TIP3    H246433   3.842   5.223  11.574 -0.1599  0.6669  1.2662
 8340TIP3   OH246434   1.290   4.045   1.426  0.0082 -0.2122 -0.3414
 8340TIP3    H146435   1.314   4.132   1.394 -0.1552  0.5270  1.4381
 8340TIP3    H246436   1.233   4.010   1.358  0.7015  0.7442 -1.4607
 8341TIP3   OH246437   1.625   0.533  14.335 -0.2558 -0.4965  0.6398
 8341TIP3    H146438   1.608   0.613  14.383 -1.7605 -1.2549  1.4582
 8341TIP3    H246439   1.717   0.513  14.353  1.0930  2.5227 -1.9676
 8342TIP3   OH246440   0.436   2.303   0.167  0.0099 -0.4023 -0.5729
 8342TIP3    H146441   0.487   2.222   0.169 -1.5561 -1.4192  0.4415
 8342TIP3    H246442   0.348   2.276   0.193 -0.5035  1.6695 -0.0230
 8343TIP3   OH246443   6.160   4.991  12.887  0.3938  0.0471  0.9379
 8343TIP3    H146444   6.148   5.010  12.980 -2.0260  1.1353  0.5061
 8343TIP3    H246445   6.071   4.995  12.851  1.4272  1.8054 -1.7691
 8344TIP3   OH246446   5.969   1.008  12.784 -0.0024 -0.2322  0.7591
 8344TIP3    H146447   5.921   1.091  12.780  1.7145  0.8313  0.9831
 8344TIP3    H246448   6.047   1.023  12.731 -0.1723 -2.1085 -0.1054
 8345TIP3   OH246449   0.080   3.847  12.092  0.1242 -0.0547  0.1829
 8345TIP3    H146450   0.064   3.807  12.178  0.5829  0.8195  0.6906
 8345TIP3    H246451   0.160   3.898  12.104 -0.1771  0.6149 -0.5860
 8346TIP3   OH246452   5.530   0.639  16.114 -0.3975 -0.4282  0.3899
 8346TIP3    H146453   5.494   0.617  16.028  0.0578 -0.7401  0.2770
 8346TIP3    H246454   5.587   0.714  16.097 -0.2753 -0.5163  0.4110
 8347TIP3   OH246455   2.317   4.682   0.446 -0.1310 -0.0238 -0.5016
 8347TIP3    H146456   2.365   4.706   0.367 -0.0495  0.0770 -0.4227
 8347TIP3    H246457   2.341   4.750   0.510 -0.8987  0.4008 -0.6582
 8348TIP3   OH246458   1.297   6.724  13.899  0.4579 -0.5308  0.1622
 8348TIP3    H146459   1.274   6.639  13.937 -0.3684  0.3813  1.8078
 8348TIP3    H246460   1.381   6.747  13.939  0.0484  0.0095  0.7180
 8349TIP3   OH246461   0.031   0.171  10.867 -0.0217  0.2039 -0.3072
 8349TIP3    H146462   0.000   0.247  10.916 -1.1511  0.6426 -1.6177
 8349TIP3    H246463   0.116   0.197  10.832  0.7285 -0.0641  1.2372
 8350TIP3   OH246464   3.839   3.810  13.252  0.0151 -0.1342  0.5407
 8350TIP3    H146465   3.801   3.722  13.257 -1.0777  0.1031 -1.9661
 8350TIP3    H246466   3.769   3.868  13.283 -0.6970  0.0713 -1.3014
 8351TIP3   OH246467   6.019   3.371   4.789 -0.0585  0.3972 -0.0331
 8351TIP3    H146468   5.932   3.411   4.780 -0.1680  0.8576  2.3105
 8351TIP3    H246469   6.004   3.277   4.782 -0.7749  0.4762  0.3544
 8352TIP3   OH246470   6.408   2.320  15.300 -0.0440  0.4200 -0.0551
 8352TIP3    H146471   6.432   2.233  15.269  3.9796  1.6924 -1.1028
 8352TIP3    H246472   6.341   2.350  15.238  0.3352 -0.9988 -1.2023
 8353TIP3   OH246473   1.582   2.498  12.261 -0.2345  0.0267 -0.6278
 8353TIP3    H146474   1.529   2.568  12.224 -0.6551 -0.1725 -0.4150
 8353TIP3    H246475   1.668   2.537  12.276  0.1665 -0.0786 -2.4482
 8354TIP3   OH246476   3.582   2.997   0.512 -0.3571  0.4733 -0.1605
 8354TIP3    H146477   3.543   2.911   0.523 -0.4437  0.4779 -0.4254
 8354TIP3    H246478   3.642   2.987   0.438 -1.2020  0.9217 -0.9199
 8355TIP3   OH246479   2.185   1.016  16.810 -0.0317  0.0195  0.0918
 8355TIP3    H146480   2.267   0.994  16.854  0.5323  0.9270 -0.4474
 8355TIP3    H246481   2.170   0.943  16.750  1.0826  0.4347 -0.7260
 8356TIP3   OH246482   4.028   0.534  14.086 -0.1746 -0.5247  0.2967
 8356TIP3    H146483   3.953   0.546  14.144 -1.7290 -0.8751 -1.5385
 8356TIP3    H246484   4.042   0.620  14.047 -0.7054 -0.8227 -0.5787
 8357TIP3   OH246485   4.620   5.285  12.944 -0.0164 -0.0217 -0.1788
 8357TIP3    H146486   4.551   5.266  13.008  0.4815  1.4869  0.8613
 8357TIP3    H246487   4.678   5.346  12.989  1.0333  0.1248 -1.6592
 8358TIP3   OH246488   4.115   2.275   1.656  0.2972  0.0508  0.2946
 8358TIP3    H146489   4.150   2.363   1.640 -1.0194  0.3274 -1.1981
 8358TIP3    H246490   4.118   2.232   1.571 -0.8933 -0.6751  0.5995
 8359TIP3   OH246491   1.035   1.824   1.426  0.4809 -0.7022  0.4713
 8359TIP3    H146492   1.113   1.842   1.479  0.5347 -3.0144  1.2923
 8359TIP3    H246493   1.051   1.738   1.388 -0.8500 -0.3619 -0.9717
 8360TIP3   OH246494   6.143   4.552   1.365  0.2991 -0.7023 -0.2645
 8360TIP3    H146495   6.085   4.489   1.323 -0.3896 -0.9071  0.9170
 8360TIP3    H246496   6.152   4.622   1.301 -1.1060 -0.7630 -0.5811
 8361TIP3   OH246497   4.901   5.958   3.073 -0.7980  0.2600 -0.7043
 8361TIP3    H146498   4.910   6.046   3.036 -1.5481  0.2463 -0.9374
 8361TIP3    H246499   4.940   5.900   3.008  0.2598  0.4647 -0.2728
 8362TIP3   OH246500   5.092   2.156   5.416 -0.2338 -0.0388 -0.0182
 8362TIP3    H146501   5.112   2.173   5.508 -0.0131 -2.7586  0.5290
 8362TIP3    H246502   4.997   2.160   5.411 -0.1926  1.3652  0.0153
 8363TIP3   OH246503   5.178   2.339  10.938  0.4557 -0.0451 -0.1425
 8363TIP3    H146504   5.203   2.269  10.877  0.4719 -1.2998  1.2593
 8363TIP3    H246505   5.197   2.420  10.890 -1.7158 -0.9085 -2.7385
 8364TIP3   OH246506   0.643   6.336   0.076 -0.0449  0.2303  0.0231
 8364TIP3    H146507   0.614   6.423   0.050  1.3495  0.5241 -0.6840
 8364TIP3    H246508   0.683   6.348   0.162 -1.1954 -0.0108  0.6048
 8365TIP3   OH246509   3.805   3.970   2.251  0.1228  0.0314 -0.1162
 8365TIP3    H146510   3.803   4.043   2.313  0.4707  0.7560 -0.9413
 8365TIP3    H246511   3.760   3.899   2.297 -1.9312  1.3080  0.0122
 8366TIP3   OH246512   5.374   0.778   0.050 -0.0555 -0.0741 -0.1267
 8366TIP3    H146513   5.312   0.837   0.091  0.5922  0.5158  0.0210
 8366TIP3    H246514   5.424   0.833  -0.010  1.4729 -0.1560  0.9981
 8367TIP3   OH246515   3.362   6.531   4.548  0.1983  0.4852 -0.4221
 8367TIP3    H146516   3.370   6.536   4.452 -1.8400  1.9764 -0.5874
 8367TIP3    H246517   3.356   6.623   4.576  0.3398  0.0528  1.0936
 8368TIP3   OH246518   0.606   2.963   3.095 -0.1420  0.5393 -0.0103
 8368TIP3    H146519   0.547   3.012   3.037 -1.2444  0.3912  0.9460
 8368TIP3    H246520   0.617   3.019   3.171  0.3316  0.2217  0.1579
 8369TIP3   OH246521   0.731   6.081  17.159 -0.2795 -0.3397 -0.0664
 8369TIP3    H146522   0.723   6.166  17.203  0.4763 -1.0205  1.4499
 8369TIP3    H246523   0.786   6.099  17.083 -1.8953  0.9385 -1.0070
 8370TIP3   OH246524   0.639   5.447   2.654 -0.3243 -0.4110  0.0061
 8370TIP3    H146525   0.658   5.482   2.740 -0.5750  1.1408 -0.5387
 8370TIP3    H246526   0.568   5.502   2.620 -0.8803 -1.5846 -0.8167
 8371TIP3   OH246527   3.969   3.114   0.990  0.6320  0.4075  0.3099
 8371TIP3    H146528   3.922   3.036   0.960 -0.9137  1.2100  0.5548
 8371TIP3    H246529   4.044   3.121   0.931  2.5091 -2.8657  2.0138
 8372TIP3   OH246530   0.488   3.215   5.176  0.2652  0.1519 -0.1232
 8372TIP3    H146531   0.418   3.215   5.110  0.4649 -1.2303 -0.3687
 8372TIP3    H246532   0.566   3.190   5.128  0.2040 -2.0252  0.8044
 8373TIP3   OH246533   4.156   1.675  12.998 -0.0796 -0.3572 -0.0836
 8373TIP3    H146534   4.089   1.740  12.975  0.4508  0.1977 -0.0739
 8373TIP3    H246535   4.227   1.726  13.037  0.4987 -0.8986 -0.4074
 8374TIP3   OH246536   5.743   6.770   1.902  0.2096  0.5741  0.5328
 8374TIP3    H146537   5.754   6.720   1.983 -0.9719 -0.1024  0.2949
 8374TIP3    H246538   5.649   6.775   1.889  0.3437  1.7833 -0.1367
 8375TIP3   OH246539   4.809   5.814   5.011  0.3553  0.1858 -0.1848
 8375TIP3    H146540   4.788   5.871   5.084  1.8434  1.8858 -1.0093
 8375TIP3    H246541   4.756   5.847   4.938  1.0372  0.3939 -0.6017
 8376TIP3   OH246542   4.316   2.901   0.276 -0.0863  0.3384  0.5133
 8376TIP3    H146543   4.359   2.984   0.297 -1.3276  0.8738  1.0382
 8376TIP3    H246544   4.353   2.875   0.192  0.3812  1.3866  0.3836
 8377TIP3   OH246545   4.351   5.368  13.107 -0.2071 -0.1140  0.1346
 8377TIP3    H146546   4.306   5.350  13.190 -1.3231 -0.6238 -0.5526
 8377TIP3    H246547   4.331   5.293  13.052  1.5438 -0.3652 -0.2139
 8378TIP3   OH246548   0.265   6.579   6.360  0.3929  0.2796 -0.5209
 8378TIP3    H146549   0.358   6.559   6.369 -0.0846 -2.7830 -1.3697
 8378TIP3    H246550   0.227   6.554   6.444  0.1795  0.6580 -0.5015
 8379TIP3   OH246551   2.880   0.329  15.583  0.2893 -0.0344 -0.4784
 8379TIP3    H146552   2.845   0.240  15.573 -0.4446  0.0346  1.1524
 8379TIP3    H246553   2.915   0.330  15.672  3.1363  0.3768 -1.5002
 8380TIP3   OH246554   1.110   0.859   3.502  0.3204  0.1587 -0.1921
 8380TIP3    H146555   1.184   0.892   3.452  1.7237 -1.9438  0.3614
 8380TIP3    H246556   1.143   0.849   3.591 -1.6511  2.2522  0.8767
 8381TIP3   OH246557   4.192   2.218   6.055  0.1300  0.0890  0.0958
 8381TIP3    H146558   4.144   2.288   6.101  0.9120 -0.2438  1.4749
 8381TIP3    H246559   4.234   2.263   5.981 -0.8234  0.7255 -0.0747
 8382TIP3   OH246560   2.375   4.825  16.638 -0.1739 -0.2933  0.0761
 8382TIP3    H146561   2.393   4.886  16.708  0.9271  1.8326 -1.9268
 8382TIP3    H246562   2.299   4.863  16.592 -1.5621 -2.1988  0.6469
 8383TIP3   OH246563   4.183   0.155  14.543  0.4605 -0.1178 -0.1220
 8383TIP3    H146564   4.215   0.123  14.627 -0.1906  1.7052  0.8680
 8383TIP3    H246565   4.087   0.156  14.553  0.4341  1.4082 -0.3572
 8384TIP3   OH246566   4.419   0.981  11.892 -0.5107 -0.0177 -0.3570
 8384TIP3    H146567   4.381   1.053  11.942  2.0976  1.1723  0.0552
 8384TIP3    H246568   4.462   1.023  11.818  0.7599 -1.1549 -0.2984
 8385TIP3   OH246569   4.383   1.023  12.762  0.3641 -0.1618  0.1545
 8385TIP3    H146570   4.291   1.010  12.740  0.9260  0.2040 -2.7849
 8385TIP3    H246571   4.390   1.117  12.782  0.1579 -0.0918 -0.0947
 8386TIP3   OH246572   2.038   0.935   4.575 -0.0078  0.4340  0.0308
 8386TIP3    H146573   2.111   0.909   4.632  0.9595  2.0260 -0.4012
 8386TIP3    H246574   1.973   0.972   4.635  0.4029  0.8104  0.2568
 8387TIP3   OH246575   1.664   6.512  16.063  0.0793 -0.6058 -0.3798
 8387TIP3    H146576   1.716   6.541  15.987  1.4826  0.3746  0.8965
 8387TIP3    H246577   1.580   6.485  16.026  0.5299  0.3672 -2.2193
 8388TIP3   OH246578   2.397   1.177  13.397  0.2856 -0.0891  0.0627
 8388TIP3    H146579   2.440   1.224  13.468  0.1866 -0.2343  0.2198
 8388TIP3    H246580   2.304   1.182  13.419  0.4025 -2.2766  1.2773
 8389TIP3   OH246581   4.414   0.706   6.741  0.2639 -0.1278  0.3778
 8389TIP3    H146582   4.422   0.636   6.806  0.0138  0.9313  1.6003
 8389TIP3    H246583   4.501   0.712   6.702  1.0097  0.4853  2.0211
 8390TIP3   OH246584   0.043   6.325  15.600 -0.0356 -0.5541  0.2569
 8390TIP3    H146585  -0.036   6.373  15.624  0.3501  1.8182 -2.6054
 8390TIP3    H246586   0.110   6.358  15.659 -0.8698 -1.7424  1.9440
 8391TIP3   OH246587   2.933   1.583  16.008  0.4999  1.0264  0.1964
 8391TIP3    H146588   2.838   1.591  16.010  0.5459  1.6072  0.2054
 8391TIP3    H246589   2.953   1.560  15.917  0.0718 -3.2208  0.9698
 8392TIP3   OH246590   2.106   4.546   3.866 -0.3424 -0.4985 -0.6549
 8392TIP3    H146591   2.193   4.506   3.863 -0.0579 -0.6372  3.6555
 8392TIP3    H246592   2.052   4.483   3.912 -2.0643  0.7100 -0.9380
 8393TIP3   OH246593   1.947   5.197  15.348 -0.0190  0.4883  0.0176
 8393TIP3    H146594   1.911   5.275  15.389 -0.3586  0.5499 -0.3941
 8393TIP3    H246595   1.939   5.213  15.254 -0.0201 -0.0056 -0.0712
 8394TIP3   OH246596   0.698   0.316  15.980  0.0280 -0.4775  0.1252
 8394TIP3    H146597   0.637   0.265  16.034 -1.3287  0.2460 -0.6618
 8394TIP3    H246598   0.770   0.338  16.039 -1.2375 -0.0077  1.5694
 8395TIP3   OH246599   5.645   6.111   5.682  0.4041 -0.1053 -0.2067
 8395TIP3    H146600   5.637   6.131   5.775  2.7315  1.5976 -0.2940
 8395TIP3    H246601   5.578   6.044   5.666 -0.7298  0.2887  2.4393
 8396TIP3   OH246602   1.595   3.343   3.026  0.1282  0.2371 -0.2494
 8396TIP3    H146603   1.671   3.393   2.997  0.1371 -0.7410 -2.0375
 8396TIP3    H246604   1.621   3.307   3.111  0.8346  1.6468  0.1584
 8397TIP3   OH246605   2.784   4.611  16.013 -0.4911  0.0196 -0.1336
 8397TIP3    H146606   2.836   4.629  15.934 -0.7812  1.5128 -0.0117
 8397TIP3    H246607   2.766   4.517  16.009  1.7881 -0.4616 -0.4466
 8398TIP3   OH246608   1.232   0.106   6.367 -0.1244 -0.2450 -0.3029
 8398TIP3    H146609   1.236   0.129   6.460 -1.9726 -1.6503  0.1871
 8398TIP3    H246610   1.324   0.093   6.341  0.3521 -1.4633  1.7750
 8399TIP3   OH246611   1.731   3.507  14.307  0.1545  0.0931  0.1139
 8399TIP3    H146612   1.784   3.443  14.259 -0.7629 -0.5202 -0.0957
 8399TIP3    H246613   1.651   3.460  14.331 -0.0433  0.8254  0.9643
 8400TIP3   OH246614   6.036   3.239   5.580 -0.5692  0.3345 -0.2520
 8400TIP3    H146615   6.019   3.146   5.596  0.4641  0.3771  1.3244
 8400TIP3    H246616   6.022   3.250   5.486  3.4366 -2.3847 -1.4166
 8401TIP3   OH246617   0.702   4.843  13.407 -0.3871 -0.4554  0.1854
 8401TIP3    H146618   0.704   4.758  13.450  1.7392 -1.7001 -2.1422
 8401TIP3    H246619   0.794   4.865  13.391 -0.9863  0.2204 -2.9787
 8402TIP3   OH246620   0.449   6.198  12.452 -0.0768 -0.1169  0.5473
 8402TIP3    H146621   0.397   6.140  12.396 -0.2085 -0.8939  1.4543
 8402TIP3    H246622   0.471   6.272  12.395 -0.2035 -0.8807 -0.5306
 8403TIP3   OH246623   4.668   5.081  12.745  0.4513  0.4138  0.0196
 8403TIP3    H146624   4.762   5.064  12.758  0.2521  0.3143  1.4577
 8403TIP3    H246625   4.650   5.156  12.801 -0.4343  0.1315  0.1189
 8404TIP3   OH246626   5.917   0.669  16.174  0.0645 -0.2525 -0.1195
 8404TIP3    H146627   5.917   0.737  16.107 -2.3711 -1.2949 -1.3013
 8404TIP3    H246628   5.947   0.590  16.128  0.9500 -0.4091  0.7133
 8405TIP3   OH246629   3.614   4.266  16.447  0.3025 -0.5631 -0.4796
 8405TIP3    H146630   3.693   4.286  16.497  0.6521  0.0865 -1.2708
 8405TIP3    H246631   3.543   4.276  16.511  0.7924 -0.4003  0.0537
 8406TIP3   OH246632   4.794   0.383  12.712 -0.4903 -0.1576 -0.1817
 8406TIP3    H146633   4.762   0.421  12.630 -0.3983 -0.5767 -0.4141
 8406TIP3    H246634   4.874   0.432  12.731  0.1834 -0.9014 -1.0137
 8407TIP3   OH246635   4.990   0.986  16.422 -0.1272 -0.3610  0.1053
 8407TIP3    H146636   4.948   1.055  16.370  1.1291 -0.1443 -0.6647
 8407TIP3    H246637   5.055   0.947  16.363  0.3587 -1.0622  1.0735
 8408TIP3   OH246638   6.285   4.443   5.950 -0.5077 -0.9038 -0.3789
 8408TIP3    H146639   6.216   4.429   5.884  1.1119  2.2622 -3.0660
 8408TIP3    H246640   6.352   4.379   5.928 -0.7656 -1.1003 -0.6034
 8409TIP3   OH246641   1.904   0.291  15.598 -0.3137 -0.5049  0.5159
 8409TIP3    H146642   1.953   0.257  15.523 -0.1200 -0.5167  0.6472
 8409TIP3    H246643   1.931   0.383  15.604  0.4895 -0.7737  1.2207
 8410TIP3   OH246644   0.372   0.066  11.606  0.3992 -0.0018 -0.1370
 8410TIP3    H146645   0.322  -0.014  11.592  0.0385  0.2291 -0.1877
 8410TIP3    H246646   0.345   0.095  11.694 -2.5755  2.2166 -1.5859
 8411TIP3   OH246647   2.170   4.873   3.212 -0.1380  0.3459  0.1603
 8411TIP3    H146648   2.162   4.945   3.149 -2.1734  1.3711  1.4716
 8411TIP3    H246649   2.157   4.915   3.297  0.9066 -1.2595  1.1505
 8412TIP3   OH246650   0.283   4.381   0.058  0.0833 -0.0514  0.1013
 8412TIP3    H146651   0.201   4.428   0.069  0.1327 -0.4923  3.2124
 8412TIP3    H246652   0.292   4.370  -0.037 -2.9016  0.8888 -0.3879
 8413TIP3   OH246653   5.027   2.618  14.902  0.1578  0.1152 -0.5421
 8413TIP3    H146654   5.096   2.626  14.968 -1.3447 -0.9699  1.2685
 8413TIP3    H246655   5.041   2.532  14.864 -0.1711 -0.0990 -0.1849
 8414TIP3   OH246656   0.476   1.304   0.858  0.1805  0.2845 -0.0298
 8414TIP3    H146657   0.393   1.255   0.858  0.6006 -0.4446  0.2795
 8414TIP3    H246658   0.543   1.236   0.853  0.7786  0.8315  0.4419
 8415TIP3   OH246659   1.800   4.348  17.054  0.4355 -0.3028 -0.4134
 8415TIP3    H146660   1.830   4.431  17.091 -1.1233 -0.1724  0.6637
 8415TIP3    H246661   1.753   4.306  17.126 -1.9228 -0.4607 -1.9120
 8416TIP3   OH246662   4.338   1.526   6.302  0.0853  0.8059 -0.6276
 8416TIP3    H146663   4.409   1.464   6.320  0.2906  0.9128 -1.0622
 8416TIP3    H246664   4.276   1.477   6.249 -0.1472  0.7255 -0.2823
 8417TIP3   OH246665   6.024   4.069  14.477 -0.0300  0.0545 -0.4274
 8417TIP3    H146666   5.971   4.121  14.417  0.4678 -0.5322 -1.4157
 8417TIP3    H246667   6.057   4.132  14.540 -0.0936  0.8051 -1.1180
 8418TIP3   OH246668   5.013   5.277   0.864 -0.0800  0.1185  0.1295
 8418TIP3    H146669   5.058   5.343   0.915  0.4628 -0.0089 -0.1792
 8418TIP3    H246670   4.964   5.225   0.928 -0.3498  0.6909  0.3888
 8419TIP3   OH246671   6.737   4.481   6.705  0.4820 -0.1936 -0.4778
 8419TIP3    H146672   6.794   4.557   6.715  0.4284 -0.2618  0.4409
 8419TIP3    H246673   6.794   4.413   6.669  0.8437 -0.0866 -0.1242
 8420TIP3   OH246674   3.853   3.579   4.709 -0.2593 -0.1524  0.1700
 8420TIP3    H146675   3.892   3.496   4.736 -1.6867 -0.1488  2.4624
 8420TIP3    H246676   3.858   3.634   4.786  0.9666  2.1032 -1.3960
 8421TIP3   OH246677   0.198   0.863   3.340 -0.1239  0.4157  0.3568
 8421TIP3    H146678   0.276   0.833   3.386  0.4736  0.2753 -0.7362
 8421TIP3    H246679   0.159   0.928   3.399  0.8619  0.5636  0.8562
 8422TIP3   OH246680   3.689   2.236  13.086  0.1766  0.3281 -0.0230
 8422TIP3    H146681   3.706   2.158  13.140 -0.4336 -0.0625 -0.3820
 8422TIP3    H246682   3.607   2.270  13.121  0.9514  1.4192  0.8110
 8423TIP3   OH246683   1.572   6.115   1.364  0.2414  0.7283  0.0797
 8423TIP3    H146684   1.650   6.067   1.336 -0.6378 -0.5965 -0.1921
 8423TIP3    H246685   1.501   6.077   1.312 -0.6687  1.5238  0.7133
 8424TIP3   OH246686   3.523   6.197  16.679  0.1599 -0.1931  0.0927
 8424TIP3    H146687   3.583   6.267  16.704 -0.6707 -0.1573  2.2162
 8424TIP3    H246688   3.454   6.241  16.628 -0.4134  0.6115  1.4973
 8425TIP3   OH246689   0.763   3.634  10.660 -0.2153 -0.1910  0.1282
 8425TIP3    H146690   0.804   3.571  10.602 -0.1255 -0.1515  0.1489
 8425TIP3    H246691   0.670   3.632  10.637 -0.1312  0.0484 -0.2253
 8426TIP3   OH246692   5.339   3.840  15.405  0.0960  0.8000  0.0868
 8426TIP3    H146693   5.253   3.823  15.444  0.5615  0.3493  0.9496
 8426TIP3    H246694   5.401   3.823  15.476  0.8917  1.2553 -0.4864
 8427TIP3   OH246695   1.779   1.450  15.605  1.0137 -0.1918 -0.8023
 8427TIP3    H146696   1.759   1.455  15.511 -1.0906  2.1522 -0.3548
 8427TIP3    H246697   1.693   1.438  15.646  1.8848 -0.9668  0.8443
 8428TIP3   OH246698   1.080   1.779   5.584  0.5803  0.3513  0.2397
 8428TIP3    H146699   1.005   1.827   5.618 -0.0805 -0.7303  0.3670
 8428TIP3    H246700   1.119   1.837   5.519  0.5650  1.5559  1.2689
 8429TIP3   OH246701   1.434   0.420   4.127 -0.1757  0.0358  0.3453
 8429TIP3    H146702   1.423   0.325   4.128  0.7178 -0.0672  1.0088
 8429TIP3    H246703   1.518   0.435   4.169 -0.4610  1.1432  0.5487
 8430TIP3   OH246704   6.621   2.025   0.251  0.4825  0.0472 -0.4954
 8430TIP3    H146705   6.694   1.970   0.278  0.5953  0.0158 -0.8523
 8430TIP3    H246706   6.546   1.991   0.300  0.0851 -1.8521 -2.2785
 8431TIP3   OH246707   0.410   2.344  15.214 -0.1047  0.2837 -0.0306
 8431TIP3    H146708   0.468   2.325  15.287 -1.4120 -1.9831  0.5091
 8431TIP3    H246709   0.466   2.334  15.136  0.9800  1.4877  0.5442
 8432TIP3   OH246710   1.716   0.843   5.599 -0.1206  0.3271  0.2794
 8432TIP3    H146711   1.733   0.936   5.587  0.0092  0.2208 -0.3752
 8432TIP3    H246712   1.773   0.800   5.536 -0.2091 -0.1989  0.5534
 8433TIP3   OH246713   6.765   6.385   3.053  0.0838  0.5917  0.4426
 8433TIP3    H146714   6.687   6.361   3.004 -0.3275  0.6238  1.0767
 8433TIP3    H246715   6.734   6.446   3.121  0.8266  1.5027 -0.0063
 8434TIP3   OH246716   5.122   2.602  14.158  0.7368 -0.1159  0.5950
 8434TIP3    H146717   5.187   2.673  14.164  0.4195  0.1077  1.5639
 8434TIP3    H246718   5.060   2.632  14.092  0.8228  0.3311  0.7133
 8435TIP3   OH246719   5.315   6.064  13.664 -0.4930 -0.0966 -0.0433
 8435TIP3    H146720   5.298   6.030  13.576  1.0818  0.8577 -0.7570
 8435TIP3    H246721   5.273   6.001  13.723 -0.6003 -1.3727 -1.4357
 8436TIP3   OH246722   5.704   5.087  15.273 -0.2933  0.1072 -0.3992
 8436TIP3    H146723   5.651   5.028  15.326 -0.7279 -0.4059 -1.3713
 8436TIP3    H246724   5.724   5.037  15.194  0.3761  0.8303 -0.7011
 8437TIP3   OH246725   6.683   4.659  11.769  0.1023 -0.3208 -0.1966
 8437TIP3    H146726   6.766   4.614  11.750  0.2822 -0.0457 -0.0656
 8437TIP3    H246727   6.636   4.599  11.826 -0.7211 -1.4594 -1.9611
 8438TIP3   OH246728   3.538   0.419   2.932  0.6105 -0.1485  0.0097
 8438TIP3    H146729   3.475   0.370   2.879  0.6368 -2.1800  1.7392
 8438TIP3    H246730   3.498   0.425   3.018  1.3880  1.4460  0.3036
 8439TIP3   OH246731   2.460   3.361   0.218 -0.4202  0.1387  0.3216
 8439TIP3    H146732   2.431   3.286   0.270  1.5513 -0.9047  0.0211
 8439TIP3    H246733   2.420   3.347   0.132  0.9095 -1.3062 -0.1120
 8440TIP3   OH246734   2.375   3.679   3.401 -0.5811  0.0731  0.7279
 8440TIP3    H146735   2.316   3.622   3.450  0.2357  0.6809  2.4665
 8440TIP3    H246736   2.394   3.629   3.321 -0.7516 -1.6262  1.6903
 8441TIP3   OH246737   0.735   4.368   2.842  0.3692 -0.0145 -0.4564
 8441TIP3    H146738   0.769   4.427   2.909 -1.9489 -0.6316  1.4057
 8441TIP3    H246739   0.745   4.280   2.880 -1.9007 -0.3064 -0.3907
 8442TIP3   OH246740   1.667   5.422  15.276  0.8184 -0.3948  0.4085
 8442TIP3    H146741   1.682   5.391  15.365 -0.9985 -1.6595  0.3354
 8442TIP3    H246742   1.614   5.354  15.235  0.9638  0.5103 -1.4175
 8443TIP3   OH246743   2.734   5.491  10.574 -0.3714  0.4106 -0.2238
 8443TIP3    H146744   2.770   5.440  10.647  0.6963  0.9931 -0.3199
 8443TIP3    H246745   2.650   5.450  10.555  0.5720 -1.5043 -0.4915
 8444TIP3   OH246746   0.872   6.402  12.992 -0.3954 -0.0464  0.1535
 8444TIP3    H146747   0.835   6.405  13.081 -1.0683 -1.3316 -0.0604
 8444TIP3    H246748   0.832   6.326  12.952  1.6031 -0.8146 -0.5070
 8445TIP3   OH246749   5.420   3.329  15.381 -0.0059  0.3693 -0.2858
 8445TIP3    H146750   5.477   3.370  15.315  0.0102  0.1112 -0.4325
 8445TIP3    H246751   5.338   3.378  15.376 -0.1505  0.0729 -0.7946
 8446TIP3   OH246752   3.686   0.050   0.881 -0.4126 -0.2027  0.6125
 8446TIP3    H146753   3.697   0.044   0.976 -0.8851 -0.2030  0.6693
 8446TIP3    H246754   3.769   0.086   0.850 -0.7540  1.1441  1.1769
 8447TIP3   OH246755   0.057   1.499  17.179  0.1282 -0.1675  0.0914
 8447TIP3    H146756   0.081   1.592  17.167  2.2103 -0.6296  0.1891
 8447TIP3    H246757   0.001   1.498  17.256  0.7549  0.9302  0.5829
 8448TIP3   OH246758   3.387   6.450   1.730  0.3626  0.8131 -0.2058
 8448TIP3    H146759   3.370   6.360   1.703  2.1288  0.1614  0.6648
 8448TIP3    H246760   3.434   6.488   1.655  0.7091  0.6089 -0.0972
 8449TIP3   OH246761   5.986   2.292   2.366 -0.7154  0.2302 -0.2121
 8449TIP3    H146762   5.999   2.237   2.288 -0.1435 -0.0050  0.0451
 8449TIP3    H246763   6.067   2.342   2.374 -1.9212  2.5525 -1.5415
 8450TIP3   OH246764   5.309   6.470  13.501  0.4616 -0.2944 -0.1113
 8450TIP3    H146765   5.377   6.406  13.482  1.8196  0.4150  2.0003
 8450TIP3    H246766   5.240   6.419  13.545  0.9486 -0.5465  0.3719
 8451TIP3   OH246767   2.044   2.889   1.347  0.2498  0.6175  0.0373
 8451TIP3    H146768   2.053   2.809   1.399  2.0264  0.3280 -0.6549
 8451TIP3    H246769   1.969   2.934   1.386 -0.8779 -1.4179  0.3769
 8452TIP3   OH246770   4.846   0.075  13.297  0.2543 -0.5510  0.1318
 8452TIP3    H146771   4.931   0.063  13.254  0.2396  2.3907 -1.0057
 8452TIP3    H246772   4.865   0.134  13.370 -0.7457 -0.0914  0.0352
 8453TIP3   OH246773   4.825   6.416  12.875  0.4552  1.0104 -0.0298
 8453TIP3    H146774   4.814   6.322  12.861  0.2267  0.9352  0.6116
 8453TIP3    H246775   4.737   6.452  12.862  0.4138  1.0490  0.3468
 8454TIP3   OH246776   0.450   4.707  14.509  0.2287 -0.4964 -0.2875
 8454TIP3    H146777   0.391   4.755  14.451 -0.0603 -0.3418  0.1364
 8454TIP3    H246778   0.409   4.621  14.521  0.2454 -0.4982 -0.2415
 8455TIP3   OH246779   0.391   1.075   6.272 -0.4373  0.3689 -0.1377
 8455TIP3    H146780   0.431   1.088   6.358 -0.7734 -0.2733  0.1250
 8455TIP3    H246781   0.411   0.984   6.250 -1.2487  0.2113 -0.2615
 8456TIP3   OH246782   2.043   0.501  12.394  0.3578  0.3937  0.7681
 8456TIP3    H146783   2.073   0.498  12.484 -0.2072 -0.2979  0.9445
 8456TIP3    H246784   1.999   0.417  12.380 -0.3155  0.8360  0.1241
 8457TIP3   OH246785   0.054   6.627  13.860  0.2372 -0.4148 -0.3111
 8457TIP3    H146786   0.140   6.610  13.898  0.8953  0.4281 -1.3752
 8457TIP3    H246787   0.069   6.697  13.797 -1.4095  0.3740  0.1328
 8458TIP3   OH246788   3.967   5.803   2.668  0.5309  0.1093 -0.0473
 8458TIP3    H146789   3.942   5.819   2.759 -1.0818  0.0578 -0.4626
 8458TIP3    H246790   4.063   5.796   2.671  0.5271  0.3431  1.6000
 8459TIP3   OH246791   1.518   2.468   4.591 -0.6722 -0.3528 -0.0208
 8459TIP3    H146792   1.559   2.438   4.672 -1.8170  0.5309  0.9058
 8459TIP3    H246793   1.535   2.562   4.589  2.5270 -0.7760 -2.6929
 8460TIP3   OH246794   2.519   4.432   1.690 -0.0476  0.1703  0.1316
 8460TIP3    H146795   2.431   4.465   1.670 -0.4719 -0.2512  1.1983
 8460TIP3    H246796   2.577   4.505   1.670 -0.7538  0.8259  0.4288
 8461TIP3   OH246797   6.711   6.479   5.236  0.0358 -0.4081  0.5946
 8461TIP3    H146798   6.729   6.554   5.178 -3.8952  1.4354  1.4410
 8461TIP3    H246799   6.792   6.469   5.287  2.2694  0.3351 -2.4735
 8462TIP3   OH246800   5.546   5.066  13.076 -0.1520 -1.0358 -0.1641
 8462TIP3    H146801   5.470   5.075  13.019 -0.1230  1.9295  0.1298
 8462TIP3    H246802   5.621   5.073  13.017 -0.1187  2.2082  0.0873
 8463TIP3   OH246803   6.420   6.224  14.819  0.1258  0.0862  0.6138
 8463TIP3    H146804   6.410   6.201  14.912 -1.9577  0.4545  0.5403
 8463TIP3    H246805   6.405   6.318  14.816 -1.6213 -0.1782 -0.2720
 8464TIP3   OH246806   1.473   5.161  15.589 -0.1981 -0.4650 -0.1418
 8464TIP3    H146807   1.560   5.132  15.561  0.6322  1.3767  0.3375
 8464TIP3    H246808   1.470   5.254  15.565 -0.9313  0.2312  2.2941
 8465TIP3   OH246809   2.834   5.138   0.893 -0.0010  0.6224 -0.2290
 8465TIP3    H146810   2.900   5.186   0.943  0.1232  1.1145 -0.8540
 8465TIP3    H246811   2.753   5.188   0.907  0.5412  2.3665 -2.6419
 8466TIP3   OH246812   0.865   0.953  14.703 -0.0461 -0.1745  0.0490
 8466TIP3    H146813   0.785   1.004  14.697 -0.4781 -0.7734  0.5544
 8466TIP3    H246814   0.837   0.869  14.740  0.9909  0.0544  1.4521
 8467TIP3   OH246815   3.419   4.314   4.852 -0.5096 -0.0939 -0.2817
 8467TIP3    H146816   3.343   4.269   4.890  0.2070  0.5995  2.1497
 8467TIP3    H246817   3.436   4.386   4.912  1.6646  0.1876 -1.1631
 8468TIP3   OH246818   6.009   4.371   2.836 -0.5091 -0.4320  0.2228
 8468TIP3    H146819   5.963   4.328   2.763 -0.0713 -0.8552  0.1918
 8468TIP3    H246820   5.939   4.394   2.897 -0.7262 -1.6061  0.4469
 8469TIP3   OH246821   2.880   6.293   2.955  0.6030  0.3216  0.4250
 8469TIP3    H146822   2.827   6.309   3.033  0.7364 -2.2902  1.1429
 8469TIP3    H246823   2.942   6.225   2.982  0.6043 -0.7273 -1.9454
 8470TIP3   OH246824   5.656   1.168  12.470  0.5392  0.1807 -0.3197
 8470TIP3    H146825   5.643   1.096  12.532 -0.6463  0.0486 -0.6872
 8470TIP3    H246826   5.597   1.147  12.397 -1.9407  2.8210  0.7152
 8471TIP3   OH246827   6.431   4.978  13.335  0.2238  0.2971 -0.0673
 8471TIP3    H146828   6.519   5.015  13.325  1.3040 -1.7107  1.2322
 8471TIP3    H246829   6.444   4.902  13.392 -2.3518 -0.1613  0.0116
 8472TIP3   OH246830   1.282   3.181   4.082 -0.1584  0.1792  0.2306
 8472TIP3    H146831   1.194   3.189   4.120  0.3997 -0.3589  1.7292
 8472TIP3    H246832   1.280   3.096   4.037 -0.3441  0.0553  0.4647
 8473TIP3   OH246833   3.238   1.312  12.805  0.4323 -0.1359 -0.0932
 8473TIP3    H146834   3.209   1.357  12.884 -3.2407  0.1094 -1.3844
 8473TIP3    H246835   3.241   1.381  12.738  1.4351 -0.6935 -0.6418
 8474TIP3   OH246836   0.827   6.234   1.202 -0.3940 -0.2274  0.1961
 8474TIP3    H146837   0.908   6.221   1.154  0.7005  1.5103  1.4469
 8474TIP3    H246838   0.758   6.228   1.136  0.5725 -3.1465 -0.6656
 8475TIP3   OH246839   0.700   5.061  13.843  0.4945  0.1806 -0.1653
 8475TIP3    H146840   0.660   5.063  13.756 -1.7071 -0.7530  0.7626
 8475TIP3    H246841   0.703   5.153  13.870 -2.3266  0.2428  0.2241
 8476TIP3   OH246842   2.587   3.227   6.244 -0.0716  0.0146 -0.5680
 8476TIP3    H146843   2.578   3.321   6.225 -0.9219  0.1551  0.4505
 8476TIP3    H246844   2.681   3.214   6.259  0.0487  0.7103 -0.6784
 8477TIP3   OH246845   0.049   0.981  16.501  0.1582 -0.4529  0.0077
 8477TIP3    H146846  -0.005   0.967  16.579  1.2718 -2.6818  0.4572
 8477TIP3    H246847   0.073   0.893  16.473  0.7677  0.3525 -2.1893
 8478TIP3   OH246848   2.981   6.712   0.293  0.2845  0.2782  0.6637
 8478TIP3    H146849   3.023   6.798   0.292  1.0643 -0.0827  1.1285
 8478TIP3    H246850   2.897   6.727   0.335  0.4462  0.8049  0.8038
 8479TIP3   OH246851   1.125   2.892  12.332  0.6980 -1.0078  0.2599
 8479TIP3    H146852   1.071   2.884  12.253  1.5446 -1.7227 -0.2591
 8479TIP3    H246853   1.210   2.857  12.307  1.0198 -1.1344  1.4593
 8480TIP3   OH246854   0.310   4.680  15.528 -0.3435  0.6444  0.0529
 8480TIP3    H146855   0.315   4.632  15.446  0.3734  1.4850 -0.4085
 8480TIP3    H246856   0.365   4.631  15.589  2.1185  1.9549 -0.9881
 8481TIP3   OH246857   6.219   6.071  13.175 -0.1427  0.1261  0.2754
 8481TIP3    H146858   6.293   6.094  13.119 -0.5498 -0.8488 -0.7203
 8481TIP3    H246859   6.257   6.021  13.247  0.3964  1.4298  0.9121
 8482TIP3   OH246860   5.216   1.727   4.551 -0.8344  0.2972  0.4144
 8482TIP3    H146861   5.156   1.787   4.594  0.4368  1.2908  0.8971
 8482TIP3    H246862   5.303   1.767   4.564 -0.1417 -0.7147 -0.8337
 8483TIP3   OH246863   5.384   6.103  14.370 -0.0571  1.0510  0.2673
 8483TIP3    H146864   5.326   6.153  14.427  1.1348 -0.5960  3.1867
 8483TIP3    H246865   5.466   6.152  14.371  0.6140 -0.0197  1.8155
 8484TIP3   OH246866   1.595   0.803  16.149  0.1328 -0.4621  0.1699
 8484TIP3    H146867   1.599   0.896  16.169  1.1252 -0.4012 -0.2303
 8484TIP3    H246868   1.627   0.797  16.058  1.8621 -1.3589  0.7915
 8485TIP3   OH246869   2.432   1.139   1.973  0.0821 -0.2127 -0.3627
 8485TIP3    H146870   2.352   1.114   1.928  0.3800  0.0320 -1.0350
 8485TIP3    H246871   2.445   1.070   2.038 -0.7608 -0.1599 -0.1242
 8486TIP3   OH246872   6.775   4.837   0.665  0.4573  0.1448 -0.3873
 8486TIP3    H146873   6.748   4.884   0.585  0.5090 -1.0950 -1.1579
 8486TIP3    H246874   6.699   4.784   0.688  0.5402  0.2995  0.2512
 8487TIP3   OH246875   3.367   5.185  14.491 -0.4301  0.1736 -0.2120
 8487TIP3    H146876   3.387   5.250  14.424  1.3687 -0.4216 -0.3063
 8487TIP3    H246877   3.285   5.215  14.531 -1.3357  0.7550 -2.3887
 8488TIP3   OH246878   5.329   5.619   0.875 -0.4211 -0.2494 -0.3338
 8488TIP3    H146879   5.313   5.524   0.876  1.1900 -0.5443  0.5848
 8488TIP3    H246880   5.340   5.643   0.967  0.6119  0.5570 -0.6508
 8489TIP3   OH246881   5.568   1.195  11.773  0.1624  0.0819  0.6849
 8489TIP3    H146882   5.478   1.165  11.761  0.1056  0.7032 -0.5866
 8489TIP3    H246883   5.563   1.290  11.762  0.9892  0.1172  0.5204
 8490TIP3   OH246884   0.599   6.771   0.761  0.5274 -0.0403 -0.6048
 8490TIP3    H146885   0.568   6.681   0.755 -0.5288  0.2905 -0.3054
 8490TIP3    H246886   0.569   6.812   0.680 -0.8953  0.5916  0.2113
 8491TIP3   OH246887   0.657   3.699   1.464 -0.0914  0.3085  0.1364
 8491TIP3    H146888   0.666   3.774   1.523  1.5668  0.1680  0.0924
 8491TIP3    H246889   0.583   3.722   1.408 -0.1824  1.5091  0.7152
 8492TIP3   OH246890   5.159   2.509  12.405 -0.1493 -0.2047  0.6377
 8492TIP3    H146891   5.179   2.446  12.336  0.3011 -0.0298  0.6057
 8492TIP3    H246892   5.064   2.510  12.410 -0.1723 -0.4953  0.2746
 8493TIP3   OH246893   5.532   0.567   4.466 -0.0598  0.1894 -0.1980
 8493TIP3    H146894   5.443   0.603   4.470 -0.5091 -0.7695 -1.1279
 8493TIP3    H246895   5.585   0.629   4.517 -1.5492 -0.2026  1.9503
 8494TIP3   OH246896   4.398   1.658  15.767 -1.1633  0.0107 -0.0243
 8494TIP3    H146897   4.432   1.747  15.767 -1.7622  0.2479  0.1075
 8494TIP3    H246898   4.450   1.612  15.701 -1.4033  0.6751 -0.6850
 8495TIP3   OH246899   3.965   6.378  10.584 -0.2609 -0.0480  0.2262
 8495TIP3    H146900   3.956   6.466  10.548 -0.2790 -0.0838  0.1439
 8495TIP3    H246901   3.899   6.375  10.654  1.1890  0.7524  1.7024
 8496TIP3   OH246902   2.164   6.702   5.296 -0.8794  0.3505 -0.0768
 8496TIP3    H146903   2.220   6.769   5.335  0.3659 -0.5635 -0.2361
 8496TIP3    H246904   2.182   6.708   5.202 -1.4357  0.3763 -0.1875
 8497TIP3   OH246905   6.119   2.111   2.869 -0.0081  0.2822 -0.1889
 8497TIP3    H146906   6.088   2.029   2.907  2.6218 -0.4206  0.6549
 8497TIP3    H246907   6.096   2.104   2.776  0.7343 -1.7600 -0.2834
 8498TIP3   OH246908   0.887   3.174   2.446  0.1620 -0.1593 -0.2574
 8498TIP3    H146909   0.889   3.107   2.378  0.6094  0.5183 -0.9310
 8498TIP3    H246910   0.965   3.227   2.429 -0.8149  1.2579 -0.4960
 8499TIP3   OH246911   6.421   3.337  11.487 -0.5539 -0.5498 -0.3613
 8499TIP3    H146912   6.355   3.327  11.555  0.5126  0.5112  0.8936
 8499TIP3    H246913   6.420   3.253  11.439 -1.9297 -0.9865  0.3935
 8500TIP3   OH246914   4.773   2.969  16.996 -0.1451 -0.2720  0.2443
 8500TIP3    H146915   4.796   2.944  16.907  3.1108 -1.6950  1.3243
 8500TIP3    H246916   4.721   3.049  16.986 -0.5481 -0.8050 -2.9019
 8501TIP3   OH246917   4.949   5.964   0.729 -0.0183 -0.4175 -0.0681
 8501TIP3    H146918   5.044   5.970   0.723  0.1381 -0.1193  2.0690
 8501TIP3    H246919   4.930   5.871   0.722  0.6377 -0.6932  1.5211
 8502TIP3   OH246920   5.223   5.490  13.321 -0.2863  0.2829  0.3645
 8502TIP3    H146921   5.210   5.405  13.278  0.2800  0.4496 -0.1690
 8502TIP3    H246922   5.217   5.553  13.249 -1.4863  0.7693  0.8795
 8503TIP3   OH246923   5.063   6.397   2.520 -0.1510 -0.1505  0.2314
 8503TIP3    H146924   5.039   6.304   2.524  1.1901 -0.5302  0.0061
 8503TIP3    H246925   5.127   6.408   2.590 -0.9081  0.8148  0.7912
 8504TIP3   OH246926   2.435   5.749  13.021  0.0070 -0.1655  0.0594
 8504TIP3    H146927   2.459   5.816  13.084 -1.1126 -0.2155  0.5580
 8504TIP3    H246928   2.426   5.669  13.073  0.9332 -0.6430 -0.4682
 8505TIP3   OH246929   5.468   5.078  14.831  0.5231 -0.9033 -0.1477
 8505TIP3    H146930   5.539   5.031  14.788 -0.4101 -0.9661 -1.6744
 8505TIP3    H246931   5.417   5.116  14.760  1.4173  2.8020  0.9555
 8506TIP3   OH246932   0.954   4.857  17.130  0.0088 -0.4283  1.2609
 8506TIP3    H146933   1.020   4.843  17.199  1.8343  1.5106  0.0308
 8506TIP3    H246934   0.964   4.949  17.106 -2.1243 -0.4892 -0.0795
 8507TIP3   OH246935   5.626   6.232  14.311 -0.2070 -0.3378  0.1287
 8507TIP3    H146936   5.655   6.246  14.220 -0.3913  1.6627  0.3355
 8507TIP3    H246937   5.688   6.169  14.346  2.8332  2.3156 -0.0351
 8508TIP3   OH246938   4.959   6.130   2.526 -0.0565 -0.2079  0.5811
 8508TIP3    H146939   4.986   6.038   2.527  0.0505 -0.3190 -2.3699
 8508TIP3    H246940   4.890   6.133   2.460 -0.3289  1.7809  0.9086
 8509TIP3   OH246941   5.755   1.275  14.213 -0.0184  0.2911  0.4266
 8509TIP3    H146942   5.822   1.301  14.149 -1.2644  1.9239 -0.2940
 8509TIP3    H246943   5.788   1.308  14.297  1.1367 -0.9490  0.4871
 8510TIP3   OH246944   5.134   0.954  14.682 -0.7391  0.4894  0.0689
 8510TIP3    H146945   5.101   0.950  14.592  0.7729 -1.1076 -0.4589
 8510TIP3    H246946   5.078   0.894  14.730 -2.6198  2.5502  0.6468
 8511TIP3   OH246947   5.967   6.294  13.228 -0.5184 -0.4362  0.8326
 8511TIP3    H146948   6.025   6.220  13.241  2.9204  1.4500 -2.1027
 8511TIP3    H246949   5.938   6.287  13.137 -0.3123  1.6050  0.5653
 8512TIP3   OH246950   5.354   6.055  12.774  0.3480  0.2287  0.1937
 8512TIP3    H146951   5.400   6.123  12.726 -1.2098 -0.3738 -2.3538
 8512TIP3    H246952   5.312   6.100  12.847  1.6040  1.4472  0.1935
 8513TIP3   OH246953   3.971   4.659  10.209 -0.2248  0.4548  0.9143
 8513TIP3    H146954   3.952   4.747  10.176 -0.1187  0.2156  0.2021
 8513TIP3    H246955   4.038   4.672  10.276  2.7755  0.5508 -1.9197
 8514TIP3   OH246956   5.424   1.082  11.282 -0.7440 -0.0704  0.0803
 8514TIP3    H146957   5.431   1.126  11.198  0.1326 -1.1755 -0.4541
 8514TIP3    H246958   5.349   1.023  11.272 -1.2597  0.5124  0.4314
 8515TIP3   OH246959   3.064   2.883   0.476 -0.4152 -0.1260  0.3757
 8515TIP3    H146960   3.135   2.846   0.424 -0.8266  0.7886 -0.8843
 8515TIP3    H246961   3.100   2.890   0.564  0.4915 -1.1880  0.1151
 8516TIP3   OH246962   5.256   2.150   5.897  0.4281  0.2279  0.4367
 8516TIP3    H146963   5.173   2.145   5.851  0.8106  1.7600 -0.4707
 8516TIP3    H246964   5.234   2.133   5.989 -0.4665 -2.0675 -0.1212
 8517TIP3   OH246965   3.984   1.868   2.946 -0.2255 -0.2099 -0.1656
 8517TIP3    H146966   3.942   1.923   2.880 -2.1136 -1.9079 -0.4946
 8517TIP3    H246967   3.968   1.778   2.915 -0.5049 -1.0320  2.1778
 8518TIP3   OH246968   4.273   5.239  12.698  0.3255 -0.3734  0.3044
 8518TIP3    H146969   4.279   5.334  12.685  1.6204 -0.5251 -0.4234
 8518TIP3    H246970   4.285   5.202  12.611 -0.6074 -1.2066  0.5141
 8519TIP3   OH246971   6.583   5.386   1.630 -0.0390 -0.1125  0.5126
 8519TIP3    H146972   6.530   5.438   1.569  2.1513  2.3810  0.5677
 8519TIP3    H246973   6.664   5.368   1.582 -0.5656 -3.3429  0.6244
 8520TIP3   OH246974   2.474   4.143   1.824 -0.3816  0.3204  0.3058
 8520TIP3    H146975   2.379   4.154   1.821 -0.4440 -0.2115  0.2732
 8520TIP3    H246976   2.509   4.228   1.797 -0.8633  0.0668 -1.2321
 8521TIP3   OH246977   4.231   0.039  17.189  0.0371 -0.7026  0.2923
 8521TIP3    H146978   4.271   0.070  17.108 -0.1471 -1.2652 -0.0201
 8521TIP3    H246979   4.282   0.079  17.259  0.2610 -0.2985 -0.1058
 8522TIP3   OH246980   4.254   3.011  12.316  0.0155 -0.5011 -0.7207
 8522TIP3    H146981   4.331   3.064  12.335  0.0396 -0.2921 -1.3953
 8522TIP3    H246982   4.286   2.921  12.313  0.1444 -0.4628 -0.5363
 8523TIP3   OH246983   4.630   6.163  15.101 -0.2530 -0.1087  0.1583
 8523TIP3    H146984   4.639   6.088  15.043 -0.2914  0.0718 -0.0829
 8523TIP3    H246985   4.648   6.128  15.189 -1.6760 -0.7115  0.2339
 8524TIP3   OH246986   1.776   3.698  13.717 -0.2984 -0.3274 -0.2099
 8524TIP3    H146987   1.749   3.634  13.783 -3.4482  1.5462  0.4952
 8524TIP3    H246988   1.729   3.778  13.739 -1.3047  0.5169 -4.5176
 8525TIP3   OH246989   6.280   1.608   0.939 -0.4254 -0.0157  0.0657
 8525TIP3    H146990   6.245   1.685   0.896 -0.3767 -1.3527 -2.5297
 8525TIP3    H246991   6.364   1.637   0.975 -0.9384  1.4066  0.1810
 8526TIP3   OH246992   6.217   4.910   6.253 -0.2577 -0.3993  0.3816
 8526TIP3    H146993   6.283   4.871   6.195  0.6761  0.2383  0.9848
 8526TIP3    H246994   6.156   4.839   6.271  0.9125 -1.3446  0.7464
 8527TIP3   OH246995   3.725   0.156  13.396 -0.1196  0.2699  0.1329
 8527TIP3    H146996   3.765   0.070  13.408 -1.1265 -0.0546  1.3456
 8527TIP3    H246997   3.766   0.211  13.462 -0.7788  0.2296  0.5949
 8528TIP3   OH246998   6.011   3.169  14.452  0.1644  0.5450  0.1365
 8528TIP3    H146999   5.993   3.108  14.381 -2.6646  2.5220 -1.0556
 8528TIP3    H247000   6.084   3.222  14.420 -0.1541  0.4950 -0.7085
 8529TIP3   OH247001   4.284   0.594   5.504  0.0495 -0.1845  0.1789
 8529TIP3    H147002   4.267   0.649   5.580 -2.4085 -0.3625 -0.1749
 8529TIP3    H247003   4.278   0.504   5.537  1.5911 -0.3009  0.2464
 8530TIP3   OH247004   0.404   3.573  13.853  0.3535  0.3550  0.5330
 8530TIP3    H147005   0.377   3.502  13.795  0.8065  0.2259  0.4750
 8530TIP3    H247006   0.340   3.571  13.924 -0.7020  1.0399 -0.3586
 8531TIP3   OH247007   1.189   3.328   1.948  0.0602  0.1988  0.1499
 8531TIP3    H147008   1.215   3.273   1.875 -0.0072 -0.4676  0.6195
 8531TIP3    H247009   1.096   3.309   1.961  0.1078  0.1939  0.5040
 8532TIP3   OH247010   2.815   6.390   1.270  1.0504  0.2392  0.1386
 8532TIP3    H147011   2.761   6.316   1.298  0.5753 -0.4358 -2.3579
 8532TIP3    H247012   2.757   6.466   1.281  1.2597  0.1867  1.9272
 8533TIP3   OH247013   2.852   4.833   0.228  0.4494 -0.0048  0.2711
 8533TIP3    H147014   2.932   4.816   0.277  1.3079  0.0579 -1.0657
 8533TIP3    H247015   2.788   4.857   0.295  1.4360 -0.4226  1.4004
 8534TIP3   OH247016   3.374   4.570  16.302  0.1335 -0.0152 -0.0012
 8534TIP3    H147017   3.429   4.511  16.251 -0.2171  0.6729 -1.2239
 8534TIP3    H247018   3.285   4.541  16.285  0.0546 -1.0290  1.8532
 8535TIP3   OH247019   4.838   2.863   3.349  0.7740 -0.6501  0.7200
 8535TIP3    H147020   4.925   2.884   3.384 -0.4806  2.1393  2.4830
 8535TIP3    H247021   4.778   2.876   3.422 -1.4254  0.0898 -1.0776
 8536TIP3   OH247022   4.607   4.012   3.627 -0.4003 -0.0183 -0.4024
 8536TIP3    H147023   4.670   4.082   3.608  2.5369 -2.0517  1.0434
 8536TIP3    H247024   4.565   3.994   3.543  0.0372  2.2666 -1.1747
 8537TIP3   OH247025   4.589   2.641  12.002  0.2400 -0.1092 -0.5406
 8537TIP3    H147026   4.629   2.728  12.011 -1.2237  0.4033  1.9477
 8537TIP3    H247027   4.655   2.581  12.035 -0.2934  0.5611  1.9199
 8538TIP3   OH247028   0.956   2.852  15.780  0.2011 -0.5848  0.1880
 8538TIP3    H147029   0.986   2.878  15.693 -0.7413 -2.1626 -0.6484
 8538TIP3    H247030   1.034   2.812  15.821  0.7599  0.5430  0.2572
 8539TIP3   OH247031   2.169   0.724  16.708 -0.1657  0.2399 -0.1621
 8539TIP3    H147032   2.246   0.691  16.663  0.2426 -0.0891  0.7614
 8539TIP3    H247033   2.097   0.668  16.678 -0.0516  0.5213 -0.9910
 8540TIP3   OH247034   1.236   2.910   3.945 -0.1656  0.4132  0.4329
 8540TIP3    H147035   1.297   2.901   3.872  0.1275 -2.5291  0.9109
 8540TIP3    H247036   1.149   2.901   3.906  0.0137 -1.9601  0.4354
 8541TIP3   OH247037   6.676   0.948   3.763 -0.0738  0.4036  0.0228
 8541TIP3    H147038   6.660   0.912   3.676  0.9383 -0.7431  0.2937
 8541TIP3    H247039   6.767   0.928   3.781  0.7490  3.5814 -0.0013
 8542TIP3   OH247040   0.729   2.821   4.274  0.1204 -0.5080 -0.6291
 8542TIP3    H147041   0.817   2.812   4.237 -0.0549 -2.3386 -0.6767
 8542TIP3    H247042   0.686   2.884   4.216  1.0706 -0.3798 -1.2251
 8543TIP3   OH247043   6.155   3.510  13.134 -0.3709  0.0186  0.1440
 8543TIP3    H147044   6.185   3.580  13.076 -2.0116  1.6337  1.1331
 8543TIP3    H247045   6.178   3.541  13.222 -1.7828 -0.2996  0.6575
 8544TIP3   OH247046   1.947   0.971  15.892 -0.0768 -0.1553 -0.0617
 8544TIP3    H147047   1.941   0.911  15.966  0.4070  0.4013  0.4361
 8544TIP3    H247048   2.012   1.036  15.919  0.8283 -0.4834 -1.3477
 8545TIP3   OH247049   6.576   5.086  12.162  0.1700 -0.1013 -0.1580
 8545TIP3    H147050   6.501   5.027  12.171  1.1471 -1.1942  1.1537
 8545TIP3    H247051   6.593   5.088  12.067  0.9828 -3.0957 -0.1656
 8546TIP3   OH247052   0.160   2.399   4.767  0.8899 -0.3427  0.2734
 8546TIP3    H147053   0.200   2.453   4.836  0.3731 -0.4259  0.6394
 8546TIP3    H247054   0.077   2.370   4.804  1.6024 -2.2717  0.5058
 8547TIP3   OH247055   3.925   5.253  16.866  0.1990 -0.0185  0.5671
 8547TIP3    H147056   3.852   5.254  16.927  1.3380  1.1679  2.0065
 8547TIP3    H247057   3.898   5.194  16.796 -2.4135  0.9778  0.6547
 8548TIP3   OH247058   4.282   2.970  15.148  0.3784 -0.3943  0.0434
 8548TIP3    H147059   4.203   2.987  15.097  1.0831  1.7847 -0.4648
 8548TIP3    H247060   4.302   2.878  15.131 -0.1882 -0.1353 -2.5602
 8549TIP3   OH247061   5.577   3.943  10.650 -0.0287  0.0715 -0.4845
 8549TIP3    H147062   5.510   3.947  10.583  0.0030  0.3566 -0.5022
 8549TIP3    H247063   5.594   3.850  10.663 -0.0642  0.0158 -0.8410
 8550TIP3   OH247064   4.549   5.501   3.898  0.1628  0.0253 -0.3422
 8550TIP3    H147065   4.559   5.420   3.948 -0.2284  0.3141  0.2164
 8550TIP3    H247066   4.508   5.474   3.816 -0.0014 -0.3414 -0.1394
 8551TIP3   OH247067   2.735   1.440   1.573  0.2395  0.1144 -0.3742
 8551TIP3    H147068   2.826   1.413   1.568  0.3098  0.1741  0.5258
 8551TIP3    H247069   2.690   1.367   1.616 -0.0525  0.2962 -0.3652
 8552TIP3   OH247070   6.198   3.725  11.719 -0.5193 -0.0625  0.0924
 8552TIP3    H147071   6.179   3.818  11.729 -1.6965 -0.1756 -0.9071
 8552TIP3    H247072   6.151   3.698  11.640 -1.5585 -1.8558  1.2456
 8553TIP3   OH247073   3.669   2.957   1.437 -0.3124  0.1979  0.2514
 8553TIP3    H147074   3.747   3.009   1.420  0.2480 -0.9459 -0.8672
 8553TIP3    H247075   3.614   2.971   1.360  0.0539 -1.1776 -0.3031
 8554TIP3   OH247076   5.297   2.724  14.975  0.5692 -0.4515  0.0697
 8554TIP3    H147077   5.343   2.670  15.039 -0.0247 -2.4073 -1.0794
 8554TIP3    H247078   5.302   2.674  14.894 -0.6748  0.8931 -0.8794
 8555TIP3   OH247079   3.802   2.137   0.396  0.0978  0.2383  0.0198
 8555TIP3    H147080   3.760   2.223   0.393  0.9975  0.6805 -0.3075
 8555TIP3    H247081   3.798   2.112   0.488  0.9993  1.2456  0.3571
 8556TIP3   OH247082   4.643   0.163  12.496 -0.4254 -0.2478  0.2240
 8556TIP3    H147083   4.558   0.136  12.461 -0.1385 -1.4705  0.4318
 8556TIP3    H247084   4.638   0.143  12.590  0.8559 -2.4525 -0.1118
 8557TIP3   OH247085   1.055   4.796   2.686 -0.6187  0.9116  0.1062
 8557TIP3    H147086   1.094   4.783   2.599  0.6081 -0.0753  0.7673
 8557TIP3    H247087   0.974   4.745   2.684  0.5248 -0.9979  0.2397
 8558TIP3   OH247088   5.741   2.750  16.533  0.0567  0.5277  0.0335
 8558TIP3    H147089   5.804   2.744  16.605  0.7606 -2.5974 -0.6695
 8558TIP3    H247090   5.741   2.842  16.508  1.8765  1.2020  2.2107
 8559TIP3   OH247091   2.794   4.787   1.246 -0.1402 -0.3645  0.1516
 8559TIP3    H147092   2.841   4.725   1.190 -1.7425 -1.4118 -0.0721
 8559TIP3    H247093   2.863   4.844   1.281  1.0911 -0.7354 -1.5443
 8560TIP3   OH247094   2.972   2.704   5.763 -0.6718 -0.0390 -0.6348
 8560TIP3    H147095   3.002   2.637   5.824 -1.6986 -1.1220 -1.2962
 8560TIP3    H247096   3.021   2.687   5.682  0.1794  0.9659 -0.3519
 8561TIP3   OH247097   3.445   3.439  11.043 -0.2916  0.1011  0.4332
 8561TIP3    H147098   3.400   3.388  10.975 -2.2162  0.3533  1.4307
 8561TIP3    H247099   3.481   3.374  11.103  1.3453 -0.1221 -0.7442
 8562TIP3   OH247100   4.582   2.674  14.259  0.4969  0.3536  0.0252
 8562TIP3    H147101   4.579   2.585  14.224 -0.6949  0.2898  0.2495
 8562TIP3    H247102   4.662   2.712  14.221  2.1658 -1.4381  1.5489
 8563TIP3   OH247103   3.751   1.082   5.268 -0.3658  0.2597  0.0094
 8563TIP3    H147104   3.687   1.012   5.276 -0.8554  0.6223 -0.6958
 8563TIP3    H247105   3.806   1.056   5.194 -0.0393  0.2354  0.2526
 8564TIP3   OH247106   0.520   2.384  15.757  0.1905  0.0762  0.2316
 8564TIP3    H147107   0.475   2.364  15.675 -0.3123  1.3692  0.1592
 8564TIP3    H247108   0.602   2.335  15.753 -1.0209 -2.0605  0.2091
 8565TIP3   OH247109   6.595   2.296  15.078  0.0784  0.2100  0.6709
 8565TIP3    H147110   6.666   2.235  15.057  0.0247  0.6340 -0.8494
 8565TIP3    H247111   6.521   2.240  15.099  0.3222 -0.2600  0.3019
 8566TIP3   OH247112   6.279   3.062   6.208 -0.0256 -0.1184  0.2087
 8566TIP3    H147113   6.352   3.073   6.147 -0.6664  2.3231 -0.2014
 8566TIP3    H247114   6.210   3.020   6.155  0.4762 -0.8993  0.1522
 8567TIP3   OH247115   1.316   3.168   1.744  1.1342  0.2041 -0.0548
 8567TIP3    H147116   1.310   3.079   1.778  0.6409  0.1001 -0.3985
 8567TIP3    H247117   1.272   3.164   1.659 -0.2259  1.0997  0.5611
 8568TIP3   OH247118   6.031   5.956   4.271  0.8339 -0.3224 -0.2102
 8568TIP3    H147119   6.006   6.026   4.331 -0.5717 -1.3748  0.4845
 8568TIP3    H247120   6.112   5.920   4.309  0.3372 -0.5197  0.7080
 8569TIP3   OH247121   4.763   1.115   5.654  0.4926 -0.3737  0.5261
 8569TIP3    H147122   4.809   1.149   5.732  2.4448 -0.8255 -0.3638
 8569TIP3    H247123   4.831   1.112   5.586 -0.9633 -0.8224 -0.9593
 8570TIP3   OH247124   5.145   4.732   5.912  0.2099 -0.5176 -0.0402
 8570TIP3    H147125   5.191   4.809   5.946  0.4608 -0.7359  0.1209
 8570TIP3    H247126   5.054   4.760   5.904 -0.0089 -0.6996  1.5447
 8571TIP3   OH247127   4.967   1.249   0.743 -0.3511  0.3564  0.4504
 8571TIP3    H147128   4.936   1.295   0.666  0.1598 -0.5965 -0.3427
 8571TIP3    H247129   5.042   1.300   0.774 -0.0328  0.2846 -0.1911
 8572TIP3   OH247130   1.614   0.092   5.919  0.0272  0.3108  0.5347
 8572TIP3    H147131   1.551   0.155   5.953 -0.5794  0.1770 -0.3310
 8572TIP3    H247132   1.629   0.118   5.828  1.9075  0.8727  0.9501
 8573TIP3   OH247133   0.398   0.855  12.720  0.2662 -0.5520  0.0381
 8573TIP3    H147134   0.440   0.785  12.770 -2.1050 -1.9626  0.1839
 8573TIP3    H247135   0.376   0.814  12.636 -0.1223  0.3803 -0.3242
 8574TIP3   OH247136   5.359   1.212   5.762  0.3564  0.3091 -0.2251
 8574TIP3    H147137   5.282   1.158   5.777  0.6875 -0.7756 -2.1808
 8574TIP3    H247138   5.424   1.178   5.824  0.5854 -1.6486 -1.4562
 8575TIP3   OH247139   1.240   0.117  10.191 -0.1811  0.7675 -0.8296
 8575TIP3    H147140   1.331   0.144  10.193  0.1213 -0.0577  2.2867
 8575TIP3    H247141   1.239   0.031  10.234 -2.5870  1.5508  0.9403
 8576TIP3   OH247142   1.272   0.439  16.530 -0.2403  0.1641  0.8255
 8576TIP3    H147143   1.364   0.462  16.514  0.7842 -0.9559  4.2284
 8576TIP3    H247144   1.258   0.360  16.478  1.5370 -0.9772  1.9333
 8577TIP3   OH247145   3.703   5.751   0.786  0.0343  0.9353 -0.1665
 8577TIP3    H147146   3.697   5.832   0.735 -0.6192  0.3100 -1.1014
 8577TIP3    H247147   3.781   5.763   0.841  0.5519  1.7654 -1.0531
 8578TIP3   OH247148   2.105   6.029  14.066  0.1544 -0.4762 -0.5248
 8578TIP3    H147149   2.160   6.098  14.104  0.9793 -0.3444 -1.8906
 8578TIP3    H247150   2.093   5.966  14.137 -0.0521  0.7318  0.5522
 8579TIP3   OH247151   4.296   4.398  13.868 -0.2082 -0.4424 -0.6547
 8579TIP3    H147152   4.285   4.470  13.806  1.4113  0.8813  0.5379
 8579TIP3    H247153   4.215   4.398  13.919 -0.0377  0.8485 -0.3559
 8580TIP3   OH247154   5.964   3.512  14.232  0.6326 -0.2697 -0.1773
 8580TIP3    H147155   6.055   3.512  14.263  0.5636 -3.0444  0.2936
 8580TIP3    H247156   5.926   3.590  14.272  2.1504 -0.4624  1.8467
 8581TIP3   OH247157   4.839   5.947   2.106  0.0715  0.3828  0.2669
 8581TIP3    H147158   4.885   5.893   2.170  2.5635  0.0416 -1.6569
 8581TIP3    H247159   4.891   6.027   2.101  1.0791 -0.3465 -2.5890
 8582TIP3   OH247160   0.324   2.463   2.473 -0.1730 -0.1123 -0.3501
 8582TIP3    H147161   0.244   2.411   2.472  0.3115 -0.8634 -0.1861
 8582TIP3    H247162   0.395   2.399   2.470  0.4338  0.5682 -2.2521
 8583TIP3   OH247163   2.225   4.458  11.958 -0.3272 -0.1776 -0.2059
 8583TIP3    H147164   2.167   4.418  12.023  0.3649 -1.1606 -0.1722
 8583TIP3    H247165   2.223   4.551  11.979 -0.8679 -0.3593  0.6199
 8584TIP3   OH247166   6.219   3.515   1.796 -0.6555 -0.8933 -0.0482
 8584TIP3    H147167   6.176   3.513   1.711  0.6941  1.4709 -0.8974
 8584TIP3    H247168   6.310   3.492   1.777 -0.1710  0.4050  0.5904
 8585TIP3   OH247169   4.692   1.302   2.492  0.1215  0.9937  0.0259
 8585TIP3    H147170   4.780   1.326   2.462  1.1405  0.0156  2.0913
 8585TIP3    H247171   4.688   1.207   2.482 -0.2470  0.8922  1.0213
 8586TIP3   OH247172   6.081   6.487  15.800 -0.3571  0.2541  0.1709
 8586TIP3    H147173   6.094   6.494  15.894  0.2203 -0.4525  0.1563
 8586TIP3    H247174   6.077   6.393  15.783  0.6998  0.3324 -0.6446
 8587TIP3   OH247175   3.873   1.240   1.304 -0.5687 -0.1629 -0.4567
 8587TIP3    H147176   3.846   1.289   1.382  2.3828  1.2789 -0.2408
 8587TIP3    H247177   3.801   1.253   1.242 -1.8559  0.7485  1.1446
 8588TIP3   OH247178   0.959   1.448   0.524 -0.6458  0.3404 -0.1943
 8588TIP3    H147179   1.004   1.502   0.588  0.3380 -0.1604 -0.4552
 8588TIP3    H247180   1.006   1.365   0.524 -0.7512  0.2646 -1.4253
 8589TIP3   OH247181   5.165   4.645  10.817 -0.7719 -0.2221 -0.0606
 8589TIP3    H147182   5.128   4.631  10.730 -0.1831  0.2685 -0.4007
 8589TIP3    H247183   5.203   4.733  10.812 -0.8662 -0.1301  0.7428
 8590TIP3   OH247184   2.654   3.764  16.721 -0.0170 -0.1429  0.4577
 8590TIP3    H147185   2.673   3.774  16.627  0.7566 -0.4964  0.5723
 8590TIP3    H247186   2.729   3.716  16.756 -0.6711 -0.7094  1.1162
 8591TIP3   OH247187   5.249   3.180  12.640 -0.0075  0.1524  0.2764
 8591TIP3    H147188   5.340   3.207  12.648 -0.0432  0.2469  0.3768
 8591TIP3    H247189   5.249   3.114  12.571  0.1783 -0.0536  0.4738
 8592TIP3   OH247190   1.002   5.798   1.300  0.1592 -0.4628  0.2986
 8592TIP3    H147191   1.032   5.808   1.209 -1.7031 -0.8417 -0.4041
 8592TIP3    H247192   1.083   5.796   1.352  1.2159  1.9915 -1.0863
 8593TIP3   OH247193   4.238   2.297  16.650  0.4987  0.0548 -0.2894
 8593TIP3    H147194   4.198   2.318  16.734  1.3746  3.1569 -0.5144
 8593TIP3    H247195   4.322   2.257  16.672  0.1424 -0.3998  0.2678
 8594TIP3   OH247196   1.406   0.391   3.665  0.4075 -0.3461  0.0243
 8594TIP3    H147197   1.325   0.340   3.665  1.4059 -1.9813  0.6870
 8594TIP3    H247198   1.457   0.355   3.737  2.8237 -1.1364 -1.9758
 8595TIP3   OH247199   3.221   5.453   3.968 -0.2868 -0.3478  0.0559
 8595TIP3    H147200   3.311   5.427   3.988 -0.7547 -1.4885  0.7669
 8595TIP3    H247201   3.179   5.373   3.935 -0.7200  0.4655 -1.4494
 8596TIP3   OH247202   2.279   4.916   0.207 -0.2642 -0.1710 -0.1376
 8596TIP3    H147203   2.274   4.942   0.299  0.4228 -0.3521 -0.0383
 8596TIP3    H247204   2.357   4.961   0.174  0.0861 -0.9125 -0.3489
 8597TIP3   OH247205   4.524   0.566   2.880 -0.0022  0.4879 -0.5703
 8597TIP3    H147206   4.445   0.567   2.827 -0.8622 -0.7521  0.6235
 8597TIP3    H247207   4.550   0.473   2.883  0.9165  0.7473 -0.1062
 8598TIP3   OH247208   1.728   1.186   3.684  0.6301 -0.1862  0.0061
 8598TIP3    H147209   1.656   1.244   3.710  1.0145  0.5635 -0.5486
 8598TIP3    H247210   1.697   1.098   3.705 -0.5235  0.1061 -0.4093
 8599TIP3   OH247211   6.441   3.977  13.789  0.6406 -0.2326 -0.0908
 8599TIP3    H147212   6.414   4.050  13.733 -2.0037 -0.4566  0.7556
 8599TIP3    H247213   6.453   3.903  13.729  1.4491  0.3856 -0.7224
 8600TIP3   OH247214   5.915   1.166  13.533 -0.0311  0.5123  0.1935
 8600TIP3    H147215   5.881   1.254  13.546 -1.3613  0.1565 -0.6561
 8600TIP3    H247216   5.852   1.108  13.576 -1.6043 -0.2799 -2.8806
 8601TIP3   OH247217   2.261   1.888  12.024  0.0437  0.3052 -1.1051
 8601TIP3    H147218   2.307   1.968  12.047  0.3605  0.0408 -0.8134
 8601TIP3    H247219   2.179   1.891  12.073  0.3753  0.1094 -0.5337
 8602TIP3   OH247220   3.104   1.420  10.961 -0.4544  0.0672  0.3043
 8602TIP3    H147221   3.196   1.396  10.967 -0.4454 -0.1421 -0.5240
 8602TIP3    H247222   3.093   1.449  10.870 -1.2365 -0.0567  0.3540
 8603TIP3   OH247223   4.188   0.831  11.804 -0.1800  0.7512  0.1122
 8603TIP3    H147224   4.145   0.812  11.888  0.0999 -0.9150 -0.1056
 8603TIP3    H247225   4.263   0.886  11.828 -0.8673  1.4191  0.7905
 8604TIP3   OH247226   2.203   3.879   2.361  0.4956  0.1380 -0.1314
 8604TIP3    H147227   2.287   3.925   2.359  0.0545  0.9320 -1.0090
 8604TIP3    H247228   2.159   3.905   2.280 -0.6298 -0.2007  0.3483
 8605TIP3   OH247229   0.381   6.001   1.732  0.2935 -0.6417 -0.4561
 8605TIP3    H147230   0.400   5.952   1.812 -3.3512 -0.0637  0.9406
 8605TIP3    H247231   0.342   5.936   1.673 -2.4013 -0.0394  0.5342
 8606TIP3   OH247232   0.631   0.834   3.240 -0.3019  0.0097 -0.5685
 8606TIP3    H147233   0.723   0.853   3.258  0.2829 -2.4558 -0.6083
 8606TIP3    H247234   0.597   0.915   3.201  2.2677  0.4856 -2.0316
 8607TIP3   OH247235   3.683   2.169  14.539 -0.5234 -0.0658 -0.5531
 8607TIP3    H147236   3.686   2.096  14.601 -0.7939  0.2513 -0.1739
 8607TIP3    H247237   3.592   2.197  14.537 -0.6095 -0.3541 -1.4239
 8608TIP3   OH247238   3.772   1.722   0.291 -0.6349 -0.1118 -0.2769
 8608TIP3    H147239   3.725   1.716   0.208  0.6848  2.4657 -1.3283
 8608TIP3    H247240   3.714   1.772   0.348 -0.3538  0.6563 -0.6511
 8609TIP3   OH247241   1.115   1.941   0.701  0.4869 -0.2129  0.6810
 8609TIP3    H147242   1.147   1.970   0.786  0.6918  1.9593 -0.0796
 8609TIP3    H247243   1.024   1.915   0.717  1.2767 -2.4482  2.0314
 8610TIP3   OH247244   4.028   2.559   5.198 -0.2404 -0.0813 -0.1858
 8610TIP3    H147245   4.002   2.551   5.290 -0.5720  0.7881 -0.1888
 8610TIP3    H247246   4.113   2.603   5.201  0.6614 -1.7583 -0.2313
 8611TIP3   OH247247   3.090   2.478   4.979  0.4073 -0.1052  0.2882
 8611TIP3    H147248   3.111   2.569   5.001 -0.3831  0.0269  0.5660
 8611TIP3    H247249   2.994   2.477   4.973  0.4350 -0.8231 -0.1647
 8612TIP3   OH247250   5.376   4.974   3.165 -0.5562  0.0340 -0.1767
 8612TIP3    H147251   5.330   4.895   3.136 -0.2571 -0.3408  0.3654
 8612TIP3    H247252   5.400   4.956   3.256 -0.7925  0.8892  0.0604
 8613TIP3   OH247253   5.240   6.321   2.251 -0.2092  0.0022  0.5934
 8613TIP3    H147254   5.180   6.377   2.300 -2.7060 -0.3662 -1.8032
 8613TIP3    H247255   5.236   6.355   2.161  1.2665 -1.6016 -0.1340
 8614TIP3   OH247256   3.363   5.179  12.307 -0.6438  0.4299 -0.0998
 8614TIP3    H147257   3.302   5.224  12.365 -1.8670 -0.3987 -0.7209
 8614TIP3    H247258   3.317   5.101  12.278  0.4620  0.1160 -1.1054
 8615TIP3   OH247259   2.250   0.325   5.150  0.6602  0.1822 -0.1792
 8615TIP3    H147260   2.165   0.347   5.111  0.9788 -0.3578 -1.2196
 8615TIP3    H247261   2.314   0.374   5.097  1.1154 -0.7058 -0.4724
 8616TIP3   OH247262   3.884   3.263   5.309  0.6157 -0.2975  0.8672
 8616TIP3    H147263   3.930   3.241   5.390  1.1239 -1.7493  0.2251
 8616TIP3    H247264   3.791   3.259   5.332  0.7542 -0.7257  1.3747
 8617TIP3   OH247265   5.786   1.052   0.979  0.2216 -0.1610  0.0660
 8617TIP3    H147266   5.809   1.058   0.886 -0.3253  2.3581  0.0087
 8617TIP3    H247267   5.800   1.141   1.012  0.3957 -1.0024  2.4152
 8618TIP3   OH247268   5.141   4.380   3.302  0.6332 -1.0487 -0.3190
 8618TIP3    H147269   5.183   4.390   3.388  0.1374 -1.4514 -0.0219
 8618TIP3    H247270   5.213   4.386   3.239  0.7139  2.0481 -0.0859
 8619TIP3   OH247271   0.028   6.429  11.685 -0.3962 -0.5472  0.3953
 8619TIP3    H147272   0.101   6.440  11.747  0.4007  0.2417 -0.6408
 8619TIP3    H247273  -0.010   6.516  11.677 -0.9714 -0.8005  0.3360
 8620TIP3   OH247274   0.061   2.383  12.458 -0.2090 -0.0626  0.1690
 8620TIP3    H147275   0.084   2.357  12.548 -0.7999 -0.1542  0.2984
 8620TIP3    H247276  -0.034   2.376  12.455 -0.1204 -1.1956 -0.8126
 8621TIP3   OH247277   1.607   3.749   2.464  0.3371  0.2133 -0.2025
 8621TIP3    H147278   1.526   3.704   2.441  0.8170 -0.0824 -1.3831
 8621TIP3    H247279   1.600   3.764   2.558 -0.8421 -0.2941 -0.1909
 8622TIP3   OH247280   2.103   2.188  15.148  0.2120 -0.0652  0.5777
 8622TIP3    H147281   2.090   2.209  15.055  0.8956  0.7329  0.6428
 8622TIP3    H247282   2.053   2.108  15.162  0.5096 -0.4792 -0.6048
 8623TIP3   OH247283   3.395   1.891  11.884  0.2940  0.3357  0.3552
 8623TIP3    H147284   3.409   1.853  11.797 -0.6471  1.2759 -0.2190
 8623TIP3    H247285   3.359   1.819  11.936 -1.9267  0.4847 -0.8453
 8624TIP3   OH247286   1.165   3.852   1.267  0.1866 -0.0528  0.8119
 8624TIP3    H147287   1.100   3.794   1.227  0.5589 -0.4946  0.8455
 8624TIP3    H247288   1.235   3.858   1.203  0.6929 -0.5991  1.3105
 8625TIP3   OH247289   0.366   6.769   3.021  0.2622  0.3258  0.1345
 8625TIP3    H147290   0.279   6.730   3.014 -0.2602  1.3089  0.9285
 8625TIP3    H247291   0.407   6.751   2.936 -0.3246 -1.0317  0.1168
 8626TIP3   OH247292   2.405   0.696   5.926  0.0331  0.2304  0.0870
 8626TIP3    H147293   2.405   0.790   5.907 -2.1862  0.7084  1.9903
 8626TIP3    H247294   2.383   0.655   5.842  1.3362  1.3267 -0.8527
 8627TIP3   OH247295   4.118   0.089  12.325 -0.0094  0.1684  0.1217
 8627TIP3    H147296   4.038   0.057  12.367 -0.1728  0.8746  0.3648
 8627TIP3    H247297   4.105   0.073  12.232 -0.2771 -0.0626  0.2007
 8628TIP3   OH247298   5.931   0.393  13.558 -0.1048 -0.1831  0.0932
 8628TIP3    H147299   5.947   0.461  13.623 -0.3053 -0.3240  0.2917
 8628TIP3    H247300   5.879   0.327  13.605  0.1899 -0.5267 -0.0636
 8629TIP3   OH247301   0.998   2.968   1.184 -0.3598 -0.2071 -0.2143
 8629TIP3    H147302   1.046   3.018   1.118 -1.9607 -0.4347 -1.6437
 8629TIP3    H247303   1.046   2.886   1.192 -0.8644 -0.7561 -2.1883
 8630TIP3   OH247304   3.538   3.453   3.256  0.4453  0.5486  0.4945
 8630TIP3    H147305   3.471   3.498   3.205  0.2778 -0.9721 -0.7321
 8630TIP3    H247306   3.621   3.485   3.220  0.3775  1.6221  1.2680
 8631TIP3   OH247307   3.480   3.849  17.073  0.2795 -0.0538 -0.6669
 8631TIP3    H147308   3.388   3.832  17.094  0.0069 -0.8638 -2.3447
 8631TIP3    H247309   3.479   3.938  17.038  0.2416  0.1717 -0.0992
 8632TIP3   OH247310   6.570   5.352  13.266 -0.2906  0.0280 -0.7671
 8632TIP3    H147311   6.530   5.380  13.348  0.3240 -0.9184 -0.1214
 8632TIP3    H247312   6.612   5.268  13.287 -1.3681 -0.9853 -2.4029
 8633TIP3   OH247313   5.720   0.017  14.619 -0.1576 -0.1752  0.0752
 8633TIP3    H147314   5.684   0.046  14.535  0.8064  0.8780  0.0126
 8633TIP3    H247315   5.696   0.086  14.680 -1.3789 -1.2180  0.8369
 8634TIP3   OH247316   3.909   0.054  14.378  0.2314  0.2461  0.6878
 8634TIP3    H147317   3.918   0.148  14.395 -1.5858  0.6351 -0.2527
 8634TIP3    H247318   3.843   0.049  14.309  1.9208 -1.6299 -0.8751
 8635TIP3   OH247319   3.145   5.854  15.136  0.0935  0.1078 -0.5157
 8635TIP3    H147320   3.194   5.811  15.206 -0.0054 -1.2384 -1.2196
 8635TIP3    H247321   3.141   5.946  15.161  3.8263  0.5049 -0.9033
 8636TIP3   OH247322   1.464   3.955  12.318  0.0796  0.4121 -0.5801
 8636TIP3    H147323   1.516   4.033  12.297 -0.2523  0.7193 -0.2650
 8636TIP3    H247324   1.528   3.884  12.321  0.2560  0.4869 -1.8450
 8637TIP3   OH247325   2.913   5.249  13.146  0.6171 -0.4633 -0.2937
 8637TIP3    H147326   3.008   5.266  13.140  0.3886  0.4206 -1.9147
 8637TIP3    H247327   2.874   5.336  13.138 -0.3985 -1.0439 -2.1249
 8638TIP3   OH247328   0.566   4.608  13.728  0.3200  0.2752 -0.4557
 8638TIP3    H147329   0.488   4.558  13.750  0.4238  0.7763  1.1761
 8638TIP3    H247330   0.537   4.699  13.726  0.7894  0.4355 -0.2108
 8639TIP3   OH247331   6.253   0.316  13.382  0.8775 -0.7064  0.6078
 8639TIP3    H147332   6.222   0.340  13.295  0.8799 -2.0743  0.2080
 8639TIP3    H247333   6.293   0.396  13.416  1.3402 -0.2893 -0.8482
 8640TIP3   OH247334   1.728   0.188  13.504  0.7338 -0.0194 -0.2160
 8640TIP3    H147335   1.679   0.250  13.558  1.9163  0.1223  0.7361
 8640TIP3    H247336   1.817   0.192  13.538  0.9235 -1.9447 -0.4147
 8641TIP3   OH247337   2.476   2.539   4.730  0.2321 -0.3420 -0.4304
 8641TIP3    H147338   2.493   2.445   4.722 -0.3898 -0.4580 -0.4078
 8641TIP3    H247339   2.474   2.555   4.825  2.1444  0.0350 -0.4198
 8642TIP3   OH247340   6.681   3.095  13.175 -0.1784 -0.4577 -0.2447
 8642TIP3    H147341   6.637   3.068  13.095  0.2806 -0.7115 -0.4126
 8642TIP3    H247342   6.774   3.083  13.157  0.2224  2.6339 -0.8947
 8643TIP3   OH247343   6.431   0.607  14.297 -0.5500 -0.3458 -0.0307
 8643TIP3    H147344   6.486   0.551  14.242  0.1998 -0.1407  0.4910
 8643TIP3    H247345   6.460   0.696  14.278  0.3228 -0.3121  1.2867
 8644TIP3   OH247346   0.264   4.565   5.535 -0.9023 -0.3765  0.3078
 8644TIP3    H147347   0.250   4.654   5.503 -0.6400 -0.5813 -0.3751
 8644TIP3    H247348   0.355   4.545   5.514 -0.8122 -0.6330  0.9021
 8645TIP3   OH247349   0.349   1.450   5.911 -0.1325 -0.0006  0.1874
 8645TIP3    H147350   0.399   1.418   5.836 -0.5365  1.8946 -0.9452
 8645TIP3    H247351   0.386   1.403   5.986  2.7028  0.6339 -0.7083
 8646TIP3   OH247352   6.174   2.336   3.376 -0.5594 -0.2866 -0.4257
 8646TIP3    H147353   6.151   2.320   3.467  0.0350  0.3971 -0.1453
 8646TIP3    H247354   6.137   2.423   3.357 -0.2132 -0.1915 -0.6679
 8647TIP3   OH247355   3.796   4.309   3.349 -0.2930  0.0282 -0.5618
 8647TIP3    H147356   3.733   4.245   3.381  0.2211 -0.8065 -1.1729
 8647TIP3    H247357   3.759   4.394   3.374  0.4401 -0.5525  2.8775
 8648TIP3   OH247358   0.671   2.613   4.604  0.0127 -0.3367  0.6968
 8648TIP3    H147359   0.722   2.622   4.685  0.7246  1.1429  0.1092
 8648TIP3    H247360   0.721   2.551   4.551 -0.8076 -1.8640  1.6057
 8649TIP3   OH247361   1.372   3.871   5.492 -0.7388  0.0305  0.0365
 8649TIP3    H147362   1.384   3.802   5.558 -0.9809 -2.2278 -2.1068
 8649TIP3    H247363   1.280   3.862   5.465 -1.0059  1.7763  0.2460
 8650TIP3   OH247364   3.070   3.744  16.593 -0.5700 -0.0111  0.3544
 8650TIP3    H147365   3.099   3.653  16.589 -0.3747  0.0882 -1.2745
 8650TIP3    H247366   3.147   3.795  16.570 -0.7085  0.5683  1.1521
 8651TIP3   OH247367   3.837   3.907   1.961  0.3238  0.2112 -0.1199
 8651TIP3    H147368   3.837   3.878   2.052 -0.3856 -0.5523 -0.3424
 8651TIP3    H247369   3.795   3.993   1.962 -2.2278 -0.9276 -0.0040
 8652TIP3   OH247370   1.634   4.151  15.029  0.0445  0.1680 -0.2701
 8652TIP3    H147371   1.590   4.093  14.968  0.2400  0.1888 -0.4332
 8652TIP3    H247372   1.724   4.155  14.998  0.1309  0.2291 -0.0178
 8653TIP3   OH247373   4.010   1.105  13.873  0.2370 -0.1335 -0.2748
 8653TIP3    H147374   3.961   1.156  13.937  0.5791  1.0059 -0.9004
 8653TIP3    H247375   4.102   1.118  13.897  0.3546  0.0728 -0.8204
 8654TIP3   OH247376   2.278   1.714   1.475  0.2578  0.2003 -0.4818
 8654TIP3    H147377   2.183   1.724   1.479  0.2593  0.3681 -0.8982
 8654TIP3    H247378   2.312   1.803   1.477  0.4035  0.1448 -0.4588
 8655TIP3   OH247379   1.273   2.779   0.806  0.2359  0.0545  0.0559
 8655TIP3    H147380   1.232   2.865   0.801 -0.5186 -0.3253 -0.4879
 8655TIP3    H247381   1.256   2.749   0.895 -2.0308 -0.7232 -0.5691
 8656TIP3   OH247382   6.322   6.370  11.140  0.2936  0.0137  0.1203
 8656TIP3    H147383   6.243   6.420  11.157  0.4972  0.2618  0.3502
 8656TIP3    H247384   6.351   6.399  11.054  0.0089 -0.2434 -0.0614
 8657TIP3   OH247385   1.803   0.291  13.253  0.0648 -0.5689 -0.6592
 8657TIP3    H147386   1.751   0.239  13.314 -0.7766 -0.7919 -1.5320
 8657TIP3    H247387   1.890   0.296  13.292 -0.3574 -1.0287  0.3532
 8658TIP3   OH247388   0.728   1.827  14.501 -0.1302 -0.4747  0.0192
 8658TIP3    H147389   0.696   1.917  14.512 -1.2880 -0.8615 -0.0662
 8658TIP3    H247390   0.652   1.778  14.471  0.5794 -1.4224 -0.2846
 8659TIP3   OH247391   0.248   5.375  16.046  0.4576 -0.2115 -0.6019
 8659TIP3    H147392   0.278   5.291  16.079  0.9124 -0.4769 -1.6561
 8659TIP3    H247393   0.247   5.365  15.951 -0.0961  0.7692 -0.7213
 8660TIP3   OH247394   0.834   1.997   0.446 -0.0993  0.0239  0.0008
 8660TIP3    H147395   0.906   1.938   0.424 -0.2697  0.2711 -1.3196
 8660TIP3    H247396   0.829   2.057   0.371 -1.4680  0.2041  0.2101
 8661TIP3   OH247397   5.532   3.876  12.260  0.4555 -0.7282  0.6575
 8661TIP3    H147398   5.546   3.878  12.354 -0.6212 -0.3521  0.8260
 8661TIP3    H247399   5.462   3.939  12.245  2.1869  1.0286 -0.6862
 8662TIP3   OH247400   4.697   4.573   2.008  0.1034 -0.6560  0.2319
 8662TIP3    H147401   4.721   4.591   2.099  0.3596 -0.9767  0.2278
 8662TIP3    H247402   4.714   4.655   1.962 -1.1223 -0.1169  0.6870
 8663TIP3   OH247403   3.147   5.372   5.638 -0.3116  0.2691  0.0044
 8663TIP3    H147404   3.185   5.302   5.691 -1.9773 -0.6638  0.0410
 8663TIP3    H247405   3.139   5.334   5.551 -2.1680 -0.0192  0.2462
 8664TIP3   OH247406   5.110   4.694   4.330  0.1608  0.5748 -0.0998
 8664TIP3    H147407   5.169   4.621   4.308 -0.2777 -0.1882  1.1590
 8664TIP3    H247408   5.161   4.748   4.390 -0.3621 -0.0479  0.9350
 8665TIP3   OH247409   2.896   2.682  16.425  0.1709  0.2839 -0.0096
 8665TIP3    H147410   2.907   2.592  16.453 -3.5873 -0.2388  0.4101
 8665TIP3    H247411   2.890   2.678  16.330  1.3120  0.3236 -0.0921
 8666TIP3   OH247412   4.764   4.273   0.666  0.0068 -0.0999 -0.1109
 8666TIP3    H147413   4.692   4.210   0.661  0.2956 -0.8943  3.0164
 8666TIP3    H247414   4.732   4.342   0.724  1.0175  0.6542 -0.4129
 8667TIP3   OH247415   5.648   5.799  11.634  0.2416 -0.3785 -0.3775
 8667TIP3    H147416   5.732   5.754  11.632 -0.1079 -1.0173 -0.6132
 8667TIP3    H247417   5.584   5.731  11.653 -0.2336  0.1001 -0.2238
 8668TIP3   OH247418   2.689   1.914  16.527  1.1497  0.2027  0.4670
 8668TIP3    H147419   2.606   1.905  16.481  1.5740 -2.2231  0.0317
 8668TIP3    H247420   2.669   1.969  16.603 -1.0643 -0.9683  0.8269
 8669TIP3   OH247421   0.263   0.077   3.570  0.6787  0.2452  0.4764
 8669TIP3    H147422   0.295   0.120   3.650  1.7434 -1.0146  0.7574
 8669TIP3    H247423   0.182   0.034   3.596  0.4944  0.6732  0.6169
 8670TIP3   OH247424   3.045   3.936  15.615 -0.4609 -0.0440  0.0169
 8670TIP3    H147425   3.050   3.840  15.624  0.5232  0.0625  0.9236
 8670TIP3    H247426   3.136   3.962  15.601 -0.3235  0.9444  2.2712
 8671TIP3   OH247427   6.389   2.143   2.866  0.3262  0.5082  0.1257
 8671TIP3    H147428   6.401   2.193   2.786 -1.4667 -2.7275 -2.4322
 8671TIP3    H247429   6.294   2.142   2.880  0.4982 -0.2479  1.3908
 8672TIP3   OH247430   2.691   5.131   1.221 -0.3449 -0.1771 -0.1834
 8672TIP3    H147431   2.626   5.125   1.291 -0.3896  1.6675 -0.0370
 8672TIP3    H247432   2.713   5.224   1.216  0.8221 -0.4965 -1.5698
 8673TIP3   OH247433   0.221   0.129   5.820  0.1408  0.1221  0.4705
 8673TIP3    H147434   0.192   0.152   5.732 -0.4983  1.6429  1.0603
 8673TIP3    H247435   0.161   0.174   5.878  1.2787  0.1125  1.7050
 8674TIP3   OH247436   5.279   3.259  15.721 -0.1117 -0.3109  0.3110
 8674TIP3    H147437   5.359   3.292  15.762 -0.5981  1.3676 -0.0169
 8674TIP3    H247438   5.274   3.305  15.637 -0.7994 -1.2992 -0.2082
 8675TIP3   OH247439   4.573   3.369   2.574  0.2393 -0.0792 -0.2878
 8675TIP3    H147440   4.641   3.322   2.525  1.8765  0.6897  1.1294
 8675TIP3    H247441   4.617   3.398   2.653 -1.7472  0.5909  0.6331
 8676TIP3   OH247442   3.666   0.313   3.612  0.0281 -0.1622  0.3930
 8676TIP3    H147443   3.725   0.365   3.558  2.5813 -1.8296  1.3952
 8676TIP3    H247444   3.715   0.296   3.692 -1.2585 -2.8179  0.7274
 8677TIP3   OH247445   1.112   4.668   0.365 -0.2824 -0.3816  0.3098
 8677TIP3    H147446   1.162   4.592   0.394 -0.0617 -0.4341 -0.1958
 8677TIP3    H247447   1.064   4.638   0.288 -0.4835 -0.1119  0.3282
 8678TIP3   OH247448   0.190   6.457  11.920  0.0259  0.0293  0.2704
 8678TIP3    H147449   0.106   6.446  11.964  0.0369 -0.0379  0.2758
 8678TIP3    H247450   0.241   6.381  11.949 -0.4509 -0.7959 -0.9785
 8679TIP3   OH247451   4.944   0.484  14.631 -0.0391  0.1169  0.4449
 8679TIP3    H147452   4.877   0.475  14.700 -2.9250 -1.9882 -2.3451
 8679TIP3    H247453   4.898   0.526  14.559  2.0738 -0.1392 -1.1341
 8680TIP3   OH247454   3.632   2.349  12.541  0.0090  0.9002 -0.0842
 8680TIP3    H147455   3.605   2.344  12.450  0.6545 -1.4386 -0.2086
 8680TIP3    H247456   3.728   2.349  12.538  0.1119 -1.6053  0.5677
 8681TIP3   OH247457   6.485   3.953   1.165 -0.3178  0.0925 -0.0029
 8681TIP3    H147458   6.522   3.865   1.174 -0.4142 -0.0093 -0.5805
 8681TIP3    H247459   6.420   3.958   1.235  1.0015  0.3997  1.2542
 8682TIP3   OH247460   3.952   5.541   3.903 -0.3760  0.4318  0.2316
 8682TIP3    H147461   3.985   5.629   3.919 -1.1937  0.6433  0.8019
 8682TIP3    H247462   4.023   5.497   3.856  0.4863  1.0533  0.9218
 8683TIP3   OH247463   2.515   4.332   5.384 -0.1870  0.1876 -0.3119
 8683TIP3    H147464   2.464   4.381   5.450 -0.9092 -0.9263 -0.0201
 8683TIP3    H247465   2.461   4.257   5.363  0.8050 -0.3691 -0.9382
 8684TIP3   OH247466   1.486   6.461   0.729 -0.4123 -0.2177 -0.1709
 8684TIP3    H147467   1.552   6.434   0.666  1.7208  0.5343  1.6112
 8684TIP3    H247468   1.430   6.384   0.740  0.9834 -1.3475 -0.7394
 8685TIP3   OH247469   2.270   1.185   0.583 -0.5646 -0.0508  0.0624
 8685TIP3    H147470   2.283   1.177   0.678  1.0418 -1.4297 -0.2284
 8685TIP3    H247471   2.297   1.275   0.562 -0.0323 -0.0338  0.7872
 8686TIP3   OH247472   2.938   1.194  15.815 -0.6218  0.0662 -0.2999
 8686TIP3    H147473   2.949   1.285  15.788 -1.0767  0.0058 -0.6970
 8686TIP3    H247474   2.981   1.143  15.747  1.2218  0.0347  0.8192
 8687TIP3   OH247475   2.217   6.249   2.832 -0.5508 -0.4556 -0.4323
 8687TIP3    H147476   2.144   6.238   2.772 -2.3030  0.4711  1.3934
 8687TIP3    H247477   2.218   6.169   2.884 -1.8894  0.4562  1.1121
 8688TIP3   OH247478   5.045   6.548   6.476 -0.0946  0.7018 -0.0356
 8688TIP3    H147479   5.044   6.644   6.477  2.9310  0.8565 -0.6008
 8688TIP3    H247480   5.134   6.525   6.506 -0.4749 -1.9100 -0.6458
 8689TIP3   OH247481   4.524   3.595   2.429 -0.6163  0.0792  0.4967
 8689TIP3    H147482   4.502   3.626   2.516 -0.5467  1.4372  0.0558
 8689TIP3    H247483   4.573   3.514   2.443 -0.9165  0.0962  1.6892
 8690TIP3   OH247484   2.517   6.000   3.112  0.2484 -0.1852  0.3005
 8690TIP3    H147485   2.486   6.078   3.158  2.1039  1.9784 -1.8793
 8690TIP3    H247486   2.441   5.942   3.111 -1.8601  2.3500  0.4013
 8691TIP3   OH247487   0.175   2.130   6.617 -0.5523 -0.2197  0.1425
 8691TIP3    H147488   0.198   2.209   6.665 -0.6075  0.0746 -0.3062
 8691TIP3    H247489   0.186   2.153   6.525  0.4532 -1.0617  0.0315
 8692TIP3   OH247490   0.276   5.209  14.692  0.4948  0.0046  0.1823
 8692TIP3    H147491   0.190   5.247  14.710  0.7743  1.5641 -1.4157
 8692TIP3    H247492   0.338   5.278  14.716  1.1573 -0.2877 -0.6178
 8693TIP3   OH247493   3.815   2.048  11.687  0.6698  0.0642 -0.0816
 8693TIP3    H147494   3.803   1.954  11.692 -1.1089  0.2589 -0.1987
 8693TIP3    H247495   3.843   2.064  11.597  0.1289 -0.2707 -0.3115
 8694TIP3   OH247496   0.484   5.592  14.605 -0.4261  0.7191  0.8721
 8694TIP3    H147497   0.569   5.573  14.567 -0.5112 -1.3889  1.6271
 8694TIP3    H247498   0.456   5.672  14.561  1.0477  0.3625 -0.8389
 8695TIP3   OH247499   0.624   0.545  14.619  0.4636 -0.4921 -0.1135
 8695TIP3    H147500   0.615   0.593  14.537  0.9664  1.8395  1.1116
 8695TIP3    H247501   0.537   0.507  14.634 -0.0249  0.2051 -1.0517
 8696TIP3   OH247502   2.967   3.309  16.522 -0.1943  0.9334  0.3214
 8696TIP3    H147503   2.977   3.223  16.563  0.5945  1.3203  0.9785
 8696TIP3    H247504   2.880   3.307  16.482 -0.8120  0.3643  1.6233
 8697TIP3   OH247505   0.367   0.428  11.856  0.2220 -0.2517 -0.4997
 8697TIP3    H147506   0.416   0.415  11.937  1.8448 -1.1864 -1.5659
 8697TIP3    H247507   0.308   0.352  11.851 -1.0456  0.6177  0.5389
 8698TIP3   OH247508   6.580   4.610  12.757  0.5289  0.2371  0.1420
 8698TIP3    H147509   6.485   4.601  12.742  0.5424  1.2521 -0.6884
 8698TIP3    H247510   6.598   4.702  12.739  1.6397  0.1065  0.5422
 8699TIP3   OH247511   5.927   2.997   2.357 -0.3119 -0.2332 -0.2517
 8699TIP3    H147512   5.961   3.024   2.443 -1.0291 -0.3762  0.0822
 8699TIP3    H247513   5.847   3.049   2.346 -0.3525 -0.3958 -0.7269
 8700TIP3   OH247514   4.765   1.789   5.122 -0.6287 -0.3345 -0.4221
 8700TIP3    H147515   4.800   1.878   5.117 -1.1874 -0.1422 -1.1347
 8700TIP3    H247516   4.671   1.801   5.133 -0.5475 -0.8397  1.0368
 8701TIP3   OH247517   6.041   2.155   0.789  0.6346  0.0809  0.2982
 8701TIP3    H147518   5.961   2.132   0.740 -0.4968 -2.1693  2.8956
 8701TIP3    H247519   6.029   2.247   0.812 -1.6548 -0.3622  1.2016
 8702TIP3   OH247520   6.701   3.404   5.398  0.2841 -0.3296  0.2255
 8702TIP3    H147521   6.790   3.368   5.399 -0.2922 -1.8612 -0.6885
 8702TIP3    H247522   6.653   3.351   5.462 -0.0700  0.2795  0.4809
 8703TIP3   OH247523   1.547   5.358  13.343  1.0606  0.1691 -0.1864
 8703TIP3    H147524   1.551   5.314  13.428 -1.4424 -0.3688 -0.2681
 8703TIP3    H247525   1.556   5.288  13.279  0.3022  0.1778 -0.3202
 8704TIP3   OH247526   2.206   0.886  14.971  0.0400  0.6536  0.2911
 8704TIP3    H147527   2.230   0.926  14.887 -3.3668  0.6017 -0.8303
 8704TIP3    H247528   2.190   0.961  15.029 -0.6040  0.7665 -0.0318
 8705TIP3   OH247529   2.628   1.048  13.897  0.0883  0.1520 -0.4376
 8705TIP3    H147530   2.576   1.075  13.821  1.6331  1.1901 -1.1925
 8705TIP3    H247531   2.660   0.961  13.874  0.1297  0.2519 -0.7693
 8706TIP3   OH247532   6.021   5.306   4.121 -0.7893  0.3611  0.1642
 8706TIP3    H147533   6.048   5.218   4.096  0.4407  0.6220  0.4866
 8706TIP3    H247534   5.958   5.293   4.191 -0.5523 -0.2569  0.2696
 8707TIP3   OH247535   4.229   4.123  11.199  0.7444  0.8153  0.0875
 8707TIP3    H147536   4.145   4.168  11.191  0.8087  0.8201 -0.6002
 8707TIP3    H247537   4.284   4.164  11.132  0.4019 -1.2053 -1.5423
 8708TIP3   OH247538   3.093   0.600  16.415 -0.1653  1.0294  0.4877
 8708TIP3    H147539   3.180   0.636  16.435 -0.2191  0.7858  1.1917
 8708TIP3    H247540   3.037   0.677  16.404 -0.2487  1.1948  1.8495
 8709TIP3   OH247541   2.399   3.447   1.719  0.0172 -0.3006 -0.1490
 8709TIP3    H147542   2.382   3.413   1.632 -2.6256  1.1560 -0.3214
 8709TIP3    H247543   2.415   3.540   1.706 -2.0521  0.2896  0.9570
 8710TIP3   OH247544   0.248   0.499   0.219 -0.3626 -0.4159 -0.0950
 8710TIP3    H147545   0.190   0.427   0.245 -0.1065 -0.7493 -0.4249
 8710TIP3    H247546   0.333   0.457   0.207  0.0354  0.1343  0.7511
 8711TIP3   OH247547   4.689   1.293   3.784 -0.0617 -0.0862 -0.0043
 8711TIP3    H147548   4.698   1.352   3.859 -0.1355 -0.4270  0.2743
 8711TIP3    H247549   4.678   1.206   3.822 -3.8284  0.0957 -0.2500
 8712TIP3   OH247550   0.904   4.839  16.694 -0.5024 -0.0724  0.1979
 8712TIP3    H147551   0.943   4.859  16.608 -0.3332  0.0549  0.3038
 8712TIP3    H247552   0.925   4.747  16.709  1.9220  0.6021  1.3720
 8713TIP3   OH247553   5.377   5.278  16.648 -0.4928 -0.3519  0.4386
 8713TIP3    H147554   5.368   5.362  16.603  1.2394  0.8734  2.1985
 8713TIP3    H247555   5.339   5.214  16.587 -0.5298  1.4888 -1.6174
 8714TIP3   OH247556   3.964   1.229   3.404 -0.8273 -0.5991  0.3620
 8714TIP3    H147557   4.011   1.265   3.479  0.4360  1.2278 -1.2249
 8714TIP3    H247558   3.873   1.256   3.416 -0.4665  0.4435  0.7959
 8715TIP3   OH247559   3.101   5.245  12.427  0.2932  0.7746 -0.2417
 8715TIP3    H147560   3.049   5.297  12.488 -1.4540  2.5270 -3.0102
 8715TIP3    H247561   3.042   5.175  12.398  1.2815 -0.3647  0.4188
 8716TIP3   OH247562   3.617   5.975   5.691 -0.1200  0.5860 -0.4115
 8716TIP3    H147563   3.545   5.931   5.738  0.3059  1.9561  1.6513
 8716TIP3    H247564   3.633   6.055   5.741  2.6943  0.4518 -0.9299
 8717TIP3   OH247565   4.321   6.192   2.676  0.0176 -0.1913  0.3149
 8717TIP3    H147566   4.358   6.120   2.727 -1.5906 -2.2871 -1.3087
 8717TIP3    H247567   4.389   6.215   2.613  0.3043 -0.7615  0.4154
 8718TIP3   OH247568   4.672   2.171  11.344 -0.1100 -0.6037 -0.4538
 8718TIP3    H147569   4.611   2.241  11.365 -0.3470 -0.8574 -0.2807
 8718TIP3    H247570   4.757   2.203  11.373 -0.0195  0.0870 -1.4461
 8719TIP3   OH247571   1.194   4.098  14.485 -0.1711 -0.5209 -0.3539
 8719TIP3    H147572   1.236   4.019  14.450 -0.8913 -1.0065 -0.1585
 8719TIP3    H247573   1.254   4.130  14.552  1.0108  0.1604 -1.6886
 8720TIP3   OH247574   4.978   6.600  14.404 -0.6742 -0.8648  0.1095
 8720TIP3    H147575   4.924   6.550  14.464 -0.6732  1.5795  2.3466
 8720TIP3    H247576   5.002   6.538  14.335 -0.3290 -4.0006  2.8023
 8721TIP3   OH247577   2.714   3.022   0.662 -0.1384 -0.2012 -0.3308
 8721TIP3    H147578   2.753   3.000   0.746  1.4843 -1.4785 -1.3525
 8721TIP3    H247579   2.749   3.109   0.642  1.4093 -0.8749 -0.7263
 8722TIP3   OH247580   0.799   4.820  16.005 -0.3856  0.9496 -0.3195
 8722TIP3    H147581   0.751   4.824  15.923 -0.5720  0.0483 -0.2625
 8722TIP3    H247582   0.764   4.891  16.058  0.3437  2.0981 -1.3322
 8723TIP3   OH247583   0.323   0.942   4.166  0.2912  0.0452 -0.2415
 8723TIP3    H147584   0.397   0.957   4.108  1.6967 -1.3329  1.0770
 8723TIP3    H247585   0.250   0.923   4.108  1.3776 -0.1745 -1.5813
 8724TIP3   OH247586   5.360   0.581  15.183 -0.0012  0.3692 -0.2651
 8724TIP3    H147587   5.397   0.495  15.160 -0.7681 -0.1782  0.5180
 8724TIP3    H247588   5.425   0.643  15.151  1.8891 -0.5710  1.4803
 8725TIP3   OH247589   6.449   6.263  13.331  0.0694  0.1695  0.0980
 8725TIP3    H147590   6.412   6.299  13.250 -0.1887  1.8823  0.9309
 8725TIP3    H247591   6.445   6.168  13.319 -0.9342  0.3704 -1.4586
 8726TIP3   OH247592   5.935   4.307  10.833 -0.4092  0.2976 -0.3961
 8726TIP3    H147593   5.872   4.237  10.817 -0.8288  0.5185  0.2256
 8726TIP3    H247594   5.882   4.387  10.833 -0.6630  0.2735  2.8165
 8727TIP3   OH247595   0.029   6.640   4.511  0.1401  0.1223 -0.1533
 8727TIP3    H147596  -0.023   6.561   4.494  0.0186  0.2731 -0.5035
 8727TIP3    H247597   0.119   6.608   4.517  0.0118 -0.1383  0.4373
 8728TIP3   OH247598   6.101   2.138   4.739  0.3633  0.5106 -0.1717
 8728TIP3    H147599   6.069   2.049   4.752  0.6537  0.5578  1.0596
 8728TIP3    H247600   6.195   2.129   4.728  0.3147  0.6133 -0.6689
 8729TIP3   OH247601   4.969   2.545   3.986  0.0553  0.4015  0.4428
 8729TIP3    H147602   5.015   2.461   3.974  1.8813  1.5569 -1.3469
 8729TIP3    H247603   5.021   2.591   4.051  0.9683  1.3436 -0.8974
 8730TIP3   OH247604   1.886   1.822  16.434  0.0847  0.1484  0.1401
 8730TIP3    H147605   1.930   1.881  16.373 -0.5319 -0.2622 -0.7149
 8730TIP3    H247606   1.954   1.798  16.497  0.6884  0.7127 -0.2857
 8731TIP3   OH247607   3.132   0.204   5.088  0.2868  0.2977  0.4234
 8731TIP3    H147608   3.073   0.234   5.019 -0.7711 -0.8654  0.7712
 8731TIP3    H247609   3.220   0.226   5.058 -0.2214  0.5563 -0.8980
 8732TIP3   OH247610   1.517   4.394  10.930  0.6356  0.2351  0.2780
 8732TIP3    H147611   1.545   4.480  10.899  1.2901 -0.5662 -1.4659
 8732TIP3    H247612   1.463   4.359  10.859 -1.6973  0.1542  1.9627
 8733TIP3   OH247613   3.799   3.060  16.163  0.2849  0.1895 -0.5109
 8733TIP3    H147614   3.852   3.140  16.173 -0.8139  1.0627 -1.4629
 8733TIP3    H247615   3.714   3.091  16.133 -0.0470 -1.3906 -1.2880
 8734TIP3   OH247616   0.501   6.241  14.314 -0.2476  0.4822  0.6918
 8734TIP3    H147617   0.494   6.148  14.335  0.1575  0.5014  0.9200
 8734TIP3    H247618   0.428   6.281  14.362 -0.5636  0.2547  0.4080
 8735TIP3   OH247619   5.667   5.323  12.222  0.0710 -0.1964  0.6078
 8735TIP3    H147620   5.623   5.296  12.141 -1.1093  0.6009  0.9661
 8735TIP3    H247621   5.724   5.395  12.195  0.9865 -1.0580  0.1882
 8736TIP3   OH247622   5.790   5.190   1.808  0.3086 -0.2652 -0.2543
 8736TIP3    H147623   5.785   5.097   1.830 -1.0402 -0.0333  0.5406
 8736TIP3    H247624   5.721   5.230   1.861  1.8475  1.4111  0.5613
 8737TIP3   OH247625   4.184   2.546   1.648  0.0262  0.2265  0.3168
 8737TIP3    H147626   4.278   2.561   1.647  0.1929 -0.7270 -0.0136
 8737TIP3    H247627   4.155   2.573   1.560  0.3064 -1.1914 -0.2376
 8738TIP3   OH247628   5.383   2.786  15.884  0.1813  0.1688  0.0901
 8738TIP3    H147629   5.324   2.861  15.869  0.9653  1.1017  1.4261
 8738TIP3    H247630   5.376   2.769  15.978  1.3418 -0.2918  0.1075
 8739TIP3   OH247631   4.963   5.027  16.179  0.1625  0.1607 -0.2833
 8739TIP3    H147632   5.004   5.011  16.264 -0.6289  0.2694  0.1290
 8739TIP3    H247633   5.016   4.977  16.117  0.9945  0.4185  0.2155
 8740TIP3   OH247634   1.860   3.127   1.086  0.3110 -0.0177 -0.3507
 8740TIP3    H147635   1.799   3.056   1.106  1.1401 -0.1698  1.9542
 8740TIP3    H247636   1.933   3.085   1.041  0.5424 -0.5681  0.5134
 8741TIP3   OH247637   5.902   3.557  13.031 -0.4985  0.2627  0.2838
 8741TIP3    H147638   5.922   3.650  13.036 -1.1034  0.3492  1.6744
 8741TIP3    H247639   5.966   3.515  13.089 -1.2656  0.0222  0.9826
 8742TIP3   OH247640   4.451   4.032   1.486 -0.1190  0.0629  0.5749
 8742TIP3    H147641   4.517   4.082   1.533  0.0944 -0.6270  1.0242
 8742TIP3    H247642   4.411   3.976   1.552 -1.0014  0.2992  0.2637
 8743TIP3   OH247643   4.387   1.638   1.882 -0.3074 -0.3594  0.7794
 8743TIP3    H147644   4.420   1.678   1.801 -1.7912 -0.7477 -0.0473
 8743TIP3    H247645   4.343   1.710   1.928 -1.9088 -0.7113 -0.1275
 8744TIP3   OH247646   3.363   1.722  16.731  0.2994  0.2524 -0.6887
 8744TIP3    H147647   3.270   1.744  16.725  0.1027 -0.5524 -0.6794
 8744TIP3    H247648   3.381   1.670  16.653  0.6377  0.0468 -0.4781
 8745TIP3   OH247649   4.476   3.767   3.161  0.0323 -0.7360  0.5199
 8745TIP3    H147650   4.555   3.721   3.189  0.4592  0.0989  0.7283
 8745TIP3    H247651   4.405   3.724   3.208  0.6808  0.4132  2.7399
 8746TIP3   OH247652   5.359   0.609  14.798  0.1515  0.4065 -0.0239
 8746TIP3    H147653   5.436   0.656  14.831 -0.1746 -1.1019  3.1970
 8746TIP3    H247654   5.286   0.644  14.849 -0.3458 -2.2348  1.2330
 8747TIP3   OH247655   2.674   3.599  11.753  0.2552  0.7297  0.6514
 8747TIP3    H147656   2.759   3.623  11.715  0.4050 -0.1552  0.4015
 8747TIP3    H247657   2.695   3.535  11.820 -0.2646  0.0112  0.1434
 8748TIP3   OH247658   1.303   1.724  16.475 -0.3588  0.4742 -0.4222
 8748TIP3    H147659   1.300   1.733  16.570  3.6001 -0.8266 -0.0105
 8748TIP3    H247660   1.304   1.814  16.442 -1.1622  0.9388  0.7762
 8749TIP3   OH247661   3.353   2.987  13.290  0.1432  0.0498  0.4239
 8749TIP3    H147662   3.299   3.021  13.362 -2.2810  0.0375 -1.2509
 8749TIP3    H247663   3.338   2.893  13.291  0.4539 -0.0032  0.1893
 8750TIP3   OH247664   0.827   2.871  14.958 -0.1408 -0.2446 -0.3466
 8750TIP3    H147665   0.768   2.813  14.910  1.5750 -1.8300 -0.6349
 8750TIP3    H247666   0.850   2.939  14.894  0.3137 -1.0561 -1.0787
 8751TIP3   OH247667   3.770   0.919   1.154  0.8476  0.9232 -0.5323
 8751TIP3    H147668   3.690   0.948   1.198  1.4169  1.7667 -0.0331
 8751TIP3    H247669   3.754   0.826   1.135  0.1659  0.8087  0.4973
 8752TIP3   OH247670   0.865   2.796  10.846  0.0558 -0.5749 -0.1086
 8752TIP3    H147671   0.910   2.880  10.838 -0.7365 -0.1801 -0.5269
 8752TIP3    H247672   0.808   2.792  10.769 -1.4030 -0.5791  0.9543
 8753TIP3   OH247673   6.040   1.488   1.293 -0.6173  0.1371 -0.0833
 8753TIP3    H147674   5.955   1.459   1.260 -1.3686  0.8736  1.1524
 8753TIP3    H247675   6.093   1.499   1.215 -2.8236  3.4769 -1.3107
 8754TIP3   OH247676   3.748   2.784   1.618  0.1241 -0.2159  0.0242
 8754TIP3    H147677   3.702   2.815   1.541  0.1155  0.9757  0.4884
 8754TIP3    H247678   3.731   2.850   1.685  0.7388 -0.8431  0.8324
 8755TIP3   OH247679   5.390   4.869   2.129 -0.0648 -0.2652  0.1161
 8755TIP3    H147680   5.422   4.931   2.064 -1.6343  0.4133 -0.0523
 8755TIP3    H247681   5.423   4.902   2.213 -1.9741  1.6008  0.1897
 8756TIP3   OH247682   6.010   0.938  11.030 -0.1191  0.6760 -0.4091
 8756TIP3    H147683   6.047   1.006  11.086  0.3185  1.3396 -1.4776
 8756TIP3    H247684   5.922   0.970  11.008  0.1982  1.0696 -1.1585
 8757TIP3   OH247685   5.483   0.192   5.205 -0.0511  0.3705 -0.1708
 8757TIP3    H147686   5.533   0.130   5.152  0.7951  1.9723 -1.3418
 8757TIP3    H247687   5.414   0.224   5.147 -1.3115 -0.3876  0.8356
 8758TIP3   OH247688   3.576   2.647  15.237 -0.3637  0.1898 -0.1076
 8758TIP3    H147689   3.603   2.667  15.327 -0.0666 -1.0962  0.1100
 8758TIP3    H247690   3.537   2.559  15.243  0.0214 -0.0768 -1.3039
 8759TIP3   OH247691   1.820   3.030   2.668  0.7000  0.0503  0.1439
 8759TIP3    H147692   1.808   2.969   2.742 -0.4757  0.8765  0.6580
 8759TIP3    H247693   1.747   3.091   2.675  0.8594  0.4566 -1.4238
 8760TIP3   OH247694   0.792   2.976  13.656  0.3222  0.2960  0.0184
 8760TIP3    H147695   0.746   3.054  13.687 -1.2941  0.0626 -1.5781
 8760TIP3    H247696   0.870   3.009  13.612 -0.0179  0.9890 -0.0750
 8761TIP3   OH247697   5.488   6.150  15.027 -0.0320  0.1775 -0.2062
 8761TIP3    H147698   5.553   6.133  14.958 -0.5772 -1.3079 -0.3683
 8761TIP3    H247699   5.403   6.137  14.984 -0.3772 -1.6496  0.9290
 8762TIP3   OH247700   0.776   4.869   3.708  0.2375  0.1920  0.1860
 8762TIP3    H147701   0.730   4.800   3.756  0.1689 -0.0887 -0.2785
 8762TIP3    H247702   0.722   4.884   3.630  1.7904 -1.3462 -1.2691
 8763TIP3   OH247703   0.067   2.428  16.895 -0.5959 -0.6285  0.2039
 8763TIP3    H147704   0.109   2.402  16.977  1.1032  1.3041  0.0346
 8763TIP3    H247705   0.011   2.502  16.919  0.1628  0.1646 -0.3726
 8764TIP3   OH247706   5.815   2.772  14.587 -0.1126  0.0123 -0.7577
 8764TIP3    H147707   5.783   2.736  14.670 -0.5175  1.5504 -0.2060
 8764TIP3    H247708   5.898   2.814  14.610  0.2495 -0.3830 -1.3352
 8765TIP3   OH247709   2.558   0.164  16.917 -0.0708  0.1914 -0.0985
 8765TIP3    H147710   2.559   0.088  16.859  1.0341  0.3759 -0.3386
 8765TIP3    H247711   2.576   0.128  17.004 -0.6484  0.0535 -0.0291
 8766TIP3   OH247712   2.922   3.805   3.223  0.1621 -0.0559  0.0610
 8766TIP3    H147713   2.931   3.792   3.317  0.5088  0.4279  0.0966
 8766TIP3    H247714   2.879   3.891   3.215  0.3659  0.0210 -0.2223
 8767TIP3   OH247715   6.419   2.604  12.436  0.2366 -0.0308  0.1622
 8767TIP3    H147716   6.417   2.544  12.511 -0.4661 -0.2517 -0.0258
 8767TIP3    H247717   6.447   2.550  12.362  0.6946  0.1305  0.2201
 8768TIP3   OH247718   5.469   6.744  14.770  0.0656 -0.3207  0.6565
 8768TIP3    H147719   5.515   6.812  14.819  0.3829 -1.2211  1.6601
 8768TIP3    H247720   5.535   6.709  14.710 -0.0520  0.1329  0.2566
 8769TIP3   OH247721   4.688   2.878   1.090 -0.0712  0.4588 -0.1992
 8769TIP3    H147722   4.740   2.874   1.010  2.4102 -0.8660  1.3346
 8769TIP3    H247723   4.658   2.789   1.104 -1.6970  0.9608 -0.3622
 8770TIP3   OH247724   1.541   5.594   4.417  0.1800  0.1687 -0.0028
 8770TIP3    H147725   1.465   5.535   4.415 -1.1481  1.7449  1.0843
 8770TIP3    H247726   1.616   5.536   4.422 -1.1301 -1.5227  3.3360
 8771TIP3   OH247727   5.585   2.908   5.868 -0.3770  0.3739  0.0445
 8771TIP3    H147728   5.675   2.901   5.836 -0.1337  1.5248  0.4516
 8771TIP3    H247729   5.532   2.867   5.799  0.4655 -0.4878 -0.1064
 8772TIP3   OH247730   4.985   6.383   4.401 -0.1888 -0.2088  0.2734
 8772TIP3    H147731   5.053   6.367   4.335 -0.2595  0.8822 -0.0822
 8772TIP3    H247732   4.904   6.394   4.351  0.0377  2.3221  0.3567
 8773TIP3   OH247733   2.378   3.749   6.231 -0.1273 -0.1371  0.5104
 8773TIP3    H147734   2.385   3.725   6.323  0.5837  1.4187  0.9051
 8773TIP3    H247735   2.303   3.809   6.228 -0.5355 -0.6620 -0.0468
 8774TIP3   OH247736   4.733   5.914  10.986  0.1650 -0.3874  0.3569
 8774TIP3    H147737   4.816   5.871  11.010  0.2871 -0.9693 -0.9853
 8774TIP3    H247738   4.687   5.847  10.935  0.3100  1.0172 -1.7210
 8775TIP3   OH247739   5.284   2.161  12.410 -0.6692 -0.2544 -0.0774
 8775TIP3    H147740   5.313   2.072  12.430  1.0589 -0.0138 -1.3069
 8775TIP3    H247741   5.218   2.180  12.476 -1.5083 -2.6533 -0.1369
 8776TIP3   OH247742   2.479   5.245   3.921 -0.0532  0.2589 -0.4784
 8776TIP3    H147743   2.543   5.223   3.989 -0.6012 -1.3818 -0.4430
 8776TIP3    H247744   2.518   5.214   3.840 -1.1029 -1.5459 -0.3507
 8777TIP3   OH247745   5.740   4.341  12.484  0.2699  0.1786  0.0725
 8777TIP3    H147746   5.784   4.416  12.443 -1.8728  1.0269 -0.8076
 8777TIP3    H247747   5.673   4.314  12.421 -1.6503  0.0648  2.0300
 8778TIP3   OH247748   2.486   4.020   4.273  1.0911  0.4435  0.1587
 8778TIP3    H147749   2.479   3.947   4.211  0.0347  0.2247  0.5032
 8778TIP3    H247750   2.400   4.062   4.269  1.4809  1.2782  0.4466
 8779TIP3   OH247751   3.446   2.363  13.139 -0.1814  0.2859  0.4405
 8779TIP3    H147752   3.432   2.436  13.078 -0.9218 -1.2702 -1.3481
 8779TIP3    H247753   3.374   2.302  13.120  1.3798 -1.7253  0.6085
 8780TIP3   OH247754   4.323   1.274  16.772  0.0507  0.1769  0.7386
 8780TIP3    H147755   4.345   1.361  16.804  3.1236  0.2532 -1.1701
 8780TIP3    H247756   4.312   1.285  16.678  0.4349 -1.4409  0.4755
 8781TIP3   OH247757   6.742   0.833   5.628 -0.3531  0.1771  0.0925
 8781TIP3    H147758   6.716   0.754   5.674 -0.6935 -0.0606 -0.5005
 8781TIP3    H247759   6.722   0.904   5.689 -1.1166 -0.1086  0.1782
 8782TIP3   OH247760   0.708   0.864  16.042  0.6829  0.1418  0.3854
 8782TIP3    H147761   0.717   0.874  16.137 -0.3345  0.8326  0.4153
 8782TIP3    H247762   0.669   0.777  16.031  0.2809  0.2919  0.6249
 8783TIP3   OH247763   5.576   0.175  12.172 -0.4988 -0.0636 -0.3051
 8783TIP3    H147764   5.633   0.246  12.202  0.0474  0.0440 -1.5323
 8783TIP3    H247765   5.578   0.112  12.244 -0.6483  0.9556  0.6230
 8784TIP3   OH247766   0.404   0.116  14.391  0.3613  0.6209 -0.5584
 8784TIP3    H147767   0.316   0.138  14.360 -0.4047  1.2944  1.9157
 8784TIP3    H247768   0.424   0.182  14.457  2.6698  0.3474 -0.8940
 8785TIP3   OH247769   4.872   1.447  12.310  0.0200 -0.6135  0.7753
 8785TIP3    H147770   4.852   1.534  12.276  4.1146 -0.0311 -0.7243
 8785TIP3    H247771   4.885   1.460  12.404  0.0469  0.2996  0.6535
 8786TIP3   OH247772   4.215   5.223  15.720  0.3288 -0.2801 -0.0015
 8786TIP3    H147773   4.139   5.279  15.735 -0.9034 -1.7021 -0.6504
 8786TIP3    H247774   4.252   5.253  15.638  0.7586  0.7080  0.5400
 8787TIP3   OH247775   5.563   5.005  11.933  0.2456 -0.0212 -0.4154
 8787TIP3    H147776   5.532   4.916  11.950 -0.8805  0.4517  0.0721
 8787TIP3    H247777   5.649   5.009  11.975  0.3262 -0.8905 -0.4847
 8788TIP3   OH247778   6.094   5.427  12.873 -0.7949  0.3900  0.1493
 8788TIP3    H147779   6.160   5.392  12.933 -1.5803  0.8760  1.3492
 8788TIP3    H247780   6.137   5.501  12.830  0.4169 -1.1446 -1.3773
 8789TIP3   OH247781   6.281   0.984   6.131  0.2016 -0.3677  0.0861
 8789TIP3    H147782   6.266   1.022   6.045  1.6533  0.3932  0.1316
 8789TIP3    H247783   6.306   1.059   6.186 -1.9046 -0.6262  1.5259
 8790TIP3   OH247784   0.555   0.436  16.343 -0.2299 -0.1385  0.3387
 8790TIP3    H147785   0.537   0.377  16.270 -0.9881 -0.3828  0.7141
 8790TIP3    H247786   0.622   0.496  16.310  0.8900 -1.4667  0.0858
 8791TIP3   OH247787   2.318   2.652  15.588  0.6103 -0.1552  0.0744
 8791TIP3    H147788   2.361   2.718  15.643  3.9280 -0.8545 -1.4098
 8791TIP3    H247789   2.339   2.569  15.630 -0.3554 -0.4918 -0.0779
 8792TIP3   OH247790   5.107   3.208  11.928  0.5120  0.3003 -0.1518
 8792TIP3    H147791   5.143   3.205  11.839  0.6629  0.4862 -0.0986
 8792TIP3    H247792   5.040   3.140  11.929  1.0873 -0.2797 -0.1517
 8793TIP3   OH247793   3.473   3.629   4.852 -0.3625 -0.5636 -0.6964
 8793TIP3    H147794   3.403   3.693   4.844 -0.0809 -0.3517 -1.5609
 8793TIP3    H247795   3.489   3.599   4.762 -0.0467 -1.3655 -0.3830
 8794TIP3   OH247796   0.541   4.681   5.515  0.0172 -0.2336  0.3326
 8794TIP3    H147797   0.575   4.728   5.591 -0.0035 -0.5862  0.5632
 8794TIP3    H247798   0.501   4.749   5.460  0.6886  0.1254  0.2742
 8795TIP3   OH247799   5.447   3.244   6.283  0.2273  0.1712  0.8594
 8795TIP3    H147800   5.460   3.251   6.378 -0.1923 -1.5107  1.0817
 8795TIP3    H247801   5.365   3.195   6.274 -0.0159  0.7856 -0.3889
 8796TIP3   OH247802   4.048   2.068  16.315 -0.1064  0.2386  0.4528
 8796TIP3    H147803   4.070   2.100  16.402 -3.0390 -3.4458  2.8824
 8796TIP3    H247804   3.952   2.065  16.314 -0.1970 -0.0213 -2.9207
 8797TIP3   OH247805   3.564   4.836   5.120 -0.0420  0.1092 -0.5175
 8797TIP3    H147806   3.604   4.862   5.037  0.5068 -0.6890 -0.5156
 8797TIP3    H247807   3.548   4.742   5.110 -0.7347  0.1641 -0.0217
 8798TIP3   OH247808   6.069   4.345  12.971  1.1081  0.2514  0.3290
 8798TIP3    H147809   5.981   4.310  12.978  1.2250 -0.2772 -0.7144
 8798TIP3    H247810   6.126   4.271  12.990  1.3431  0.1399 -0.7837
 8799TIP3   OH247811   1.384   0.249  12.048  0.3393 -0.3696  0.9304
 8799TIP3    H147812   1.456   0.308  12.069  0.4640 -0.9499  2.1962
 8799TIP3    H247813   1.309   0.307  12.033  0.7958  0.1738  0.7137
 8800TIP3   OH247814   0.906   0.458   0.339  0.6042  0.4846  1.0263
 8800TIP3    H147815   0.901   0.552   0.353  0.0177  0.6910 -0.3585
 8800TIP3    H247816   0.836   0.439   0.276  0.8832 -0.8309  1.0738
 8801TIP3   OH247817   4.640   6.646   2.621  0.4845 -0.1627  0.5271
 8801TIP3    H147818   4.585   6.720   2.592  0.9374  0.3017  0.8391
 8801TIP3    H247819   4.714   6.647   2.560  0.9354  0.1961  1.0680
 8802TIP3   OH247820   1.841   6.609  11.309 -0.4234  0.1328 -0.1561
 8802TIP3    H147821   1.857   6.515  11.318 -1.0007  0.0782  0.3274
 8802TIP3    H247822   1.926   6.649  11.327 -0.3434 -0.2598  0.3628
 8803TIP3   OH247823   1.699   1.714  11.246 -0.3182  0.1000  0.0278
 8803TIP3    H147824   1.721   1.805  11.226 -3.4227  0.5194 -2.2697
 8803TIP3    H247825   1.748   1.663  11.182 -0.1008  0.3505 -0.0058
 8804TIP3   OH247826   6.493   5.331   2.067  0.1937  0.1631 -0.3359
 8804TIP3    H147827   6.433   5.300   1.999  0.6231 -1.1881 -0.1272
 8804TIP3    H247828   6.576   5.347   2.022  0.7771 -1.7129 -0.0019
 8805TIP3   OH247829   2.689   4.342   0.474 -0.1164 -0.7581 -0.4203
 8805TIP3    H147830   2.756   4.348   0.406 -0.0457 -1.2036 -0.3902
 8805TIP3    H247831   2.668   4.433   0.495  0.7333 -0.6142 -0.1813
 8806TIP3   OH247832   5.169   4.303  12.274  0.1975 -0.8490  0.6539
 8806TIP3    H147833   5.102   4.317  12.208 -1.0496  0.4335  2.1267
 8806TIP3    H247834   5.250   4.336  12.235 -0.6031  0.3074 -0.0587
 8807TIP3   OH247835   5.223   5.523   2.637 -0.1469 -0.1694 -0.9112
 8807TIP3    H147836   5.223   5.578   2.559 -0.3228 -1.3202 -1.7621
 8807TIP3    H247837   5.301   5.549   2.685 -0.2010  0.7732 -1.3082
 8808TIP3   OH247838   5.171   2.195  12.161  0.0866  0.5053 -0.2712
 8808TIP3    H147839   5.114   2.123  12.134  1.1420  0.1114 -1.5155
 8808TIP3    H247840   5.181   2.184  12.256 -0.8606 -0.1658 -0.2388
 8809TIP3   OH247841   3.795   0.690   4.632  0.4788 -0.6756 -0.0252
 8809TIP3    H147842   3.877   0.656   4.666  1.2969  2.0068  0.9017
 8809TIP3    H247843   3.730   0.665   4.698  0.7017 -1.8847 -0.2366
 8810TIP3   OH247844   1.990   3.150  14.277 -0.4890 -0.0849 -0.4265
 8810TIP3    H147845   2.035   3.067  14.293 -0.2789 -0.0537 -0.8406
 8810TIP3    H247846   1.945   3.169  14.360 -0.9701 -0.8723 -0.4995
 8811TIP3   OH247847   0.645   4.804  15.399 -0.1358  0.3844  0.5692
 8811TIP3    H147848   0.569   4.790  15.342  0.9089  1.0023 -1.0368
 8811TIP3    H247849   0.642   4.897  15.420 -0.9686  0.0291  2.2941
 8812TIP3   OH247850   2.844   3.361  12.426 -0.2553  0.2679  0.2721
 8812TIP3    H147851   2.767   3.404  12.389 -0.5377 -1.0917 -0.8276
 8812TIP3    H247852   2.902   3.433  12.452 -0.2144  1.3702 -2.5159
 8813TIP3   OH247853   6.280   3.573  17.137 -0.1570 -0.5613 -0.2029
 8813TIP3    H147854   6.248   3.656  17.102  0.1326 -0.8266 -1.1247
 8813TIP3    H247855   6.202   3.532  17.176 -0.1513  0.4495  0.9204
 8814TIP3   OH247856   6.716   5.291  12.288  0.0400  0.4913  0.0693
 8814TIP3    H147857   6.658   5.327  12.355  1.0634 -0.2958  1.4371
 8814TIP3    H247858   6.672   5.212  12.257  0.2896 -0.0402  1.0180
 8815TIP3   OH247859   5.117   3.465  11.616  0.4140 -0.3654  0.1674
 8815TIP3    H147860   5.145   3.546  11.574  0.7831 -0.1732  0.7637
 8815TIP3    H247861   5.198   3.418  11.635  0.3574  0.0936  1.7082
 8816TIP3   OH247862   0.936   4.709  14.888  0.2193  0.6371 -0.7892
 8816TIP3    H147863   0.965   4.618  14.899 -0.9666  0.3700  0.4257
 8816TIP3    H247864   0.892   4.711  14.803  0.8117  0.2353 -1.1083
 8817TIP3   OH247865   6.094   2.186  15.375  0.8928 -0.4156  0.2692
 8817TIP3    H147866   6.019   2.179  15.435  1.5941 -1.1199  1.0815
 8817TIP3    H247867   6.129   2.097  15.370  0.1336 -0.6771 -2.1840
 8818TIP3   OH247868   1.717   0.309   2.969  0.0295  0.2116  0.4617
 8818TIP3    H147869   1.743   0.220   2.944  1.5681  0.8935 -0.5149
 8818TIP3    H247870   1.630   0.320   2.932  0.1356 -0.6361 -0.0785
 8819TIP3   OH247871   1.676   2.828   2.320 -0.0644  0.3582 -0.3045
 8819TIP3    H147872   1.634   2.742   2.320  1.5347 -0.4846  1.5936
 8819TIP3    H247873   1.635   2.874   2.394  1.5264 -0.1049  0.9174
 8820TIP3   OH247874   3.677   0.658   1.095  0.4125 -0.8267  0.0606
 8820TIP3    H147875   3.675   0.563   1.086 -0.7806 -0.7731 -0.3712
 8820TIP3    H247876   3.676   0.691   1.005 -1.7115 -0.3938  0.2065
 8821TIP3   OH247877   5.098   4.730  14.082  0.0121  0.2177 -0.0759
 8821TIP3    H147878   5.003   4.729  14.088  0.0474 -0.4012  0.4885
 8821TIP3    H247879   5.117   4.786  14.006 -0.7553  1.4654  0.6261
 8822TIP3   OH247880   4.637   4.847   1.259 -0.8306 -0.1584 -0.0895
 8822TIP3    H147881   4.668   4.848   1.349 -0.3411  0.9926 -0.2511
 8822TIP3    H247882   4.580   4.770   1.254  0.5166 -1.2663  0.7139
 8823TIP3   OH247883   4.159   1.436   1.323 -0.3385  0.1332  0.3156
 8823TIP3    H147884   4.220   1.466   1.256 -0.8635 -1.4349 -0.8988
 8823TIP3    H247885   4.081   1.409   1.275 -0.8217 -0.8180  1.5742
 8824TIP3   OH247886   4.814   5.375   3.961  0.5817  0.0863 -0.1161
 8824TIP3    H147887   4.775   5.443   4.015 -0.3083 -3.3196  4.1412
 8824TIP3    H247888   4.897   5.354   4.005  0.3713 -2.1160 -0.6459
 8825TIP3   OH247889   2.209   0.221  11.680  0.1032  0.0125  0.0073
 8825TIP3    H147890   2.226   0.151  11.618  0.5609  0.6041 -0.5531
 8825TIP3    H247891   2.254   0.297  11.643 -0.8749  0.7505  0.2855
 8826TIP3   OH247892   1.313   5.600  13.356  0.3345 -0.5102  0.2373
 8826TIP3    H147893   1.383   5.547  13.319  0.2268  0.5715 -1.6415
 8826TIP3    H247894   1.346   5.628  13.441  2.1092 -0.1596 -0.5392
 8827TIP3   OH247895   2.584   2.063  11.798 -0.0559  0.3259  0.1480
 8827TIP3    H147896   2.580   1.987  11.741  0.9981  0.3720 -0.0091
 8827TIP3    H247897   2.665   2.107  11.774 -1.2864  2.2723 -0.7355
 8828TIP3   OH247898   6.447   2.833   4.865 -0.0988 -0.1170  0.3683
 8828TIP3    H147899   6.516   2.877   4.914 -0.3717 -0.8351  1.4415
 8828TIP3    H247900   6.378   2.818   4.930 -2.6425  3.2630 -1.2393
 8829TIP3   OH247901   2.447   0.698   4.688  0.4293  0.5918 -0.3524
 8829TIP3    H147902   2.526   0.666   4.732  0.3828  1.2995  0.2578
 8829TIP3    H247903   2.478   0.726   4.602  1.1269  2.1022  0.3448
 8830TIP3   OH247904   5.259   0.071   3.794 -0.1412  0.1389 -0.5811
 8830TIP3    H147905   5.232  -0.021   3.794 -1.2710  0.4578 -0.6896
 8830TIP3    H247906   5.214   0.109   3.718 -0.4467  0.9923  0.0123
 8831TIP3   OH247907   3.360   1.990  13.316  0.3686  0.0101  0.7042
 8831TIP3    H147908   3.393   2.036  13.394  1.4821 -0.0178  0.2734
 8831TIP3    H247909   3.303   2.054  13.273 -0.7079 -0.1678  1.8233
 8832TIP3   OH247910   0.908   5.559  11.564  0.5118  0.1277  0.0913
 8832TIP3    H147911   0.910   5.574  11.658 -0.6417  0.6315  0.0554
 8832TIP3    H247912   0.998   5.535  11.541  1.1800  1.6005  1.0570
 8833TIP3   OH247913   6.641   0.108   0.415 -0.1017  0.7593 -0.1337
 8833TIP3    H147914   6.660   0.110   0.509 -0.3565 -0.2722 -0.0493
 8833TIP3    H247915   6.551   0.141   0.408  0.3368  2.0211 -0.1583
 8834TIP3   OH247916   1.930   1.600  15.303  0.4034  0.0088  0.0238
 8834TIP3    H147917   1.927   1.658  15.227 -0.2253  1.1931  0.9100
 8834TIP3    H247918   1.938   1.659  15.378  0.9518 -1.1252  0.8900
 8835TIP3   OH247919   6.735   2.014   5.288 -0.0139  0.5369 -0.0143
 8835TIP3    H147920   6.729   1.920   5.299 -0.4135  0.3834 -1.3621
 8835TIP3    H247921   6.828   2.031   5.270 -0.1692  0.2134 -1.1915
 8836TIP3   OH247922   1.207   2.223  15.519  0.0434  0.7155  0.3377
 8836TIP3    H147923   1.297   2.208  15.490 -0.3711 -1.0909 -0.1452
 8836TIP3    H247924   1.167   2.274  15.449 -0.2199 -1.4045 -1.1661
 8837TIP3   OH247925   0.002   4.809  11.445 -0.1506 -0.1795  0.2400
 8837TIP3    H147926  -0.068   4.860  11.485  0.1171  0.0102  0.4686
 8837TIP3    H247927  -0.003   4.831  11.352 -0.0287  0.2694  0.3390
 8838TIP3   OH247928   1.438   3.912   0.723  0.0710  0.0671 -0.4734
 8838TIP3    H147929   1.483   3.958   0.794  1.3636 -1.4692 -0.2703
 8838TIP3    H247930   1.447   3.971   0.647 -0.5056  1.2810  0.3561
 8839TIP3   OH247931   5.416   5.716   1.138  0.1377  0.1940 -0.2431
 8839TIP3    H147932   5.497   5.725   1.087  0.0818 -0.1964 -0.4069
 8839TIP3    H247933   5.443   5.669   1.217 -0.4167 -2.6139 -1.6106
 8840TIP3   OH247934   2.434   5.833  10.989 -0.6434 -0.0743  0.4752
 8840TIP3    H147935   2.365   5.783  10.945 -1.3430  1.9641 -0.8691
 8840TIP3    H247936   2.386   5.898  11.040  0.2659  1.1116 -0.1577
 8841TIP3   OH247937   4.324   5.660   1.569 -0.1707 -0.0639 -0.1060
 8841TIP3    H147938   4.278   5.594   1.622 -0.0292 -0.7133 -0.7770
 8841TIP3    H247939   4.368   5.716   1.633 -2.3394  0.9317  0.5840
 8842TIP3   OH247940   3.845   4.843   2.388  0.5345 -0.1089  0.6928
 8842TIP3    H147941   3.776   4.784   2.420  0.8349  0.6786  2.9523
 8842TIP3    H247942   3.922   4.786   2.379  0.2392 -0.5023  0.5967
 8843TIP3   OH247943   0.129   0.805   1.339 -0.2539  0.0824 -0.5174
 8843TIP3    H147944   0.051   0.767   1.380  0.3938 -1.2593 -0.4537
 8843TIP3    H247945   0.190   0.818   1.412  0.0070 -0.0069 -0.7154
 8844TIP3   OH247946   0.178   4.601  16.030  0.2466 -0.2163  0.3310
 8844TIP3    H147947   0.199   4.681  16.080 -0.1125 -0.3409  0.6902
 8844TIP3    H247948   0.263   4.559  16.016  0.9942  2.1115 -3.1976
 8845TIP3   OH247949   3.278   6.366  11.360 -0.3997  0.1213 -0.2864
 8845TIP3    H147950   3.264   6.449  11.315 -1.6575  0.1272  0.0868
 8845TIP3    H247951   3.209   6.308  11.326 -1.0854 -0.0160  1.2657
 8846TIP3   OH247952   2.398   6.088  12.911  0.6590 -0.3389 -0.4497
 8846TIP3    H147953   2.482   6.064  12.870  0.3263 -1.6403 -0.4044
 8846TIP3    H247954   2.332   6.046  12.856  0.0385  0.3660 -0.2627
 8847TIP3   OH247955   1.546   6.327   2.634 -0.1672  0.3367  0.2211
 8847TIP3    H147956   1.451   6.329   2.632 -0.1741  0.0687  0.2746
 8847TIP3    H247957   1.573   6.381   2.560 -0.3648 -0.2029 -0.2504
 8848TIP3   OH247958   2.205   2.045   1.302  0.5591 -0.4690  0.2887
 8848TIP3    H147959   2.205   2.126   1.353 -1.5809 -0.6526  0.6381
 8848TIP3    H247960   2.131   1.995   1.335  0.0110 -1.2549 -1.9584
 8849TIP3   OH247961   2.802   1.273  13.943 -0.1243  0.4007  0.3666
 8849TIP3    H147962   2.798   1.181  13.971  0.6478  0.0772 -0.5166
 8849TIP3    H247963   2.715   1.290  13.906  0.1104 -0.3935 -0.6252
 8850TIP3   OH247964   5.952   0.776   4.813 -0.2421  0.6283 -0.9085
 8850TIP3    H147965   6.024   0.726   4.775 -0.1970  0.6151 -0.8065
 8850TIP3    H247966   5.899   0.803   4.738 -1.5325 -1.4899 -0.8536
 8851TIP3   OH247967   4.084   5.040  15.445  0.8478 -0.7046  0.1377
 8851TIP3    H147968   4.154   5.006  15.500  1.7155  1.1070  0.2317
 8851TIP3    H247969   4.005   4.997  15.478  1.4726 -0.4461  2.1415
 8852TIP3   OH247970   0.846   4.903  12.740 -0.0540  0.2053 -0.0866
 8852TIP3    H147971   0.837   4.812  12.769 -0.1530  0.5234  0.9430
 8852TIP3    H247972   0.755   4.934  12.733 -0.0121  0.4123  0.2339
 8853TIP3   OH247973   3.379   0.570  16.744 -0.2990 -0.1832  0.0231
 8853TIP3    H147974   3.390   0.504  16.812 -1.6302  0.2877  0.7492
 8853TIP3    H247975   3.465   0.612  16.736 -0.1582 -0.1131  1.5802
 8854TIP3   OH247976   1.792   2.704   5.233  0.1600  0.5004  0.5963
 8854TIP3    H147977   1.839   2.687   5.315  1.6522 -0.3928 -0.3907
 8854TIP3    H247978   1.771   2.797   5.235  1.3350  0.7578  1.4105
 8855TIP3   OH247979   1.844   0.108   5.259  0.0135  0.4641  0.0464
 8855TIP3    H147980   1.856   0.049   5.333  0.8336  1.8487  1.0666
 8855TIP3    H247981   1.766   0.159   5.281 -0.6910 -0.1935 -0.8278
 8856TIP3   OH247982   3.559   6.428  16.901  0.1913 -0.3641 -0.1049
 8856TIP3    H147983   3.553   6.519  16.873 -0.4955 -0.5019 -0.4245
 8856TIP3    H247984   3.647   6.419  16.936 -0.1961  0.8066  1.2664
 8857TIP3   OH247985   1.484   0.419  16.161 -0.7148 -0.9148  0.3185
 8857TIP3    H147986   1.459   0.489  16.100 -2.2446 -0.3793  1.4932
 8857TIP3    H247987   1.425   0.347  16.140 -1.2614 -0.7226  1.1319
 8858TIP3   OH247988   3.124   6.202   3.484  0.6243 -0.0473 -0.1052
 8858TIP3    H147989   3.070   6.266   3.530 -0.1292 -1.5852  1.2601
 8858TIP3    H247990   3.075   6.181   3.404  0.3461  0.2755 -0.0192
 8859TIP3   OH247991   6.325   4.301  14.872  0.0635 -0.7055 -0.0217
 8859TIP3    H147992   6.256   4.363  14.893  1.4187  1.6235 -1.9096
 8859TIP3    H247993   6.323   4.238  14.943 -0.9274  1.9108  2.4622
 8860TIP3   OH247994   0.130   5.622   3.961 -0.1998  0.5528 -0.4203
 8860TIP3    H147995   0.096   5.598   4.047 -1.1108  2.2570 -0.2503
 8860TIP3    H247996   0.058   5.603   3.900  0.8204 -1.6872 -1.0317
 8861TIP3   OH247997   5.415   2.065   1.774 -0.1264  0.6636 -0.2517
 8861TIP3    H147998   5.506   2.091   1.767 -0.1653  0.4747 -1.9274
 8861TIP3    H247999   5.367   2.131   1.724 -0.9223  0.8020  0.6721
 8862TIP3   OH248000   2.512   4.366  15.232  0.2223 -0.3226 -0.2079
 8862TIP3    H148001   2.541   4.278  15.258  0.8483  0.6214  2.7302
 8862TIP3    H248002   2.580   4.424  15.267 -0.5703  1.3906 -1.4035
 8863TIP3   OH248003   4.432   2.978   2.867  0.2239 -0.4555 -0.3491
 8863TIP3    H148004   4.479   3.059   2.885 -0.0153 -0.7391  1.7823
 8863TIP3    H248005   4.500   2.916   2.841  0.7024 -0.2004  0.2768
 8864TIP3   OH248006   3.041   5.082  14.350 -0.6453 -0.0157 -0.5500
 8864TIP3    H148007   3.092   5.096  14.430 -0.7268 -0.8916 -0.3314
 8864TIP3    H248008   3.105   5.090  14.279 -0.5649  0.7196 -0.3946
 8865TIP3   OH248009   4.582   0.846  13.249 -0.1967 -1.0043  0.0957
 8865TIP3    H148010   4.527   0.923  13.245 -1.9397 -2.2065 -0.0879
 8865TIP3    H248011   4.555   0.793  13.174  1.5118 -1.4555 -0.2451
 8866TIP3   OH248012   1.530   1.120   3.367 -0.4403 -0.8744 -0.5597
 8866TIP3    H148013   1.439   1.110   3.398 -0.0606 -0.6163  0.6793
 8866TIP3    H248014   1.564   1.195   3.414  0.6467 -1.3965 -0.4771
 8867TIP3   OH248015   5.925   4.568  15.964 -0.2353 -0.2536 -0.4944
 8867TIP3    H148016   5.916   4.663  15.962 -1.1059 -0.2530  1.6002
 8867TIP3    H248017   5.990   4.551  16.032  0.4752 -1.1545 -1.3647
 8868TIP3   OH248018   3.353   1.085  11.770  0.1961 -0.1832 -0.0783
 8868TIP3    H148019   3.382   0.996  11.750  1.0674  0.2952 -0.9899
 8868TIP3    H248020   3.259   1.076  11.786  0.6381 -1.6405  2.1559
 8869TIP3   OH248021   1.066   4.919   4.213 -0.1995 -0.1957 -0.4730
 8869TIP3    H148022   1.117   4.886   4.139  0.8909  0.1287  0.1151
 8869TIP3    H248023   0.975   4.904   4.187  0.0937  0.8415 -2.3250
 8870TIP3   OH248024   4.115   5.561   4.497  0.0945  0.3473  0.1147
 8870TIP3    H148025   4.123   5.467   4.515 -1.5327  0.5568  2.4089
 8870TIP3    H248026   4.095   5.567   4.404 -1.0414 -1.6772  0.1861
 8871TIP3   OH248027   4.453   6.597  14.730  0.0734 -0.5067 -0.3095
 8871TIP3    H148028   4.499   6.615  14.648 -1.7784  1.2845 -1.0248
 8871TIP3    H248029   4.428   6.505  14.724  0.8772 -0.6739 -1.2756
 8872TIP3   OH248030   3.759   3.331  14.513 -0.0863  0.1820  0.1875
 8872TIP3    H148031   3.789   3.294  14.430 -1.1773  0.9420 -0.5711
 8872TIP3    H248032   3.837   3.332  14.568  1.4727  2.5280 -1.8485
 8873TIP3   OH248033   0.173   5.746  14.428  0.0020  0.5923  0.0980
 8873TIP3    H148034   0.177   5.727  14.522  1.3697  0.3891  0.0224
 8873TIP3    H248035   0.165   5.841  14.424  2.5220  0.9038  0.4574
 8874TIP3   OH248036   5.656   2.279  15.973 -0.1251  0.1095  0.1269
 8874TIP3    H148037   5.602   2.220  16.026 -0.9443 -0.3462 -1.1737
 8874TIP3    H248038   5.739   2.233  15.961  0.7062  0.9137  2.3417
 8875TIP3   OH248039   2.703   2.623   0.340  0.5179  0.0953 -0.3994
 8875TIP3    H148040   2.725   2.713   0.364 -0.2354  0.0133  0.6457
 8875TIP3    H248041   2.617   2.608   0.378  1.0485 -1.3864  0.2805
 8876TIP3   OH248042   0.192   2.155  16.681  0.4130  0.4790  0.2115
 8876TIP3    H148043   0.220   2.239  16.645  2.9803 -1.0810 -1.7969
 8876TIP3    H248044   0.243   2.145  16.761  0.5689  0.5922  0.1269
 8877TIP3   OH248045   6.017   2.196  12.667  0.2820 -0.3951 -0.2058
 8877TIP3    H148046   6.071   2.119  12.685 -0.5700 -1.5001 -2.1036
 8877TIP3    H248047   5.945   2.163  12.613 -1.2813  1.3666  0.6966
 8878TIP3   OH248048   0.462   0.866   5.224  0.9842  0.2716 -0.5921
 8878TIP3    H148049   0.494   0.862   5.314  0.6229 -0.8438 -0.4859
 8878TIP3    H248050   0.540   0.848   5.171  1.0996  0.4154 -0.4721
 8879TIP3   OH248051   3.668   6.455   2.905  0.5156 -0.5250  0.4250
 8879TIP3    H148052   3.597   6.439   2.842  1.2905  1.3603 -1.0267
 8879TIP3    H248053   3.745   6.416   2.864  0.9251  0.2475  0.4512
 8880TIP3   OH248054   0.558   6.100   0.220  0.6263  0.1185 -0.6750
 8880TIP3    H148055   0.463   6.098   0.210  0.5241  1.8218 -0.2909
 8880TIP3    H248056   0.587   6.171   0.163  1.3952  1.1211  0.8801
 8881TIP3   OH248057   6.139   5.466  13.273 -0.0851 -0.3947  0.4877
 8881TIP3    H148058   6.212   5.419  13.232  0.2627  0.2772  0.3208
 8881TIP3    H248059   6.165   5.558  13.269 -1.9402  0.1129 -1.6246
 8882TIP3   OH248060   6.623   6.088   1.137 -0.0580  0.2057  0.1513
 8882TIP3    H148061   6.566   6.059   1.065 -0.0861  2.0232 -0.6100
 8882TIP3    H248062   6.674   6.011   1.160 -0.4604 -0.5715 -1.4385
 8883TIP3   OH248063   6.178   1.014  15.401  0.2671 -0.1428 -0.3560
 8883TIP3    H148064   6.217   1.056  15.325  1.2354 -0.8279 -0.2561
 8883TIP3    H248065   6.252   0.993  15.458 -0.1643 -1.9433 -0.3973
 8884TIP3   OH248066   2.916   3.638   0.052  0.1104 -0.0692 -0.0604
 8884TIP3    H148067   2.910   3.553   0.009 -1.3296 -0.2050  0.3476
 8884TIP3    H248068   2.945   3.698  -0.016  2.8082 -1.1457  0.0485
 8885TIP3   OH248069   0.337   0.775   0.054 -0.1882 -0.3117  0.2488
 8885TIP3    H148070   0.416   0.739   0.015  0.1102 -0.3965  0.9052
 8885TIP3    H248071   0.314   0.714   0.124 -0.6981 -0.1626  0.2177
 8886TIP3   OH248072   0.686   3.972  12.566  0.7015  0.3309 -0.2720
 8886TIP3    H148073   0.713   3.945  12.478  1.8304  2.3398 -0.5983
 8886TIP3    H248074   0.654   3.892  12.607  1.1756 -0.8680 -2.1326
 8887TIP3   OH248075   4.416   5.622  14.988  0.7417 -0.4074  0.1057
 8887TIP3    H148076   4.418   5.705  14.941  1.0545 -0.6090 -0.2385
 8887TIP3    H248077   4.402   5.647  15.080 -0.4302 -0.0487 -0.1585
 8888TIP3   OH248078   1.504   0.800   2.646 -0.1337  0.7509  0.1057
 8888TIP3    H148079   1.517   0.840   2.560 -0.5326  2.0451  0.6078
 8888TIP3    H248080   1.410   0.785   2.651  0.2277 -2.4756 -0.9642
 8889TIP3   OH248081   3.941   5.805   0.946 -0.5115 -0.0965  0.4190
 8889TIP3    H148082   3.946   5.735   1.011  0.0339  0.3207  0.8367
 8889TIP3    H248083   3.976   5.766   0.866  1.6285  0.2495  1.1395
 8890TIP3   OH248084   1.681   1.896  11.819  0.6616 -0.1515  0.3828
 8890TIP3    H148085   1.688   1.826  11.883  3.6802 -0.3740 -0.0692
 8890TIP3    H248086   1.726   1.862  11.741 -0.9164  0.9725 -1.1108
 8891TIP3   OH248087   5.432   5.129   0.998  0.2707 -0.0656  0.5859
 8891TIP3    H148088   5.486   5.125   1.077 -1.8117  0.5782  2.1349
 8891TIP3    H248089   5.342   5.131   1.030 -0.6617  0.6163 -1.8144
 8892TIP3   OH248090   5.691   2.240  11.890 -0.3978 -0.2981 -0.1464
 8892TIP3    H148091   5.624   2.259  11.955  1.1246  0.4138  1.2715
 8892TIP3    H248092   5.753   2.184  11.936  1.8888  2.0367 -0.1997
 8893TIP3   OH248093   3.230   4.960   5.736 -0.2267 -0.4765  0.0110
 8893TIP3    H148094   3.251   4.955   5.643  2.0919  0.0426  0.4640
 8893TIP3    H248095   3.241   4.870   5.768  0.9049 -0.3051  0.1404
 8894TIP3   OH248096   3.696   5.691   5.165  0.1761  0.3984  0.1783
 8894TIP3    H148097   3.667   5.771   5.209  0.4949 -0.0764  1.2910
 8894TIP3    H248098   3.692   5.712   5.072  0.9774  1.9693  0.4660
 8895TIP3   OH248099   3.092   0.357   6.062  0.3950  0.1419 -0.2608
 8895TIP3    H148100   3.050   0.271   6.068 -0.1938  0.4767  0.6380
 8895TIP3    H248101   3.021   0.420   6.073  0.5928  0.7999 -2.3461
 8896TIP3   OH248102   6.649   5.123  15.881  0.5934 -0.5815  0.0865
 8896TIP3    H148103   6.685   5.136  15.793 -0.3804 -0.5061 -0.3091
 8896TIP3    H248104   6.664   5.207  15.925  0.9505 -0.5687 -0.0529
 8897TIP3   OH248105   3.477   5.728  13.739 -0.3487  0.8031 -0.6332
 8897TIP3    H148106   3.464   5.822  13.726  1.6352  1.0179 -1.5673
 8897TIP3    H248107   3.570   5.714  13.719 -0.4495 -1.2626  0.0962
 8898TIP3   OH248108   0.500   0.373   4.584  0.4725 -0.8641  0.3912
 8898TIP3    H148109   0.509   0.400   4.675 -0.7459 -0.8047  0.5051
 8898TIP3    H248110   0.460   0.287   4.588  0.3483 -0.8331 -0.0905
 8899TIP3   OH248111   4.719   6.446  12.503  0.1418  0.1656  0.2832
 8899TIP3    H148112   4.675   6.474  12.423 -0.5548  0.1835  0.6643
 8899TIP3    H248113   4.692   6.355  12.514  1.8891 -0.5238 -0.6086
 8900TIP3   OH248114   1.668   5.465  14.678 -0.1663  0.4564  0.0380
 8900TIP3    H148115   1.686   5.421  14.595  1.4499 -3.1614  2.0332
 8900TIP3    H248116   1.590   5.421  14.712  1.4895 -1.1086  2.0984
 8901TIP3   OH248117   2.683   2.302  17.177  0.6470  0.1117  0.2978
 8901TIP3    H148118   2.603   2.255  17.155  0.5438  0.2118  0.4585
 8901TIP3    H248119   2.665   2.342  17.262  0.1241  1.8398 -0.5828
 8902TIP3   OH248120   6.349   1.346   4.095 -0.3677 -0.4156 -0.6117
 8902TIP3    H148121   6.434   1.367   4.133 -1.2605  0.6047  0.8998
 8902TIP3    H248122   6.369   1.322   4.004  1.3990  0.8556 -0.6060
 8903TIP3   OH248123   0.308   6.595  16.801  0.4565  0.2436  0.2972
 8903TIP3    H148124   0.333   6.539  16.874  0.5257  0.2046  0.2434
 8903TIP3    H248125   0.321   6.541  16.723 -3.7454 -1.3758  0.4305
 8904TIP3   OH248126   2.575   2.158  16.136 -0.2575 -0.1782  0.0610
 8904TIP3    H148127   2.658   2.117  16.160  0.7799 -0.1254 -3.0865
 8904TIP3    H248128   2.560   2.222  16.206  2.2328 -0.3210  0.8457
 8905TIP3   OH248129   5.733   3.785  17.132  0.2558 -1.3634  0.0071
 8905TIP3    H148130   5.706   3.790  17.224 -0.7254  0.6004 -0.3365
 8905TIP3    H248131   5.750   3.876  17.107  2.8203 -2.0647 -1.1349
 8906TIP3   OH248132   0.142   2.122  12.370  0.1377  0.6051 -0.0678
 8906TIP3    H148133   0.061   2.071  12.369 -1.3361  2.8059 -1.0115
 8906TIP3    H248134   0.117   2.205  12.411  1.6150  1.7755 -1.4198
 8907TIP3   OH248135   2.191   5.711   0.035  0.1703  0.3913  0.6955
 8907TIP3    H148136   2.224   5.724   0.124 -0.8610  1.2474  0.9769
 8907TIP3    H248137   2.204   5.796  -0.007 -1.6956  0.8117  0.8575
 8908TIP3   OH248138   0.124   6.170   2.811 -0.4091  0.1719 -0.0020
 8908TIP3    H148139   0.204   6.127   2.781 -0.5546  0.8737 -1.4876
 8908TIP3    H248140   0.080   6.105   2.865  0.4940 -0.7176 -0.3178
 8909TIP3   OH248141   1.131   1.578   5.785 -0.4270 -0.5630  0.2727
 8909TIP3    H148142   1.069   1.649   5.770  0.0916 -0.0250  0.6584
 8909TIP3    H248143   1.212   1.607   5.743 -0.2266 -0.9571  0.3806
 8910TIP3   OH248144   5.232   0.302   1.334 -0.3773  0.6625 -0.5673
 8910TIP3    H148145   5.262   0.269   1.249 -1.7165 -0.6005 -0.5878
 8910TIP3    H248146   5.140   0.322   1.321  0.0498  3.2087 -0.1509
 8911TIP3   OH248147   4.939   3.545   4.954 -0.5718 -0.0789  0.9152
 8911TIP3    H148148   4.876   3.480   4.924  0.3151 -1.7109  2.4049
 8911TIP3    H248149   4.965   3.592   4.875 -0.4969 -2.2240 -0.3991
 8912TIP3   OH248150   4.659   0.089   5.694 -0.0407 -0.6487 -0.0654
 8912TIP3    H148151   4.572   0.093   5.733  0.1068 -0.3138  0.2312
 8912TIP3    H248152   4.652   0.143   5.616  0.7610  2.1028  1.6432
 8913TIP3   OH248153   4.384   4.612  11.262  0.2978 -0.2831  0.0113
 8913TIP3    H148154   4.360   4.619  11.355 -1.1672  2.1242 -0.4641
 8913TIP3    H248155   4.301   4.622  11.215  0.9373 -2.0044 -1.5997
 8914TIP3   OH248156   2.286   4.616  12.654 -0.3114 -0.1847 -0.8948
 8914TIP3    H148157   2.293   4.521  12.658 -0.4157 -0.4328 -4.0839
 8914TIP3    H248158   2.373   4.647  12.678 -0.7326 -0.9216  1.8563
 8915TIP3   OH248159   0.330   5.599   0.895 -0.4944  0.5520  0.4203
 8915TIP3    H148160   0.368   5.680   0.862  1.6706 -1.0662 -1.3594
 8915TIP3    H248161   0.396   5.564   0.955 -1.0253 -0.2895  0.5286
 8916TIP3   OH248162   4.414   3.924   2.777  0.1839 -0.3057  0.0798
 8916TIP3    H148163   4.501   3.934   2.738 -1.0789  0.6987 -2.7200
 8916TIP3    H248164   4.422   3.964   2.864  2.0911  1.3445 -0.7768
 8917TIP3   OH248165   1.971   1.860  15.852  0.0640 -0.4443  0.6000
 8917TIP3    H148166   1.924   1.837  15.932  0.6039 -1.3369  0.6736
 8917TIP3    H248167   1.932   1.805  15.785  0.0330 -0.1480  0.3743
 8918TIP3   OH248168   5.909   2.214   3.178  0.5965  0.5381 -0.6130
 8918TIP3    H148169   5.870   2.159   3.245  0.5353 -1.1286 -1.9664
 8918TIP3    H248170   6.003   2.193   3.182  0.7672  1.3161 -0.2817
 8919TIP3   OH248171   2.442   2.815  15.797 -0.2901  1.5024 -0.7983
 8919TIP3    H148172   2.493   2.896  15.797 -0.4603  1.6225  0.2290
 8919TIP3    H248173   2.502   2.749  15.833 -0.6887  1.5343 -0.0640
 8920TIP3   OH248174   0.739   1.974   4.137 -0.3565  0.0512 -0.0994
 8920TIP3    H148175   0.679   1.949   4.208  1.2982  0.8155  1.6388
 8920TIP3    H248176   0.709   2.060   4.109  0.5490  0.9263  1.5310
 8921TIP3   OH248177   3.399   0.954  13.852 -0.9827  0.0683 -0.4965
 8921TIP3    H148178   3.371   0.918  13.936  2.1983 -0.4666  0.4490
 8921TIP3    H248179   3.370   1.046  13.855 -1.2348 -0.0322  1.0429
 8922TIP3   OH248180   2.156   0.558   5.012  0.6056 -0.3584  0.6794
 8922TIP3    H148181   2.146   0.499   4.938  1.3813  0.4955 -0.1384
 8922TIP3    H248182   2.067   0.583   5.036  0.3744  0.1912 -0.6733
 8923TIP3   OH248183   5.423   2.451  16.566  0.4059 -0.4013  0.0915
 8923TIP3    H148184   5.346   2.403  16.597  0.2353 -0.8081 -0.9300
 8923TIP3    H248185   5.388   2.516  16.505  0.7872  0.0358  0.3299
 8924TIP3   OH248186   2.743   3.463   3.262 -0.0822 -0.0572 -0.7395
 8924TIP3    H148187   2.733   3.372   3.235 -2.8487 -0.1841  0.3950
 8924TIP3    H248188   2.804   3.459   3.336  1.9050 -0.5652 -2.3027
 8925TIP3   OH248189   4.479   5.625   5.948  0.3345 -0.0567  0.0237
 8925TIP3    H148190   4.400   5.669   5.917  0.0828  0.3687  1.2101
 8925TIP3    H248191   4.525   5.692   5.998  1.4321 -0.3170 -0.6118
 8926TIP3   OH248192   2.885   6.065   5.590 -0.2079 -0.3778 -0.7117
 8926TIP3    H148193   2.842   6.026   5.514  2.3092 -1.3861 -1.7227
 8926TIP3    H248194   2.947   5.998   5.619 -1.5339 -0.2736  2.6991
 8927TIP3   OH248195   3.590   2.419  13.765  0.1219  0.3948 -0.0055
 8927TIP3    H148196   3.496   2.407  13.780 -0.4645  2.1794 -1.8532
 8927TIP3    H248197   3.631   2.365  13.832 -2.2104 -0.4133  0.8938
 8928TIP3   OH248198   3.976   3.184  13.747  0.0117  0.2617 -0.1856
 8928TIP3    H148199   3.933   3.156  13.667 -0.2561 -2.3663  0.7991
 8928TIP3    H248200   3.924   3.146  13.818  1.3272  0.9137  1.1979
 8929TIP3   OH248201   5.514   0.470   6.492  0.1979 -0.0354 -0.2628
 8929TIP3    H148202   5.609   0.462   6.483  0.3426  1.8128 -0.8553
 8929TIP3    H248203   5.490   0.533   6.424 -0.8983  2.5306  2.3273
 8930TIP3   OH248204   2.287   3.812   3.665  0.0804  0.0906 -0.2314
 8930TIP3    H148205   2.248   3.900   3.659  1.3971  0.6557 -5.1313
 8930TIP3    H248206   2.212   3.752   3.660 -0.7667  0.7812  2.3218
 8931TIP3   OH248207   1.073   6.165  14.758  0.1467  0.0951  0.5480
 8931TIP3    H148208   1.141   6.144  14.821 -1.8549 -1.2338  2.3889
 8931TIP3    H248209   1.106   6.243  14.713  2.2676  0.2896  2.2596
 8932TIP3   OH248210   4.055   0.382  16.503  0.0388 -0.5088  0.5582
 8932TIP3    H148211   4.113   0.315  16.467  0.7864  0.8013 -0.8049
 8932TIP3    H248212   3.989   0.397  16.435  0.5223  0.8664  0.3507
 8933TIP3   OH248213   4.481   2.755   6.358 -0.4391  0.3406  0.0738
 8933TIP3    H148214   4.525   2.700   6.424  0.7352  0.3626 -0.6758
 8933TIP3    H248215   4.391   2.763   6.391 -0.5642 -1.7304  0.4141
 8934TIP3   OH248216   5.460   6.141   0.719  0.5202  0.2433 -0.0393
 8934TIP3    H148217   5.486   6.049   0.722 -2.4109 -0.7059  0.0236
 8934TIP3    H248218   5.530   6.185   0.671  2.4051 -1.8320  0.6415
 8935TIP3   OH248219   3.718   5.000  12.395  0.5503  0.0729 -0.5085
 8935TIP3    H148220   3.697   5.011  12.302  1.5199 -0.0363 -0.7518
 8935TIP3    H248221   3.653   4.938  12.427 -1.3667  1.9808 -0.5021
 8936TIP3   OH248222   0.027   3.765  15.395 -0.8095  0.1764 -0.2861
 8936TIP3    H148223  -0.039   3.697  15.394 -2.4565  1.6352 -3.0541
 8936TIP3    H248224   0.109   3.720  15.418 -1.8478 -2.6543 -1.7807
 8937TIP3   OH248225   3.673   0.101  11.234  0.1242  0.2864  0.1336
 8937TIP3    H148226   3.591   0.078  11.192 -0.6421  4.3732 -1.0823
 8937TIP3    H248227   3.735   0.113  11.161  0.6938  0.8974  0.6991
 8938TIP3   OH248228   2.834   6.487   2.193 -0.1267  0.1357  0.0591
 8938TIP3    H148229   2.926   6.485   2.164  0.1482  2.2759  0.6118
 8938TIP3    H248230   2.804   6.575   2.171 -1.2806  0.3435  2.1893
 8939TIP3   OH248231   3.733   4.177  12.353 -0.5267 -0.2907  0.1235
 8939TIP3    H148232   3.714   4.146  12.441 -2.2810 -1.2998 -0.5667
 8939TIP3    H248233   3.655   4.156  12.302 -0.8513  3.0163 -0.9980
 8940TIP3   OH248234   6.098   1.579  14.012  0.2194 -0.1402  0.1708
 8940TIP3    H148235   6.094   1.484  14.006 -1.9492 -0.0664 -0.9820
 8940TIP3    H248236   6.190   1.601  13.996  0.9959 -2.0579  1.6580
 8941TIP3   OH248237   2.213   2.550  14.037 -0.0474 -0.3360 -0.0428
 8941TIP3    H148238   2.178   2.638  14.054 -0.0226  0.0215 -1.6126
 8941TIP3    H248239   2.217   2.545  13.941  2.6511 -0.9731  0.0207
 8942TIP3   OH248240   0.864   3.216   0.481  0.1185  0.3064 -0.1722
 8942TIP3    H148241   0.925   3.245   0.549  0.6783 -0.7440 -0.1941
 8942TIP3    H248242   0.815   3.294   0.457  0.4219  0.8452  0.9189
 8943TIP3   OH248243   5.833   1.242   3.147 -0.1997  0.0647 -0.4457
 8943TIP3    H148244   5.758   1.300   3.163 -0.3939 -0.3994  0.3396
 8943TIP3    H248245   5.841   1.239   3.051 -1.6367 -0.4513 -0.5697
 8944TIP3   OH248246   2.698   3.161   3.245 -0.4578 -0.3540 -0.0704
 8944TIP3    H148247   2.703   3.127   3.334 -1.1108 -0.5829 -0.1129
 8944TIP3    H248248   2.641   3.099   3.199  0.0131 -0.3365 -0.6942
 8945TIP3   OH248249   4.189   5.693   0.790 -0.2466 -0.7907  0.3615
 8945TIP3    H148250   4.239   5.730   0.862 -0.8943 -0.5870  0.7074
 8945TIP3    H248251   4.254   5.643   0.739  0.0002 -1.9801  1.7725
 8946TIP3   OH248252   1.710   2.319  11.352  0.3522 -0.0700  0.2108
 8946TIP3    H148253   1.727   2.339  11.260  1.5247 -1.8012  0.0059
 8946TIP3    H248254   1.736   2.399  11.399  0.8829  0.4068 -0.8584
 8947TIP3   OH248255   5.025   5.150   5.028  0.2367 -0.1966  0.3472
 8947TIP3    H148256   4.996   5.161   4.937  0.8159 -0.6210  0.0998
 8947TIP3    H248257   5.119   5.137   5.021  0.5360  1.4021  1.1553
 8948TIP3   OH248258   0.186   3.521  10.650  0.0670  0.0848  0.4791
 8948TIP3    H148259   0.155   3.580  10.582  0.3332  0.2737  0.5202
 8948TIP3    H248260   0.106   3.485  10.690 -0.0881  0.0467  0.1331
 8949TIP3   OH248261   3.251   2.846  14.866  0.3036 -0.4686  0.1008
 8949TIP3    H148262   3.345   2.828  14.868  0.0973 -1.6202  0.1087
 8949TIP3    H248263   3.210   2.760  14.876 -0.7650  0.2388  2.5685
 8950TIP3   OH248264   0.910   1.097  13.039 -0.7195  0.3741 -0.2337
 8950TIP3    H148265   0.992   1.049  13.054 -1.7674 -1.3477  0.3107
 8950TIP3    H248266   0.928   1.149  12.960  1.4427  1.4354  0.8560
 8951TIP3   OH248267   0.846   3.462  13.749 -0.0219 -0.1071  0.1297
 8951TIP3    H148268   0.895   3.536  13.784  0.6423  0.5804 -2.0902
 8951TIP3    H248269   0.759   3.497  13.731  0.1674  0.0161 -0.5395
 8952TIP3   OH248270   3.943   5.604   5.044  0.1651  0.4799 -0.8147
 8952TIP3    H148271   3.854   5.606   5.080 -0.3467 -0.5790 -1.9487
 8952TIP3    H248272   3.994   5.659   5.104 -1.2304  1.0669 -0.1053
 8953TIP3   OH248273   3.006   2.409   2.971 -0.1194  0.2036 -0.4850
 8953TIP3    H148274   3.046   2.495   2.958 -1.3931  0.8271 -0.4155
 8953TIP3    H248275   2.963   2.390   2.888 -0.4503 -0.0377 -0.2574
 8954TIP3   OH248276   0.048   1.139  14.437 -0.4647 -0.0079  0.0687
 8954TIP3    H148277   0.108   1.193  14.490 -0.9777  0.0370  0.6182
 8954TIP3    H248278  -0.004   1.092  14.502 -0.5391 -0.5893 -0.4112
 8955TIP3   OH248279   2.117   2.558  16.349 -0.1476  0.1668 -0.1945
 8955TIP3    H148280   2.127   2.463  16.349 -0.3548  0.1438 -0.4509
 8955TIP3    H248281   2.190   2.590  16.297 -0.9087  0.0514 -1.3656
 8956TIP3   OH248282   4.280   6.238   4.449  0.2865 -0.3594 -0.1595
 8956TIP3    H148283   4.203   6.184   4.465 -0.9244  1.4853  0.4132
 8956TIP3    H248284   4.254   6.297   4.379  1.2315  0.1992 -0.0543
 8957TIP3   OH248285   0.291   2.461  12.787  0.3778  0.2484  0.1762
 8957TIP3    H148286   0.355   2.522  12.752  0.5179  0.1606  0.2782
 8957TIP3    H248287   0.333   2.424  12.865  0.1262  0.3396  0.3579
 8958TIP3   OH248288   1.096   2.239  11.087 -0.1977  0.6828  0.1832
 8958TIP3    H148289   1.111   2.262  11.178  1.2801  1.9100 -0.3098
 8958TIP3    H248290   1.155   2.297  11.038  0.0060 -0.8387 -1.4748
 8959TIP3   OH248291   5.310   0.819  16.824  0.7006 -0.4387 -0.2250
 8959TIP3    H148292   5.314   0.912  16.846  1.1795 -0.7877  1.2921
 8959TIP3    H248293   5.342   0.814  16.734  0.4213  0.8817 -0.4164
 8960TIP3   OH248294   5.457   2.989   4.143 -1.0395  0.6007 -0.2432
 8960TIP3    H148295   5.438   3.037   4.062  3.5883  0.9713 -1.3901
 8960TIP3    H248296   5.472   2.899   4.114  0.1812  0.6356  0.2422
 8961TIP3   OH248297   3.696   0.434  11.718 -0.0226  0.3460 -0.1550
 8961TIP3    H148298   3.768   0.373  11.735 -0.5575 -0.4599 -0.7341
 8961TIP3    H248299   3.728   0.488  11.646  0.2443  0.4017  0.0020
 8962TIP3   OH248300   1.096   5.373   2.515 -0.5626  0.3500  0.0596
 8962TIP3    H148301   1.125   5.286   2.488 -0.2188  0.3747  0.3344
 8962TIP3    H248302   1.000   5.369   2.512 -0.5461 -0.0084 -0.0176
 8963TIP3   OH248303   6.101   2.018   1.682  0.1521  0.4726 -0.1224
 8963TIP3    H148304   6.159   1.947   1.710 -1.4375 -0.8868 -0.1100
 8963TIP3    H248305   6.121   2.029   1.589 -1.1379 -1.6437 -0.7236
 8964TIP3   OH248306   6.637   0.745   0.405 -0.5026  0.2527  0.5354
 8964TIP3    H148307   6.692   0.762   0.328 -0.4117  0.2658  0.6038
 8964TIP3    H248308   6.692   0.692   0.463 -1.5404 -2.3914 -0.6934
 8965TIP3   OH248309   3.178   2.194  16.550 -0.3539 -0.3603  0.5049
 8965TIP3    H148310   3.219   2.276  16.524  0.2654 -0.8131  0.0298
 8965TIP3    H248311   3.194   2.187  16.644 -0.1670 -0.0728  0.4946
 8966TIP3   OH248312   5.081   3.161   0.613 -0.7497  0.2625  0.0703
 8966TIP3    H148313   5.136   3.206   0.677 -0.9058  0.0980  0.3204
 8966TIP3    H248314   5.008   3.221   0.598 -0.1010  0.8400 -0.8656
 8967TIP3   OH248315   6.288   2.516   3.949 -0.4843 -0.3551  0.6671
 8967TIP3    H148316   6.197   2.545   3.944  0.2842  2.4299  1.0689
 8967TIP3    H248317   6.339   2.589   3.912  1.5971 -1.8261  0.4383
 8968TIP3   OH248318   3.562   0.032  13.652 -0.0592 -0.1401  0.2613
 8968TIP3    H148319   3.554  -0.063  13.655 -2.2315 -0.0128  0.1011
 8968TIP3    H248320   3.635   0.052  13.710 -1.8077 -1.7002  3.2097
 8969TIP3   OH248321   6.590   5.569  12.084  0.0290  0.3643  0.2965
 8969TIP3    H148322   6.603   5.541  11.993 -0.5082  2.8887 -0.6191
 8969TIP3    H248323   6.515   5.517  12.114 -0.2424  0.0037 -0.9434
 8970TIP3   OH248324   5.843   2.252   1.294  0.1042 -0.7086 -0.4403
 8970TIP3    H148325   5.909   2.222   1.231  3.4433  1.9167  1.4241
 8970TIP3    H248326   5.861   2.202   1.374 -0.3177 -0.1704  0.0092
 8971TIP3   OH248327   3.129   5.363  11.431  0.1812 -0.1119  0.2882
 8971TIP3    H148328   3.177   5.366  11.514 -0.1059  0.2491  0.4413
 8971TIP3    H248329   3.043   5.398  11.451  0.6526  1.6341 -0.5298
 8972TIP3   OH248330   1.606   4.446   2.530 -0.1817  0.1378 -0.5029
 8972TIP3    H148331   1.695   4.434   2.497  0.4454  2.3078  0.1749
 8972TIP3    H248332   1.551   4.395   2.471  1.3185  0.3728 -2.2110
 8973TIP3   OH248333   5.516   4.207   2.393 -0.0805  0.6283 -0.2337
 8973TIP3    H148334   5.530   4.143   2.463 -1.1239  1.1605  0.4758
 8973TIP3    H248335   5.597   4.259   2.392  0.5518 -0.3163 -0.4547
 8974TIP3   OH248336   4.141   1.871  14.389 -0.1039 -0.5983 -0.3856
 8974TIP3    H148337   4.214   1.899  14.443 -0.1295  1.7641 -1.4659
 8974TIP3    H248338   4.152   1.918  14.307 -3.3582  0.6947 -0.2249
 8975TIP3   OH248339   1.444   1.597   3.082 -0.0518  0.3026  0.0241
 8975TIP3    H148340   1.388   1.661   3.038  0.6176 -1.2001 -3.4169
 8975TIP3    H248341   1.384   1.530   3.115 -0.5909  1.5218  1.5930
 8976TIP3   OH248342   4.440   3.532   1.140  0.6737  0.2179 -0.0128
 8976TIP3    H148343   4.497   3.491   1.075  0.0006 -1.2989  0.2987
 8976TIP3    H248344   4.447   3.475   1.216  0.5404  1.3250  0.8409
 8977TIP3   OH248345   4.887   4.329   1.560  0.1629 -0.4496  0.2877
 8977TIP3    H148346   4.901   4.415   1.600  0.0138  0.8493 -2.2294
 8977TIP3    H248347   4.861   4.349   1.470 -1.2497 -3.1277 -0.0013
 8978TIP3   OH248348   5.674   2.371   4.031 -0.3028 -0.5404 -0.2013
 8978TIP3    H148349   5.750   2.313   4.025 -1.2266 -1.8246  0.0588
 8978TIP3    H248350   5.653   2.392   3.940 -1.0988 -2.2020 -0.4455
 8979TIP3   OH248351   3.256   5.799  15.910 -0.5130 -0.2599  0.0702
 8979TIP3    H148352   3.348   5.775  15.917  0.2126  0.7491 -3.6145
 8979TIP3    H248353   3.258   5.893  15.893 -2.2395 -0.2253 -0.0512
 8980TIP3   OH248354   1.686   3.306   1.472  0.2699 -0.8755  0.8646
 8980TIP3    H148355   1.746   3.357   1.527  0.9383 -0.1320 -0.5009
 8980TIP3    H248356   1.619   3.369   1.447  0.0579 -1.1668  0.7022
 8981TIP3   OH248357   5.199   5.582  12.762  0.2293 -0.1605 -0.2028
 8981TIP3    H148358   5.173   5.674  12.773  0.2875 -0.1423 -0.2185
 8981TIP3    H248359   5.257   5.583  12.687 -0.1263 -0.2768 -0.4804
 8982TIP3   OH248360   1.043   1.956   3.928 -0.7104 -0.5811  0.0505
 8982TIP3    H148361   1.094   1.921   3.855  0.0894 -1.1994  0.8771
 8982TIP3    H248362   1.010   1.879   3.974 -2.2697 -0.1924 -0.3588
 8983TIP3   OH248363   2.156   0.545   2.254 -0.5502  0.2662  0.1282
 8983TIP3    H148364   2.142   0.471   2.195 -1.2855 -0.1114  0.7612
 8983TIP3    H248365   2.068   0.577   2.274 -0.2596  1.0223  0.2272
 8984TIP3   OH248366   4.881   4.863   5.488  0.4847 -0.3636  0.1442
 8984TIP3    H148367   4.856   4.925   5.420  0.6380 -1.6682 -1.1546
 8984TIP3    H248368   4.972   4.883   5.507  0.0050  1.0307  1.1463
 8985TIP3   OH248369   0.288   5.145   0.982 -0.1411 -0.1185 -1.1216
 8985TIP3    H148370   0.372   5.190   0.987 -0.6212  0.9011 -1.7092
 8985TIP3    H248371   0.310   5.053   0.974  0.8851 -0.0056  0.0879
 8986TIP3   OH248372   2.370   5.899  15.250  0.8562  0.0995 -0.0890
 8986TIP3    H148373   2.362   5.806  15.272  1.2143  0.2634  0.8006
 8986TIP3    H248374   2.447   5.904  15.193  1.5348 -0.0216  0.7878
 8987TIP3   OH248375   0.345   2.936   1.699 -0.1726 -0.3945 -0.3164
 8987TIP3    H148376   0.391   2.999   1.755  2.3012 -0.1733 -2.4075
 8987TIP3    H248377   0.292   2.885   1.760 -0.0216  1.7837  1.8099
 8988TIP3   OH248378   2.568   0.352  16.604  0.3861 -0.0973  0.1776
 8988TIP3    H148379   2.598   0.376  16.516  1.9349  1.6682  1.0952
 8988TIP3    H248380   2.496   0.412  16.621  1.4151  1.0006  0.8314
 8989TIP3   OH248381   1.495   3.580  15.772 -0.4408 -0.2196 -0.2100
 8989TIP3    H148382   1.407   3.573  15.737  0.3840 -2.6265 -2.0645
 8989TIP3    H248383   1.524   3.489  15.785  1.0367  0.4938  2.4333
 8990TIP3   OH248384   1.651   6.218  12.847  0.2519 -0.2742 -0.0524
 8990TIP3    H148385   1.640   6.210  12.752 -3.1343  0.9671  0.1119
 8990TIP3    H248386   1.580   6.165  12.884 -0.5020  1.8096  1.6799
 8991TIP3   OH248387   4.845   2.789  12.954 -0.0321 -0.1212 -0.2005
 8991TIP3    H148388   4.810   2.729  13.020  1.4156  1.4107  2.1052
 8991TIP3    H248389   4.768   2.832  12.917 -0.8865  1.2757  2.8623
 8992TIP3   OH248390   1.524   0.122  10.262  0.2451 -0.7302  0.6241
 8992TIP3    H148391   1.572   0.132  10.345 -0.6518  0.9405  0.9744
 8992TIP3    H248392   1.472   0.042  10.275 -0.7697  0.1252  2.1591
 8993TIP3   OH248393   0.388   3.859   1.839  0.7008 -0.0618  0.3235
 8993TIP3    H148394   0.365   3.914   1.914  0.4515 -0.5068  0.5729
 8993TIP3    H248395   0.415   3.776   1.876  0.2165 -0.4151 -0.0912
 8994TIP3   OH248396   1.045   0.688  17.008 -0.0316  0.1253 -0.4931
 8994TIP3    H148397   1.062   0.775  16.970 -0.6141  0.6083  0.3327
 8994TIP3    H248398   1.128   0.663  17.048 -0.6449  1.6741  1.9369
 8995TIP3   OH248399   1.438   2.864   1.241  0.2843  0.3661 -0.0399
 8995TIP3    H148400   1.379   2.935   1.268 -1.0198  0.1422 -2.0556
 8995TIP3    H248401   1.441   2.805   1.316 -0.5866  1.3360  0.7805
 8996TIP3   OH248402   0.253   5.816   3.205  0.2544  0.3380 -0.2470
 8996TIP3    H148403   0.309   5.741   3.222  0.6833  0.6380 -0.3086
 8996TIP3    H248404   0.225   5.806   3.113 -0.7444 -0.4212  0.1205
 8997TIP3   OH248405   6.738   0.780   5.349  0.1244  0.1675 -0.1618
 8997TIP3    H148406   6.770   0.794   5.438  0.7935  0.8560 -0.5004
 8997TIP3    H248407   6.808   0.812   5.293 -0.1954 -0.4674 -0.9491
 8998TIP3   OH248408   1.924   4.858  13.153 -0.1058  0.0314  0.7404
 8998TIP3    H148409   1.903   4.824  13.066 -1.0783  0.6541  0.7272
 8998TIP3    H248410   1.951   4.781  13.203 -0.4514 -0.4700  0.1610
 8999TIP3   OH248411   4.708   4.866   3.929 -0.2339  0.6582  0.5486
 8999TIP3    H148412   4.708   4.961   3.913  0.0665  0.5632 -0.0680
 8999TIP3    H248413   4.801   4.843   3.934 -0.3123  0.5338  1.6165
 9000TIP3   OH248414   6.586   0.185  14.119 -0.0838 -0.0392  0.2844
 9000TIP3    H148415   6.563   0.093  14.107  1.2201 -0.3393 -0.1830
 9000TIP3    H248416   6.679   0.183  14.142 -0.1698  1.1370  0.8140
 9001TIP3   OH248417   3.405   4.701  12.982  1.2864 -0.7370  0.0577
 9001TIP3    H148418   3.421   4.711  12.888 -0.9897 -1.7127 -0.4902
 9001TIP3    H248419   3.484   4.736  13.023  1.6311  1.3807 -2.1522
 9002TIP3   OH248420   5.580   2.393  11.318 -0.6705 -0.6458 -0.3525
 9002TIP3    H148421   5.561   2.384  11.225 -0.2029 -1.1519 -0.4030
 9002TIP3    H248422   5.503   2.360  11.362 -0.7888 -0.6446 -0.5577
 9003TIP3   OH248423   3.251   2.243   2.274  0.4220 -0.0745 -0.8336
 9003TIP3    H148424   3.316   2.244   2.345  0.6568  2.6443 -0.9809
 9003TIP3    H248425   3.195   2.168   2.295  0.8560  0.2287  1.8810
 9004TIP3   OH248426   4.877   4.059  11.817 -0.2483  0.4053 -0.5520
 9004TIP3    H148427   4.816   4.058  11.890 -1.1170  0.0885 -1.2583
 9004TIP3    H248428   4.888   4.152  11.797 -0.0428  0.4905 -0.0551
 9005TIP3   OH248429   1.085   0.152   5.491  0.3896 -0.1385  0.2217
 9005TIP3    H148430   1.116   0.081   5.549  0.8249 -0.5042 -0.4464
 9005TIP3    H248431   1.135   0.228   5.520 -0.6475  0.1134  1.4711
 9006TIP3   OH248432   6.109   2.479  10.725  0.0065 -0.4580 -0.1442
 9006TIP3    H148433   6.177   2.443  10.782  1.3852  0.6376 -1.0489
 9006TIP3    H248434   6.151   2.489  10.640 -1.4995 -0.3833 -0.9148
 9007TIP3   OH248435   5.628   1.595   2.304  0.2256 -0.5080  0.3788
 9007TIP3    H148436   5.711   1.596   2.256  0.1235  1.0883  0.1570
 9007TIP3    H248437   5.628   1.512   2.352 -0.3287 -2.9518 -3.4327
 9008TIP3   OH248438   1.182   0.588  13.100  0.0086 -0.8826  1.0037
 9008TIP3    H148439   1.200   0.571  13.007 -0.2583 -1.3709  1.0365
 9008TIP3    H248440   1.086   0.582  13.106 -0.0191 -0.2587  1.1970
 9009TIP3   OH248441   0.136   4.482   5.038  0.3059  0.1760 -0.3862
 9009TIP3    H148442   0.051   4.495   4.996  0.3715 -0.4549 -0.7360
 9009TIP3    H248443   0.161   4.568   5.070 -0.6127  0.3073  0.0058
 9010TIP3   OH248444   3.352   3.341  10.793 -0.0865 -0.1179  0.6069
 9010TIP3    H148445   3.289   3.270  10.781  0.9563 -0.8452 -0.7889
 9010TIP3    H248446   3.307   3.418  10.756 -0.0281 -0.7217 -0.7996
 9011TIP3   OH248447   5.949   3.933   4.600  0.1044 -0.0284 -0.0327
 9011TIP3    H148448   5.927   3.840   4.592  1.4175 -0.4745  1.0517
 9011TIP3    H248449   5.999   3.952   4.520 -0.5036 -0.1478 -0.4450
 9012TIP3   OH248450   5.502   0.183   3.813  0.0766  0.1479  0.1114
 9012TIP3    H148451   5.410   0.154   3.817 -0.4389  1.6861  3.8429
 9012TIP3    H248452   5.497   0.278   3.828  2.2868  0.2289  0.5854
 9013TIP3   OH248453   4.264   1.761   3.508 -0.3514  0.3007 -0.4447
 9013TIP3    H148454   4.170   1.742   3.515 -0.4177  0.3802 -1.0705
 9013TIP3    H248455   4.306   1.676   3.512 -0.4797  0.2282 -0.6458
 9014TIP3   OH248456   6.250   3.087   2.960  0.0214 -0.0574  0.0835
 9014TIP3    H148457   6.319   3.131   2.910 -1.3678  2.3791  0.1298
 9014TIP3    H248458   6.209   3.028   2.896 -0.2057  1.2337 -1.0112
 9015TIP3   OH248459   2.242   6.401  12.446  0.0080 -0.5456  0.0271
 9015TIP3    H148460   2.289   6.343  12.506 -0.8652 -2.1323 -0.7663
 9015TIP3    H248461   2.181   6.449  12.502  1.1653  0.0801  0.7803
 9016TIP3   OH248462   1.003   4.320   1.503  0.1013  0.0918 -0.4667
 9016TIP3    H148463   0.910   4.301   1.517  0.8967 -2.0881  2.7567
 9016TIP3    H248464   1.005   4.414   1.483 -2.6740  0.5255  0.8322
 9017TIP3   OH248465   4.774   2.962   2.336  0.2393  0.2470 -0.6828
 9017TIP3    H148466   4.732   2.904   2.401  0.3931 -0.0181 -0.8167
 9017TIP3    H248467   4.768   2.913   2.254  2.6080 -0.7334 -0.3581
 9018TIP3   OH248468   2.223   1.696   0.137  0.1253  0.0121  0.3968
 9018TIP3    H148469   2.177   1.622   0.097  1.7875 -1.7714  1.6131
 9018TIP3    H248470   2.183   1.704   0.224 -1.2606  1.7777 -0.3325
 9019TIP3   OH248471   2.395   1.102   6.316 -0.3365 -0.5869 -0.3254
 9019TIP3    H148472   2.476   1.150   6.334 -0.2128 -0.9537  0.1116
 9019TIP3    H248473   2.418   1.011   6.332 -0.6334 -0.7726 -0.9391
 9020TIP3   OH248474   3.521   1.815   3.874  0.1267 -0.9905 -0.6094
 9020TIP3    H148475   3.572   1.846   3.949 -1.3590  0.2487 -0.0584
 9020TIP3    H248476   3.449   1.765   3.913  1.0204 -2.9683 -1.3854
 9021TIP3   OH248477   5.131   3.504   4.361  0.0582  0.3737  0.2437
 9021TIP3    H148478   5.057   3.562   4.347  0.2165  0.4106 -0.4469
 9021TIP3    H248479   5.192   3.555   4.414 -0.1506  0.5474  0.3201
 9022TIP3   OH248480   2.561   3.474  13.372 -1.1045 -0.3340  0.0376
 9022TIP3    H148481   2.647   3.437  13.391 -0.5252  0.5042 -0.9025
 9022TIP3    H248482   2.551   3.546  13.435 -1.1502 -0.4689  0.1856
 9023TIP3   OH248483   0.661   6.536   1.895 -0.4745  0.3479 -0.0221
 9023TIP3    H148484   0.575   6.563   1.929 -1.0095 -1.9873  0.6854
 9023TIP3    H248485   0.647   6.447   1.862  1.7311 -0.2009  0.3444
 9024TIP3   OH248486   0.444   1.332   3.326  0.2533  0.1173  0.2913
 9024TIP3    H148487   0.441   1.307   3.418  0.7954  0.5793  0.4410
 9024TIP3    H248488   0.435   1.427   3.327 -0.2784  0.0757 -0.1697
 9025TIP3   OH248489   0.475   4.290   3.328 -0.4807  0.4433  0.1571
 9025TIP3    H148490   0.536   4.360   3.306 -0.1810  0.0149 -0.3963
 9025TIP3    H248491   0.450   4.307   3.419  0.7443  0.4214  0.5147
 9026TIP3   OH248492   5.440   1.374   4.856 -0.0931  0.1892 -0.0046
 9026TIP3    H148493   5.406   1.299   4.903  2.0081 -0.8714 -0.0393
 9026TIP3    H248494   5.451   1.442   4.923 -0.0649 -0.2413  0.4284
 9027TIP3   OH248495   6.274   2.686   5.047 -0.0480 -0.3445 -0.0268
 9027TIP3    H148496   6.257   2.597   5.017  0.7986 -1.1852  1.8219
 9027TIP3    H248497   6.198   2.710   5.099 -0.3242  0.0738 -0.6106
 9028TIP3   OH248498   0.734   4.180  11.363 -0.2634 -0.0550 -0.0953
 9028TIP3    H148499   0.719   4.228  11.445  0.3423 -1.0787  0.6426
 9028TIP3    H248500   0.647   4.149  11.337 -0.5673  0.9014 -0.2481
 9029TIP3   OH248501   4.045   3.059   0.574 -0.1637  0.7674 -0.1185
 9029TIP3    H148502   4.036   2.964   0.581 -1.1787  0.9518  2.2401
 9029TIP3    H248503   4.122   3.080   0.627  0.6523  1.2059 -1.4344
 9030TIP3   OH248504   0.555   0.819  11.690 -0.4931 -0.0183 -0.1296
 9030TIP3    H148505   0.647   0.810  11.714 -0.1917 -0.4386 -1.4045
 9030TIP3    H248506   0.522   0.729  11.686 -0.8610  0.1099 -0.0949
 9031TIP3   OH248507   0.192   0.598   5.785 -0.0638 -0.6148 -0.2584
 9031TIP3    H148508   0.275   0.646   5.780 -0.1893 -0.4877 -2.0495
 9031TIP3    H248509   0.128   0.664   5.811  0.2910 -0.5935  0.6018
 9032TIP3   OH248510   4.398   5.758  14.622  0.3980 -0.1670  0.2140
 9032TIP3    H148511   4.313   5.718  14.605 -0.3793  1.5778 -0.1903
 9032TIP3    H248512   4.449   5.689  14.664 -1.8423 -0.7132  2.2665
 9033TIP3   OH248513   3.165   1.622   1.543  0.8934  0.1425 -0.0698
 9033TIP3    H148514   3.233   1.652   1.603  0.6369  0.1153  0.2408
 9033TIP3    H248515   3.112   1.562   1.595  1.4617 -0.9341 -0.7184
 9034TIP3   OH248516   1.535   4.434  14.189  0.3589  0.4037  0.3958
 9034TIP3    H148517   1.621   4.476  14.186  1.0481 -0.9418  0.5221
 9034TIP3    H248518   1.518   4.419  14.283 -0.3867  1.3483  0.4356
 9035TIP3   OH248519   1.035   0.216  11.380  0.2228 -0.2059  0.3103
 9035TIP3    H148520   1.012   0.135  11.426  1.9198 -1.3036 -0.6544
 9035TIP3    H248521   1.105   0.190  11.320 -0.5365  1.5966 -1.4476
 9036TIP3   OH248522   5.407   2.926   4.994 -0.6116 -0.4263  0.1346
 9036TIP3    H148523   5.357   2.858   5.038 -1.0941 -0.2734 -0.1679
 9036TIP3    H248524   5.340   2.987   4.962 -0.1637  0.5940  1.0660
 9037TIP3   OH248525   3.504   0.394   6.047 -0.1278  0.4095  0.1114
 9037TIP3    H148526   3.565   0.325   6.074  0.1365  0.5563 -0.1019
 9037TIP3    H248527   3.525   0.468   6.104 -0.9220  0.0793  0.8597
 9038TIP3   OH248528   4.849   0.260  15.359  0.5826 -0.0861  0.8562
 9038TIP3    H148529   4.786   0.310  15.411 -0.6296 -0.3619 -0.2828
 9038TIP3    H248530   4.853   0.175  15.404  1.7028  0.5768  2.0782
 9039TIP3   OH248531   3.299   6.703   0.505  0.2367  0.1592 -0.2332
 9039TIP3    H148532   3.378   6.724   0.555  1.4065  0.8360 -2.2407
 9039TIP3    H248533   3.251   6.786   0.501  0.6436  0.3691 -1.0206
 9040TIP3   OH248534   4.882   5.417   1.965 -0.2665 -0.0206 -0.6999
 9040TIP3    H148535   4.967   5.379   1.986 -0.4225 -1.0969 -1.8857
 9040TIP3    H248536   4.828   5.401   2.042  0.5228  0.4764 -0.0265
 9041TIP3   OH248537   1.193   2.812  10.429 -0.8760  0.3404 -0.1946
 9041TIP3    H148538   1.172   2.899  10.462 -0.1579  0.2482  0.5300
 9041TIP3    H248539   1.285   2.818  10.404 -0.7847 -0.2504 -0.0100
 9042TIP3   OH248540   5.602   6.511   4.253 -0.1625  0.3020  0.1330
 9042TIP3    H148541   5.598   6.516   4.349 -0.2467 -0.6663  0.1892
 9042TIP3    H248542   5.690   6.478   4.235 -0.5181 -0.5679 -0.0646
 9043TIP3   OH248543   3.108   5.374  11.720 -0.2715 -0.3455  0.0955
 9043TIP3    H148544   3.096   5.461  11.757  0.7807 -0.2159  0.1400
 9043TIP3    H248545   3.031   5.325  11.750 -2.4170  1.3023 -2.2053
 9044TIP3   OH248546   5.251   4.250  16.986 -0.0911 -0.2018  0.0537
 9044TIP3    H148547   5.322   4.212  16.936 -0.6014 -1.6665  0.4014
 9044TIP3    H248548   5.273   4.343  16.993  2.3738 -0.7905  1.1317
 9045TIP3   OH248549   3.508   5.979  12.760  0.4258  0.1492 -0.3864
 9045TIP3    H148550   3.525   6.062  12.716  1.7266 -0.0258 -0.2415
 9045TIP3    H248551   3.537   5.913  12.698  1.0610 -0.1343  0.1948
 9046TIP3   OH248552   4.129   4.362   4.959 -0.3040  0.2123  0.3305
 9046TIP3    H148553   4.160   4.387   5.046 -0.9842 -0.2512  0.7164
 9046TIP3    H248554   4.084   4.279   4.972 -3.2998  1.6701  0.1735
 9047TIP3   OH248555   4.497   4.999   0.170  0.8453 -0.9189 -0.0980
 9047TIP3    H148556   4.509   4.905   0.155 -0.8485 -1.3067  0.6948
 9047TIP3    H248557   4.406   5.016   0.146  0.2637 -0.0830  2.4140
 9048TIP3   OH248558   3.961   1.552  11.764 -0.2335 -0.3442  0.5597
 9048TIP3    H148559   3.995   1.577  11.678  0.4504  1.5517  1.3311
 9048TIP3    H248560   3.952   1.456  11.759 -1.5262 -0.1979 -2.0702
 9049TIP3   OH248561   4.669   3.978   1.312 -0.0567  0.0243 -0.2511
 9049TIP3    H148562   4.649   3.908   1.250  0.2019  0.3633 -0.7173
 9049TIP3    H248563   4.599   3.972   1.377  0.5930 -1.4085  0.3630
 9050TIP3   OH248564   3.819   1.677   5.882  0.0381 -0.3060 -0.2711
 9050TIP3    H148565   3.731   1.696   5.848  0.2536 -0.9889 -1.2503
 9050TIP3    H248566   3.843   1.594   5.840  0.8467 -0.5145  0.5766
 9051TIP3   OH248567   1.454   1.394   3.299 -0.2775  0.1425 -0.1855
 9051TIP3    H148568   1.430   1.354   3.383  0.0178  0.4261  0.0361
 9051TIP3    H248569   1.407   1.343   3.234  0.9720 -1.2971 -0.0066
 9052TIP3   OH248570   4.127   2.819   5.903 -0.2409 -0.9866 -0.0169
 9052TIP3    H148571   4.172   2.795   5.823  1.9199  1.6028  0.3073
 9052TIP3    H248572   4.167   2.764   5.971  1.8501  0.5412  0.0878
 9053TIP3   OH248573   2.706   5.791   0.670 -0.1077 -0.2006  0.2147
 9053TIP3    H148574   2.766   5.718   0.652  1.0612  0.4171  1.4628
 9053TIP3    H248575   2.736   5.861   0.612  0.0708 -0.0573  0.4773
 9054TIP3   OH248576   3.708   2.935  12.034 -0.5502  0.0722 -0.3775
 9054TIP3    H148577   3.768   2.891  11.973 -1.1051 -1.0492 -0.1468
 9054TIP3    H248578   3.668   2.863  12.083 -0.0880  0.9234  1.3484
 9055TIP3   OH248579   4.258   1.136  11.460 -0.2232 -0.1868 -0.0318
 9055TIP3    H148580   4.224   1.202  11.400 -1.2377 -0.3578  0.3281
 9055TIP3    H248581   4.289   1.185  11.536  0.8584  0.0123 -0.5846
 9056TIP3   OH248582   5.676   1.846  14.504 -0.4009 -0.3515 -0.2125
 9056TIP3    H148583   5.737   1.852  14.431 -0.3385 -1.8563 -0.3149
 9056TIP3    H248584   5.711   1.776  14.559 -0.7262  0.3966  1.0040
 9057TIP3   OH248585   1.291   5.432   3.781  0.2513 -0.0869 -0.0206
 9057TIP3    H148586   1.218   5.468   3.830 -1.0159 -0.7307 -1.3528
 9057TIP3    H248587   1.361   5.498   3.790  0.2604 -0.3693  2.9044
 9058TIP3   OH248588   4.000   3.258   2.033 -0.4252  0.2861 -0.4499
 9058TIP3    H148589   4.002   3.351   2.054 -2.9874  0.6535 -1.5419
 9058TIP3    H248590   3.967   3.217   2.113  1.8094  0.0768  0.4565
 9059TIP3   OH248591   0.865   5.886   1.885 -0.1882  0.2529  0.8461
 9059TIP3    H148592   0.772   5.868   1.874 -0.0356 -0.0517 -0.1387
 9059TIP3    H248593   0.888   5.846   1.969 -0.3658 -2.2213 -0.2042
 9060TIP3   OH248594   5.365   4.724  15.250 -0.2212  0.1343 -0.0155
 9060TIP3    H148595   5.307   4.649  15.242  1.4794 -1.1517 -1.0408
 9060TIP3    H248596   5.356   4.771  15.167  2.3176 -1.7725 -1.5175
 9061TIP3   OH248597   1.003   3.993   6.865 -0.3522 -0.1429  0.3675
 9061TIP3    H148598   1.080   3.989   6.809 -1.5029  0.6855 -1.3810
 9061TIP3    H248599   1.029   4.047   6.939  0.5967  0.5630 -0.4591
 9062TIP3   OH248600   5.076   0.255   0.938  0.4523 -0.0110  0.6148
 9062TIP3    H148601   5.151   0.291   0.986  0.7866 -1.0795  0.9172
 9062TIP3    H248602   5.059   0.170   0.980 -1.5612  0.6206  1.2121
 9063TIP3   OH248603   4.860   2.662   5.201 -0.1310  0.3112  0.3609
 9063TIP3    H148604   4.815   2.727   5.147 -2.5301  0.6300  2.5549
 9063TIP3    H248605   4.947   2.700   5.216 -1.0635  2.4842  0.6230
 9064TIP3   OH248606   5.752   2.589   1.696  0.7459 -0.1354  0.0036
 9064TIP3    H148607   5.837   2.633   1.696 -0.8653  3.3697  1.7792
 9064TIP3    H248608   5.696   2.644   1.641 -0.7903 -1.5634  0.0465
 9065TIP3   OH248609   0.105   0.302   1.304 -0.2807  0.2367  0.4780
 9065TIP3    H148610   0.160   0.290   1.382 -0.3847  1.9899  0.8619
 9065TIP3    H248611   0.043   0.371   1.329 -1.6566 -0.5961 -0.4848
 9066TIP3   OH248612   3.199   6.075  12.496  0.0309 -0.2901  0.0202
 9066TIP3    H148613   3.269   6.026  12.452  1.3575  0.5409  1.1484
 9066TIP3    H248614   3.159   6.127  12.426  1.5611  0.3991 -0.3709
 9067TIP3   OH248615   3.440   6.372  14.594  0.3337 -0.3941  0.7853
 9067TIP3    H148616   3.483   6.287  14.589  0.5715 -0.2517  0.3506
 9067TIP3    H248617   3.504   6.434  14.558 -0.2262 -0.1762  0.1420
 9068TIP3   OH248618   3.325   5.093   1.613  0.1499 -0.0449  0.3848
 9068TIP3    H148619   3.418   5.076   1.597  0.1742  0.9519 -0.7077
 9068TIP3    H248620   3.287   5.107   1.526 -0.9282  0.0148  0.8422
 9069TIP3   OH248621   2.474   6.320   2.791  0.0655  0.0051  0.0544
 9069TIP3    H148622   2.381   6.306   2.811  0.4705 -1.9441  0.7798
 9069TIP3    H248623   2.493   6.408   2.824 -1.6466  0.6918 -0.6749
 9070TIP3   OH248624   6.745   4.409   3.232 -0.6756  0.1057 -0.2651
 9070TIP3    H148625   6.830   4.432   3.195 -0.1630 -0.0140  0.8105
 9070TIP3    H248626   6.706   4.349   3.168  0.3917 -0.4718 -0.3993
 9071TIP3   OH248627   2.023   6.741  14.522 -0.1142  0.5937 -0.9855
 9071TIP3    H148628   1.953   6.696  14.570  0.6890  0.3226 -0.0369
 9071TIP3    H248629   2.076   6.781  14.590  1.6465 -0.6484 -1.5636
 9072TIP3   OH248630   1.358   2.758  11.745  0.5439 -0.6372  0.1711
 9072TIP3    H148631   1.407   2.799  11.816 -2.3604  0.7183  1.5635
 9072TIP3    H248632   1.377   2.812  11.668 -0.7255  1.5164  1.2711
 9073TIP3   OH248633   3.701   6.711   4.351  0.0979  0.5217 -0.2323
 9073TIP3    H148634   3.633   6.777   4.364  0.7088  1.1625 -0.2221
 9073TIP3    H248635   3.761   6.723   4.424 -1.1242 -1.8176  1.2939
 9074TIP3   OH248636   0.150   3.577   3.970 -0.3376  0.4855  0.0037
 9074TIP3    H148637   0.215   3.510   3.952  0.2784  0.9185  0.5880
 9074TIP3    H248638   0.069   3.529   3.985 -0.3030 -0.0254 -1.3310
 9075TIP3   OH248639   1.825   1.662  16.876 -0.0934  0.5052  0.9751
 9075TIP3    H148640   1.765   1.735  16.862 -0.2505  0.5316  1.7257
 9075TIP3    H248641   1.829   1.652  16.971  1.4039  0.7673  0.9714
 9076TIP3   OH248642   4.626   4.178   1.868  0.1243  0.0595 -0.0687
 9076TIP3    H148643   4.682   4.102   1.887 -1.4886 -1.1161  0.1921
 9076TIP3    H248644   4.640   4.196   1.775 -1.1237 -2.0443 -0.7392
 9077TIP3   OH248645   2.943   1.545   2.481  0.3116 -0.2430  0.1054
 9077TIP3    H148646   3.029   1.532   2.522  0.0601 -0.4572  0.5761
 9077TIP3    H248647   2.957   1.522   2.389  0.7728 -0.2211  0.1666
 9078TIP3   OH248648   0.909   3.359  13.133  0.2257  0.1895  0.2771
 9078TIP3    H148649   0.885   3.267  13.138 -0.7638  0.1414 -3.0833
 9078TIP3    H248650   0.992   3.365  13.180  0.2322 -2.3549  0.7185
 9079TIP3   OH248651   3.139   5.692  16.461  0.5662  0.0973  0.0946
 9079TIP3    H148652   3.222   5.727  16.493 -0.6303  0.8443  2.5864
 9079TIP3    H248653   3.072   5.748  16.499 -1.2172 -1.9315  0.1856
 9080TIP3   OH248654   5.697   0.492   4.029  0.0973  0.4758 -0.2136
 9080TIP3    H148655   5.681   0.585   4.042 -1.1729  0.3640 -0.7752
 9080TIP3    H248656   5.649   0.471   3.948  0.1057 -0.7179  0.0745
 9081TIP3   OH248657   6.379   1.378  14.691 -0.3254 -0.2356 -0.0171
 9081TIP3    H148658   6.470   1.350  14.689  0.6638  2.3081  2.5406
 9081TIP3    H248659   6.383   1.471  14.715 -3.5348  0.6189 -2.1144
 9082TIP3   OH248660   1.323   6.322   1.012 -0.0968 -0.6207  0.4664
 9082TIP3    H148661   1.401   6.295   1.061 -0.1617  1.3638  1.7660
 9082TIP3    H248662   1.339   6.290   0.924  0.5017 -3.4270  1.4852
 9083TIP3   OH248663   3.899   6.314  16.461  0.2060  0.1587 -0.5056
 9083TIP3    H148664   3.834   6.301  16.392  0.0593 -1.0988 -0.1431
 9083TIP3    H248665   3.947   6.232  16.466  0.5897  0.4240  0.5067
 9084TIP3   OH248666   6.503   6.284  16.386 -0.3433  0.2317 -0.2695
 9084TIP3    H148667   6.546   6.213  16.433 -0.0204 -1.8398 -3.3756
 9084TIP3    H248668   6.574   6.328  16.339 -0.7564  1.6513  0.3776
 9085TIP3   OH248669   5.451   2.262  15.288 -0.2754  0.0422  0.1712
 9085TIP3    H148670   5.397   2.268  15.209  0.1742  0.0774 -0.1379
 9085TIP3    H248671   5.537   2.237  15.256 -0.2647 -0.6632  0.7234
 9086TIP3   OH248672   5.298   0.321  10.989 -0.1001  0.5536  0.3179
 9086TIP3    H148673   5.330   0.328  11.079  1.4535  0.1946 -0.1782
 9086TIP3    H248674   5.249   0.239  10.987 -0.2234  0.6141  0.8641
 9087TIP3   OH248675   6.546   5.580   2.879  0.7827 -0.0205  0.2441
 9087TIP3    H148676   6.588   5.528   2.948  1.6626 -0.8743 -0.9086
 9087TIP3    H248677   6.489   5.518   2.834 -1.5386  1.0386  1.5583
 9088TIP3   OH248678   0.166   2.100  15.395 -0.2772 -0.3089  0.9452
 9088TIP3    H148679   0.159   2.189  15.360 -0.7792 -0.6078  0.2615
 9088TIP3    H248680   0.231   2.057  15.339  0.3426 -0.2294  1.5929
 9089TIP3   OH248681   4.265   0.624   4.219  0.0633  0.0780  0.0051
 9089TIP3    H148682   4.225   0.682   4.153 -1.2921 -0.3567  0.4072
 9089TIP3    H248683   4.262   0.674   4.300  2.8835  1.1197 -0.4060
 9090TIP3   OH248684   1.476   3.664   5.131  0.0611 -0.0866  0.1710
 9090TIP3    H148685   1.472   3.568   5.133  1.4444 -0.1599  0.0958
 9090TIP3    H248686   1.395   3.690   5.086 -1.0980 -1.1329  1.5671
 9091TIP3   OH248687   4.778   4.200   4.352 -0.2172 -0.2266  0.0546
 9091TIP3    H148688   4.849   4.146   4.318  0.3266  0.8096 -0.4981
 9091TIP3    H248689   4.720   4.138   4.397  0.4098 -1.2539 -0.5159
 9092TIP3   OH248690   2.076   0.164  11.983 -0.1383  0.4989 -0.2340
 9092TIP3    H148691   2.023   0.090  12.011 -0.0605 -0.0162 -1.3788
 9092TIP3    H248692   2.148   0.124  11.933  1.2542  1.1790  1.1227
 9093TIP3   OH248693   0.991   4.779  14.137  0.1455 -0.0677  0.0560
 9093TIP3    H148694   0.900   4.751  14.139 -0.6487  2.3394  0.9767
 9093TIP3    H248695   1.031   4.738  14.214  0.4357 -2.6831 -1.3641
 9094TIP3   OH248696   0.501   0.897  15.756 -0.2159 -0.6205 -0.2252
 9094TIP3    H148697   0.492   0.851  15.839 -1.3474 -2.4181 -1.2654
 9094TIP3    H248698   0.533   0.984  15.779  3.2083 -2.2151  1.7828
 9095TIP3   OH248699   2.348   6.188   3.491 -0.2166  0.3424  0.7600
 9095TIP3    H148700   2.372   6.097   3.472 -1.0193  0.3196 -0.2461
 9095TIP3    H248701   2.328   6.188   3.584  1.0261 -0.2226  1.0416
 9096TIP3   OH248702   4.085   4.535  12.812 -0.1664 -0.2741 -0.3612
 9096TIP3    H148703   4.119   4.447  12.832  1.3047  0.4483  0.4983
 9096TIP3    H248704   4.049   4.527  12.724  0.5595 -1.5927 -0.5684
 9097TIP3   OH248705   3.716   4.582   2.902  0.1444  0.0149  0.0292
 9097TIP3    H148706   3.746   4.497   2.871  1.4829  0.2860  0.5170
 9097TIP3    H248707   3.680   4.565   2.989 -0.6768 -0.2268 -0.3470
 9098TIP3   OH248708   2.051   1.743   5.982 -0.0120 -0.2631 -0.1328
 9098TIP3    H148709   2.087   1.665   5.940  0.8971 -0.1646  0.4370
 9098TIP3    H248710   2.067   1.729   6.075  1.1543  1.0838 -0.0964
 9099TIP3   OH248711   2.017   2.209   5.900  0.3607  0.4780 -0.5069
 9099TIP3    H148712   1.987   2.125   5.867  0.8436  0.1518 -0.1389
 9099TIP3    H248713   2.043   2.258   5.822  2.6302 -0.7208 -0.6119
 9100TIP3   OH248714   4.763   6.362  11.605 -0.3855 -0.7240  0.2264
 9100TIP3    H148715   4.762   6.340  11.512  1.5737 -0.3867  0.0720
 9100TIP3    H248716   4.795   6.452  11.608 -1.1872 -0.4577  1.1976
 9101TIP3   OH248717   5.781   6.374   2.324 -0.0650  0.1484  0.9151
 9101TIP3    H148718   5.698   6.330   2.341 -0.2071 -0.1643 -0.4751
 9101TIP3    H248719   5.756   6.455   2.278  0.4101 -0.2241 -0.0273
 9102TIP3   OH248720   1.761   4.831  13.577  0.4301  0.0364 -0.2177
 9102TIP3    H148721   1.741   4.902  13.515  0.6050 -0.0361 -0.3588
 9102TIP3    H248722   1.675   4.803  13.609  0.3006 -0.2548 -0.8017
 9103TIP3   OH248723   3.302   0.018  12.178 -0.2141 -0.5699  0.2154
 9103TIP3    H148724   3.390   0.051  12.192 -1.3667  2.8065  0.5695
 9103TIP3    H248725   3.289   0.023  12.083 -1.4980  3.9941  0.3747
 9104TIP3   OH248726   4.400   0.964   4.942  0.1292  0.2100 -0.4111
 9104TIP3    H148727   4.466   0.945   4.875 -0.0112  0.7869 -0.7238
 9104TIP3    H248728   4.403   1.059   4.950  0.2229  0.1330  0.4860
 9105TIP3   OH248729   6.379   3.238  12.503 -0.2994  0.6447 -0.2135
 9105TIP3    H148730   6.412   3.247  12.414 -1.3037 -1.5488 -0.8865
 9105TIP3    H248731   6.285   3.255  12.496 -0.3519  0.6762  0.4667
 9106TIP3   OH248732   5.183   4.528   5.523 -0.4852  0.0196  0.8225
 9106TIP3    H148733   5.158   4.479   5.445  0.4291  1.8282 -0.6842
 9106TIP3    H248734   5.221   4.463   5.582 -0.9889 -1.3458 -0.3266
 9107TIP3   OH248735   0.702   0.218   3.352 -0.2797  0.5525  0.1221
 9107TIP3    H148736   0.780   0.257   3.391 -0.1996  0.0225  0.5180
 9107TIP3    H248737   0.650   0.189   3.428  0.4914 -1.6955 -0.1272
 9108TIP3   OH248738   3.658   4.969   4.460  0.0991  0.0718 -0.3607
 9108TIP3    H148739   3.683   4.923   4.380 -0.3801  1.5974 -1.4296
 9108TIP3    H248740   3.598   4.909   4.504 -1.9933  0.3255 -2.6322
 9109TIP3   OH248741   3.353   4.474   2.795  0.2723 -0.2395 -0.7253
 9109TIP3    H148742   3.284   4.408   2.792 -0.2359  0.1385  1.2959
 9109TIP3    H248743   3.307   4.557   2.806  0.9922  0.0753  0.0669
 9110TIP3   OH248744   0.361   6.077   2.728  0.2047 -0.2676  0.4623
 9110TIP3    H148745   0.359   6.030   2.645 -1.1431  2.2193 -1.0383
 9110TIP3    H248746   0.452   6.071   2.757  0.5636 -1.7333 -0.8299
 9111TIP3   OH248747   4.044   4.140  12.667 -0.6886 -0.6325 -0.2082
 9111TIP3    H148748   3.955   4.124  12.638 -0.7733 -3.0041  1.0869
 9111TIP3    H248749   4.094   4.064  12.637  0.6441  0.0885  0.0818
 9112TIP3   OH248750   5.354   6.377  12.893 -0.1058  0.4226 -0.4285
 9112TIP3    H148751   5.371   6.310  12.958  0.8297  1.0569  0.0118
 9112TIP3    H248752   5.259   6.375  12.880 -0.1422 -0.6486 -0.0851
 9113TIP3   OH248753   5.085   6.437  12.843 -0.1070 -0.3281 -0.1445
 9113TIP3    H148754   4.993   6.422  12.865 -0.2336 -1.4509 -1.2876
 9113TIP3    H248755   5.084   6.453  12.748  1.0922 -2.8773 -0.6711
 9114TIP3   OH248756   2.934   5.486   5.761 -1.0474 -0.0445 -0.5615
 9114TIP3    H148757   2.877   5.523   5.693 -1.8302 -0.5532 -0.1988
 9114TIP3    H248758   3.016   5.466   5.715 -0.6526  1.9049 -0.8114
 9115TIP3   OH248759   4.662   2.399  13.310  1.0985 -0.3917 -0.4492
 9115TIP3    H148760   4.754   2.416  13.333  1.2372  0.4398 -1.5152
 9115TIP3    H248761   4.626   2.356  13.387  1.9226  0.8650  0.7040
 9116TIP3   OH248762   5.866   2.252  13.746  0.5890  0.4236  0.0864
 9116TIP3    H148763   5.836   2.218  13.662  0.2855 -0.1132  0.4100
 9116TIP3    H248764   5.933   2.316  13.723  1.4684 -0.6807 -0.5175
 9117TIP3   OH248765   1.746   5.153  11.014  0.4235 -0.1240 -0.0448
 9117TIP3    H148766   1.787   5.239  11.029  0.8217  0.0217 -1.7735
 9117TIP3    H248767   1.820   5.093  11.004  0.4796  0.3192 -4.3025
 9118TIP3   OH248768   5.915   4.094  16.185 -0.2413 -0.2435 -0.1663
 9118TIP3    H148769   5.913   3.998  16.183 -0.0899 -0.2512  0.0081
 9118TIP3    H248770   5.991   4.115  16.238 -0.5742 -0.0280  0.2293
 9119TIP3   OH248771   5.944   4.162  13.909  0.4586  0.2226  0.3150
 9119TIP3    H148772   5.980   4.084  13.951 -1.1456 -0.2047  0.9880
 9119TIP3    H248773   5.923   4.221  13.981 -0.2655  0.4028 -0.0284
 9120TIP3   OH248774   5.356   5.403   4.969  0.6201  0.1362  0.4040
 9120TIP3    H148775   5.436   5.442   4.933 -0.2762 -0.9122 -3.2125
 9120TIP3    H248776   5.302   5.477   4.994 -0.0243  1.4166 -3.9103
 9121TIP3   OH248777   0.101   5.230   4.023 -0.4777  0.1463  0.0313
 9121TIP3    H148778   0.116   5.153   3.970 -1.2383  0.0482 -0.0426
 9121TIP3    H248779   0.056   5.292   3.966 -0.2181  0.5056  0.2031
 9122TIP3   OH248780   4.277   0.773   1.668  0.0804 -0.6245 -0.1163
 9122TIP3    H148781   4.230   0.838   1.614 -0.1429 -1.7055 -1.2815
 9122TIP3    H248782   4.348   0.822   1.707 -0.8656  0.6260  0.1081
 9123TIP3   OH248783   4.230   0.603  16.022  0.2356  0.6173 -0.0868
 9123TIP3    H148784   4.230   0.608  16.118  1.0931 -1.2175  0.0680
 9123TIP3    H248785   4.311   0.647  15.996  0.7009 -0.0649  0.1608
 9124TIP3   OH248786   5.199   0.400   5.730  0.1536 -0.0125 -0.2599
 9124TIP3    H148787   5.213   0.383   5.637  1.0202 -2.6343  0.2434
 9124TIP3    H248788   5.287   0.397   5.768  0.0509  2.9650  0.4678
 9125TIP3   OH248789   2.358   3.252   2.995 -0.3429  0.0720 -0.4828
 9125TIP3    H148790   2.348   3.262   2.901  1.5560  1.2401 -0.6054
 9125TIP3    H248791   2.407   3.170   3.005 -3.2405 -1.7781 -0.2626
 9126TIP3   OH248792   1.574   6.370  16.614 -0.0181  0.3556  0.1531
 9126TIP3    H148793   1.584   6.288  16.566  2.4951 -0.2737  1.5771
 9126TIP3    H248794   1.589   6.439  16.550 -0.0374 -0.3582 -0.6288
 9127TIP3   OH248795   2.085   5.383   2.095  0.0222  0.1437 -0.5173
 9127TIP3    H148796   2.040   5.460   2.061 -1.5010 -0.3739  0.2091
 9127TIP3    H248797   2.043   5.365   2.179  1.4328 -0.5506  0.0770
 9128TIP3   OH248798   1.542   6.779  11.973  0.8403  0.4751  0.2417
 9128TIP3    H148799   1.512   6.707  11.917  1.9634  0.7342 -0.7224
 9128TIP3    H248800   1.493   6.856  11.942  0.5230  0.3707  0.4764
 9129TIP3   OH248801   6.618   1.712   2.968 -0.2357 -0.5048 -0.1511
 9129TIP3    H148802   6.663   1.796   2.968 -1.2431  0.0539  0.6013
 9129TIP3    H248803   6.675   1.654   3.018  1.1100 -0.6613 -1.7690
 9130TIP3   OH248804   6.095   4.591   3.485  0.1524  0.0568  0.3774
 9130TIP3    H148805   6.141   4.508   3.489  1.5139  0.6958 -1.0023
 9130TIP3    H248806   6.003   4.568   3.496  0.6332 -1.4245  1.7091
 9131TIP3   OH248807   5.267   1.035  10.635 -0.2108  0.0135  0.0368
 9131TIP3    H148808   5.331   0.997  10.575 -0.7612 -0.3979 -0.3030
 9131TIP3    H248809   5.233   1.112  10.589  0.0072  0.2095  0.2000
 9132TIP3   OH248810   5.792   1.265   5.951  0.0252  0.3513  0.4185
 9132TIP3    H148811   5.870   1.292   5.999  1.5522 -0.1773 -1.6254
 9132TIP3    H248812   5.822   1.193   5.895 -1.8889  0.2562 -0.5741
 9133TIP3   OH248813   5.493   2.688   4.133  1.0586 -0.0265  0.6667
 9133TIP3    H148814   5.445   2.649   4.206 -1.0680  1.5245  0.1747
 9133TIP3    H248815   5.567   2.629   4.119 -0.0110 -1.8585  2.2655
 9134TIP3   OH248816   3.168   4.079  13.548  0.5873 -0.1016 -0.0394
 9134TIP3    H148817   3.208   4.003  13.506 -0.6444 -1.9585  1.9386
 9134TIP3    H248818   3.158   4.053  13.639 -1.9151  1.5604  0.2536
 9135TIP3   OH248819   6.101   0.877  15.098 -0.0219 -0.3545 -0.7040
 9135TIP3    H148820   6.133   0.844  15.014  0.5822 -1.1653 -0.1621
 9135TIP3    H248821   6.033   0.816  15.124  1.0031 -1.1433  0.2343
 9136TIP3   OH248822   4.990   2.283   0.170  0.3034  0.4712  0.5278
 9136TIP3    H148823   5.028   2.334   0.099 -1.8043  2.5573  0.7877
 9136TIP3    H248824   5.061   2.271   0.233  1.9018 -0.4713 -1.3627
 9137TIP3   OH248825   5.084   3.537   2.116 -0.0628  0.4814 -0.0676
 9137TIP3    H148826   5.077   3.575   2.028 -1.4432 -1.4986 -0.9012
 9137TIP3    H248827   4.994   3.519   2.141  0.4525 -1.7656  0.4186
 9138TIP3   OH248828   1.473   5.067   1.271 -0.2772 -0.1193  0.1992
 9138TIP3    H148829   1.394   5.119   1.285  0.6348  1.2859  0.3713
 9138TIP3    H248830   1.495   5.031   1.357 -0.8792 -0.7643  0.0909
 9139TIP3   OH248831   2.050   2.513  12.429  0.1062  0.8417 -0.1909
 9139TIP3    H148832   2.014   2.439  12.478  0.1960  0.8070 -0.1773
 9139TIP3    H248833   2.054   2.482  12.339 -1.4033  1.3883 -0.4781
 9140TIP3   OH248834   0.303   6.366  14.464 -0.1335  0.1494 -0.1723
 9140TIP3    H148835   0.257   6.309  14.525  0.8570  1.0383  1.5164
 9140TIP3    H248836   0.234   6.417  14.421 -0.8777 -0.6996  0.0022
 9141TIP3   OH248837   3.460   2.426   2.469 -0.4823 -0.3537 -0.0135
 9141TIP3    H148838   3.524   2.431   2.398  0.1023  0.8180  0.5717
 9141TIP3    H248839   3.414   2.510   2.467  0.9519  0.5861  2.2583
 9142TIP3   OH248840   5.275   4.793  13.202 -0.3535 -0.4838  0.0526
 9142TIP3    H148841   5.326   4.852  13.257 -0.2201  1.2222 -1.7858
 9142TIP3    H248842   5.322   4.791  13.118 -2.8885  0.6619 -1.5292
 9143TIP3   OH248843   6.418   4.784  13.550 -0.5758  0.1659 -0.3554
 9143TIP3    H148844   6.379   4.722  13.612 -0.8215 -0.9976 -1.6424
 9143TIP3    H248845   6.478   4.835  13.604 -1.7813  0.1202  1.1157
 9144TIP3   OH248846   4.698   4.157  13.199 -0.0326  0.3889  0.3331
 9144TIP3    H148847   4.713   4.075  13.245 -0.2870 -0.0854 -0.4068
 9144TIP3    H248848   4.690   4.132  13.107  0.2030  1.2804  0.0592
 9145TIP3   OH248849   6.611   2.449   5.542  0.4913  0.3738  0.0719
 9145TIP3    H148850   6.547   2.438   5.472 -0.9669 -0.7286  1.4909
 9145TIP3    H248851   6.635   2.360   5.567  0.7622  0.7289  1.1395
 9146TIP3   OH248852   1.355   0.479  14.317 -0.6069  0.5813  0.0933
 9146TIP3    H148853   1.326   0.464  14.227  1.0923  2.0924 -0.7845
 9146TIP3    H248854   1.450   0.489  14.309 -0.7891  5.8426  1.1534
 9147TIP3   OH248855   3.761   1.528  15.305  0.0520 -0.1703 -0.1618
 9147TIP3    H148856   3.684   1.557  15.256 -0.7841 -0.9822  0.6274
 9147TIP3    H248857   3.793   1.452  15.257 -0.5325 -0.7265  0.3076
 9148TIP3   OH248858   1.011   0.414   5.715  0.4242 -0.0227  0.1702
 9148TIP3    H148859   0.945   0.407   5.645  0.1068  1.1230  0.3333
 9148TIP3    H248860   1.047   0.502   5.704 -0.7036  0.7853  2.3762
 9149TIP3   OH248861   0.334   5.527   3.784 -0.6793 -0.2398 -0.1975
 9149TIP3    H148862   0.286   5.503   3.705 -1.0714  1.7320 -0.5987
 9149TIP3    H248863   0.267   5.531   3.852 -0.7278  0.3396 -0.2766
 9150TIP3   OH248864   3.926   4.882  14.131 -0.1117  0.3722  0.0021
 9150TIP3    H148865   3.851   4.827  14.157 -1.4933  1.4375 -1.5176
 9150TIP3    H248866   3.929   4.951  14.197 -0.0813 -0.0036  0.3997
 9151TIP3   OH248867   1.925   2.904   3.144  0.1707 -0.0080  0.0179
 9151TIP3    H148868   1.876   2.823   3.149  2.9102 -2.0062 -2.3436
 9151TIP3    H248869   1.925   2.938   3.234 -2.6957 -1.5135  0.6792
 9152TIP3   OH248870   3.005   2.980  13.218  0.1592  0.2777  0.3531
 9152TIP3    H148871   3.080   3.038  13.208 -0.6344  1.1267 -0.9599
 9152TIP3    H248872   2.929   3.037  13.216 -0.5516 -0.5902  1.4265
 9153TIP3   OH248873   3.269   5.293  16.883 -0.0138 -0.0380  0.1626
 9153TIP3    H148874   3.288   5.373  16.932  0.2755  0.3088 -0.5013
 9153TIP3    H248875   3.191   5.314  16.832 -0.4446 -0.4719  0.6334
 9154TIP3   OH248876   1.146   5.508   1.257  0.5530 -0.2440 -0.0199
 9154TIP3    H148877   1.207   5.442   1.224 -1.2178 -2.6375  1.2313
 9154TIP3    H248878   1.080   5.516   1.188  1.2217  0.9649 -0.5582
 9155TIP3   OH248879   4.596   0.393  15.926 -0.0883 -0.0538 -0.1112
 9155TIP3    H148880   4.558   0.478  15.950 -1.3979 -0.9978  1.3258
 9155TIP3    H248881   4.652   0.413  15.850  0.9264  2.3470  1.1572
 9156TIP3   OH248882   1.601   0.809  11.229 -0.3247 -0.4579 -0.3158
 9156TIP3    H148883   1.661   0.752  11.277  1.2293  2.3265  1.2328
 9156TIP3    H248884   1.515   0.789  11.267  0.0175 -2.2277 -0.3496
 9157TIP3   OH248885   6.254   0.257   1.381 -0.0677 -0.1720  0.3862
 9157TIP3    H148886   6.279   0.184   1.325 -0.0400  0.5426 -0.5453
 9157TIP3    H248887   6.300   0.240   1.464  0.6633 -0.7278 -0.1201
 9158TIP3   OH248888   2.233   2.529   6.272 -0.0370 -0.0295  0.5551
 9158TIP3    H148889   2.149   2.571   6.294  0.8980  1.7181  1.0551
 9158TIP3    H248890   2.295   2.566   6.336  1.7830  1.3018 -1.8131
 9159TIP3   OH248891   6.444   5.296   6.227  0.0191  0.6771  0.1542
 9159TIP3    H148892   6.537   5.278   6.237 -0.1116  0.0877  0.3586
 9159TIP3    H248893   6.415   5.324   6.314 -0.0949  0.3962  0.2058
 9160TIP3   OH248894   0.993   1.888   2.978 -0.3028  0.1312  0.5695
 9160TIP3    H148895   0.945   1.806   2.968 -0.4857  0.2310  0.6244
 9160TIP3    H248896   1.085   1.862   2.982 -0.2737  0.0170 -0.5488
 9161TIP3   OH248897   3.023   4.217   6.263 -0.4290 -0.0149 -0.5246
 9161TIP3    H148898   2.930   4.222   6.244 -0.8547 -2.3624  0.6084
 9161TIP3    H248899   3.032   4.142   6.322  1.9648  1.1555  0.7574
 9162TIP3   OH248900   3.321   3.939  12.846  0.0927 -0.1130 -0.8250
 9162TIP3    H148901   3.374   4.018  12.853 -0.1581  0.1756 -2.0421
 9162TIP3    H248902   3.350   3.884  12.919 -0.1767  1.3514  0.4506
 9163TIP3   OH248903   2.326   1.769  13.070  0.0682 -0.3028  0.3291
 9163TIP3    H148904   2.341   1.788  13.163  0.0967  1.0880  0.0484
 9163TIP3    H248905   2.405   1.801  13.026 -0.6845  0.6355 -0.3654
 9164TIP3   OH248906   6.649   4.310   2.795  0.4800 -0.3779 -0.0422
 9164TIP3    H148907   6.677   4.228   2.754 -0.1595 -0.0752 -1.1296
 9164TIP3    H248908   6.581   4.343   2.737 -1.7073 -0.7670  2.1747
 9165TIP3   OH248909   3.600   0.448   2.325 -0.6138 -0.3718  0.2030
 9165TIP3    H148910   3.665   0.504   2.283 -0.7065  0.7510  1.4995
 9165TIP3    H248911   3.617   0.361   2.290 -0.0331  0.3331 -1.3585
 9166TIP3   OH248912   3.723   4.831  17.119 -0.2126 -0.1712 -0.1451
 9166TIP3    H148913   3.794   4.881  17.079  1.5649 -2.4404  0.0058
 9166TIP3    H248914   3.729   4.850  17.213  0.5929 -0.7919 -0.0621
 9167TIP3   OH248915   6.506   4.159  14.599 -0.2140 -0.2965  0.5963
 9167TIP3    H148916   6.480   4.107  14.524 -1.0282  0.0524  0.6258
 9167TIP3    H248917   6.466   4.115  14.674  0.4737 -0.5627  0.8200
 9168TIP3   OH248918   6.473   2.280  16.226 -0.3953 -0.0482 -0.4497
 9168TIP3    H148919   6.396   2.223  16.233  0.2695 -0.8991  0.0159
 9168TIP3    H248920   6.448   2.344  16.159 -0.9675 -1.1896 -1.3720
 9169TIP3   OH248921   4.800   4.353  12.573  0.0709  0.0983 -0.1143
 9169TIP3    H148922   4.752   4.431  12.601  0.2759 -0.6251  2.5411
 9169TIP3    H248923   4.733   4.285  12.565  0.3340 -0.4812  1.9199
 9170TIP3   OH248924   0.003   3.777   2.138 -0.0534  0.4731 -0.4437
 9170TIP3    H148925  -0.091   3.793   2.150 -0.0372  0.1688  0.1179
 9170TIP3    H248926   0.037   3.861   2.108 -0.9132 -0.0671 -3.2246
 9171TIP3   OH248927   3.641   0.943  14.605 -0.0172  0.7944  0.2469
 9171TIP3    H148928   3.631   0.979  14.693  0.9221  0.6013  0.4401
 9171TIP3    H248929   3.713   0.993  14.567  0.9372 -0.4886  0.3115
 9172TIP3   OH248930   6.738   3.967  10.395 -0.3231  0.3101  0.2647
 9172TIP3    H148931   6.653   3.930  10.371 -1.1775  3.0484 -1.3682
 9172TIP3    H248932   6.781   3.898  10.446 -3.2093 -1.4241  0.5441
 9173TIP3   OH248933   6.553   3.672   2.303  0.4713 -0.2206 -0.0488
 9173TIP3    H148934   6.474   3.654   2.355  0.2797  0.4701 -0.0969
 9173TIP3    H248935   6.621   3.689   2.367  1.0154 -2.4748  0.0428
 9174TIP3   OH248936   1.450   1.420   4.020  0.0893  0.0698 -0.1118
 9174TIP3    H148937   1.385   1.484   4.048  0.1450 -0.0964  0.4027
 9174TIP3    H248938   1.476   1.449   3.933 -0.2583  0.4558 -0.0903
 9175TIP3   OH248939   3.553   3.510  16.191 -0.5004 -0.4128  0.1483
 9175TIP3    H148940   3.534   3.431  16.140 -0.6435  0.3575 -1.0341
 9175TIP3    H248941   3.594   3.569  16.128  0.6335  0.0565  1.2805
 9176TIP3   OH248942   5.315   5.332  16.935 -0.1482 -0.2522 -0.2345
 9176TIP3    H148943   5.270   5.250  16.915  0.1800 -0.0741 -1.9027
 9176TIP3    H248944   5.353   5.359  16.851  2.2171  0.1211  0.8676
 9177TIP3   OH248945   0.605   6.229  14.994  0.6297 -0.5315 -0.0095
 9177TIP3    H148946   0.517   6.261  15.014  0.1913 -1.8615  0.3392
 9177TIP3    H248947   0.622   6.164  15.062  2.3306  0.4567  0.5488
 9178TIP3   OH248948   5.439   2.716   2.152 -0.6414  0.5529  0.1883
 9178TIP3    H148949   5.453   2.809   2.136  0.5365  1.1407  3.7548
 9178TIP3    H248950   5.507   2.691   2.215  0.3259 -3.2672 -2.0006
 9179TIP3   OH248951   0.756   2.959   4.560 -0.3075  0.2815 -0.7642
 9179TIP3    H148952   0.806   2.909   4.495  1.0476  1.0945 -0.4014
 9179TIP3    H248953   0.742   2.898   4.632 -0.1216 -0.0653 -1.0189
 9180TIP3   OH248954   4.283   1.836  15.528  0.1736 -0.4571 -0.2933
 9180TIP3    H148955   4.234   1.885  15.594  1.1581  0.0574  0.0753
 9180TIP3    H248956   4.226   1.762  15.506 -0.8024  0.1715  0.0492
 9181TIP3   OH248957   4.045   2.409  13.388  0.5804  0.0099 -0.5547
 9181TIP3    H148958   3.984   2.393  13.461 -0.1346  1.7072 -0.7458
 9181TIP3    H248959   4.131   2.413  13.430  0.2086  0.6699  0.1642
 9182TIP3   OH248960   4.688   2.344  12.635  0.5224  0.0516 -0.1798
 9182TIP3    H148961   4.746   2.268  12.627  1.8420  1.0047 -0.0216
 9182TIP3    H248962   4.698   2.373  12.725  0.4230  0.7028 -0.3722
 9183TIP3   OH248963   3.141   0.400  17.055 -0.0712  0.0077  0.0066
 9183TIP3    H148964   3.180   0.316  17.028 -2.7427 -1.0094 -0.9916
 9183TIP3    H248965   3.079   0.421  16.985  0.1991  2.6262  0.4832
 9184TIP3   OH248966   4.607   2.356  15.378  0.0849 -0.2428  0.4249
 9184TIP3    H148967   4.572   2.419  15.315  0.0080 -1.0326 -0.3392
 9184TIP3    H248968   4.562   2.377  15.460 -0.6842  0.0465 -0.0593
 9185TIP3   OH248969   6.673   1.618  15.619  0.4254 -0.0785 -0.3793
 9185TIP3    H148970   6.659   1.700  15.572  0.3729  0.6003  0.7670
 9185TIP3    H248971   6.620   1.626  15.698 -0.1639 -1.5419 -0.5807
 9186TIP3   OH248972   2.203   4.948  17.004  0.1438 -0.2616 -0.7317
 9186TIP3    H148973   2.183   5.025  17.057  2.4449  0.7928 -1.2565
 9186TIP3    H248974   2.287   4.969  16.962  1.3486 -3.4025 -0.2068
 9187TIP3   OH248975   3.862   1.816  12.257  0.1188 -0.2479  0.1682
 9187TIP3    H148976   3.830   1.881  12.320 -3.4715 -2.0340  0.4847
 9187TIP3    H248977   3.857   1.860  12.172  0.4960  0.7363  0.6414
 9188TIP3   OH248978   3.209   0.618   3.412  0.1125  0.0071  0.0643
 9188TIP3    H148979   3.219   0.685   3.480 -0.2057 -1.0000  1.1338
 9188TIP3    H248980   3.194   0.536   3.460 -1.2577 -0.5606 -1.2337
 9189TIP3   OH248981   1.182   5.029  15.610  0.0001 -0.3544 -0.3801
 9189TIP3    H148982   1.184   5.075  15.694 -0.0634  0.4669 -0.8207
 9189TIP3    H248983   1.246   5.075  15.555 -0.3047 -0.5815 -0.9379
 9190TIP3   OH248984   1.979   0.945  11.440 -0.1207  0.4379 -0.2075
 9190TIP3    H148985   1.885   0.926  11.436 -0.0662  0.1955 -0.3337
 9190TIP3    H248986   2.021   0.865  11.408  0.0935  1.0007 -1.3560
 9191TIP3   OH248987   0.216   4.146   2.522 -0.1061 -0.2468 -0.0411
 9191TIP3    H148988   0.151   4.161   2.591  0.3987 -0.1941  0.4303
 9191TIP3    H248989   0.269   4.225   2.521 -1.3520  0.6276 -1.8979
 9192TIP3   OH248990   5.394   0.659  11.412  0.4530  0.7991  0.2745
 9192TIP3    H148991   5.352   0.584  11.454 -0.2514  0.8886 -0.2593
 9192TIP3    H248992   5.443   0.701  11.483 -0.3354  0.6788  0.9150
 9193TIP3   OH248993   4.370   4.097  15.720  0.3573  0.0537 -0.3475
 9193TIP3    H148994   4.398   4.017  15.675  0.4374 -0.9187  1.3152
 9193TIP3    H248995   4.389   4.079  15.812 -0.5529  1.6112  0.1720
 9194TIP3   OH248996   3.825   1.617   4.063 -0.1296  0.0258 -0.0284
 9194TIP3    H148997   3.913   1.581   4.068 -0.6481 -1.2158  0.8257
 9194TIP3    H248998   3.831   1.687   3.999  1.3166 -0.5001 -0.5090
 9195TIP3   OH248999   4.836   4.275  14.626  0.2634 -0.4460  0.0128
 9195TIP3    H149000   4.752   4.307  14.658  0.0877 -2.0668  1.3681
 9195TIP3    H249001   4.823   4.259  14.533 -0.2022  1.4529 -0.2857
 9196TIP3   OH249002   1.313   5.793  14.899 -0.1859  0.0066  0.5258
 9196TIP3    H149003   1.298   5.847  14.977 -0.9012  0.2722  0.2202
 9196TIP3    H249004   1.348   5.854  14.834  0.7786 -0.2961  0.7528
 9197TIP3   OH249005   4.944   5.320  13.671 -0.3185 -0.0279 -0.3027
 9197TIP3    H149006   4.856   5.312  13.707 -0.9216 -0.4414 -1.7857
 9197TIP3    H249007   4.963   5.233  13.636 -0.6351  0.8329 -2.8213
 9198TIP3   OH249008   0.342   3.019   0.899 -0.2674 -0.6199  0.1511
 9198TIP3    H149009   0.302   2.963   0.833 -3.1816  0.7008  0.6425
 9198TIP3    H249010   0.349   3.105   0.857 -0.8044 -0.1164  1.0487
 9199TIP3   OH249011   1.124   4.558  15.175  0.2234  0.3748  0.1935
 9199TIP3    H149012   1.085   4.497  15.239 -1.4150  0.0242 -1.0593
 9199TIP3    H249013   1.093   4.526  15.091  0.5220  2.1218 -0.6134
 9200TIP3   OH249014   2.681   1.714   1.049 -0.3580 -0.0279  0.4251
 9200TIP3    H149015   2.626   1.758   1.114 -0.0763  0.4309  0.3536
 9200TIP3    H249016   2.665   1.621   1.064 -0.8381  0.0913  0.6806
 9201TIP3   OH249017   5.619   6.444   5.812 -0.4892 -0.3578  0.0813
 9201TIP3    H149018   5.597   6.428   5.903 -2.1862 -0.4939 -0.3130
 9201TIP3    H249019   5.713   6.424   5.805 -0.0001  0.9590  2.0608
 9202TIP3   OH249020   5.062   3.158  13.004  0.2739 -0.0850  0.5927
 9202TIP3    H149021   5.105   3.113  12.931  0.2093  2.0344 -0.8222
 9202TIP3    H249022   5.134   3.190  13.058  0.4436  1.2581 -0.3977
 9203TIP3   OH249023   1.848   0.097   1.732  0.6915 -0.0642  0.1686
 9203TIP3    H149024   1.922   0.092   1.672  0.2418  0.7099 -0.4643
 9203TIP3    H249025   1.829   0.006   1.755  0.5317 -0.4149 -1.2757
 9204TIP3   OH249026   0.957   6.505   0.189 -0.5182  0.3813  0.2857
 9204TIP3    H149027   1.005   6.583   0.162 -0.1081 -0.3609 -1.2608
 9204TIP3    H249028   0.868   6.536   0.206 -0.9284  0.9051 -2.3663
 9205TIP3   OH249029   5.393   5.419  15.031  0.5107 -0.3689  0.1091
 9205TIP3    H149030   5.469   5.367  15.006  1.9089 -0.1923  3.4588
 9205TIP3    H249031   5.383   5.482  14.960  3.3290 -0.5986 -0.6247
 9206TIP3   OH249032   3.815   1.234   5.489  0.0850 -0.4756  0.5204
 9206TIP3    H149033   3.790   1.170   5.422  0.7078  0.3735 -0.5386
 9206TIP3    H249034   3.908   1.217   5.505  0.1581 -0.0797  0.5163
 9207TIP3   OH249035   0.600   4.264  14.923  0.2340  0.1503  0.5312
 9207TIP3    H149036   0.649   4.194  14.968 -0.0426  0.3225  1.1107
 9207TIP3    H249037   0.589   4.231  14.834 -1.7191 -1.5222  1.3190
 9208TIP3   OH249038   1.287   4.504  14.111  0.1197 -0.6621  0.4085
 9208TIP3    H149039   1.378   4.485  14.133 -0.4197 -2.6011  1.1682
 9208TIP3    H249040   1.236   4.442  14.163 -1.4684 -2.0228 -2.5554
 9209TIP3   OH249041   5.464   5.804  13.617 -0.2551  0.6367 -0.2543
 9209TIP3    H149042   5.474   5.854  13.536 -1.7740 -1.5725 -1.9346
 9209TIP3    H249043   5.537   5.741  13.615 -0.6269  0.2025 -0.2201
 9210TIP3   OH249044   4.959   3.773  14.297 -0.0807 -0.3088 -0.1986
 9210TIP3    H149045   4.947   3.772  14.202 -2.9719 -1.2081  0.0758
 9210TIP3    H249046   4.927   3.859  14.324  0.1618 -0.2910  0.0363
 9211TIP3   OH249047   2.519   5.770   2.135  0.1110  0.2972 -0.1435
 9211TIP3    H149048   2.447   5.712   2.158  1.4575 -2.2471 -1.8323
 9211TIP3    H249049   2.589   5.711   2.105  3.1510  2.5440  1.8732
 9212TIP3   OH249050   0.956   5.637  12.554  0.6246  0.2460 -0.1767
 9212TIP3    H149051   0.948   5.609  12.463 -2.3005 -1.1139  0.3753
 9212TIP3    H249052   0.995   5.563  12.599 -0.4244 -0.1886  0.0656
 9213TIP3   OH249053   0.714   0.729  11.387  0.3171 -0.2411  0.4926
 9213TIP3    H149054   0.694   0.677  11.309 -1.6497  2.2102 -0.8025
 9213TIP3    H249055   0.628   0.757  11.419  1.2458  1.9770  1.2266
 9214TIP3   OH249056   6.395   3.976  10.469  0.2373 -0.9893 -0.4195
 9214TIP3    H149057   6.319   4.008  10.420  0.3574 -0.5444 -0.3239
 9214TIP3    H249058   6.413   3.890  10.432  0.8231 -0.3347 -1.7173
 9215TIP3   OH249059   4.478   6.127   6.084 -0.0279  0.0722  0.9284
 9215TIP3    H149060   4.393   6.125   6.128  0.6377  0.5273  2.2564
 9215TIP3    H249061   4.520   6.045   6.110 -1.1992 -1.7291 -2.1960
 9216TIP3   OH249062   6.129   4.167  13.289 -0.1147  0.3715  0.1998
 9216TIP3    H149063   6.138   4.259  13.266 -2.7746  1.2321  2.0710
 9216TIP3    H249064   6.045   4.141  13.250  0.5149 -1.2347 -0.1522
 9217TIP3   OH249065   3.152   0.579   5.069  0.2220  0.2495  0.5084
 9217TIP3    H149066   3.232   0.583   5.122  0.9840 -0.1224 -0.5900
 9217TIP3    H249067   3.181   0.545   4.985 -0.9961  0.7240 -0.1154
 9218TIP3   OH249068   5.176   4.714  13.757  0.2627 -0.2219  0.6626
 9218TIP3    H149069   5.118   4.656  13.808  0.7597 -0.1595  1.3147
 9218TIP3    H249070   5.125   4.737  13.680  0.3177 -2.1322  0.0082
 9219TIP3   OH249071   5.696   3.796   2.405 -0.7262  0.2217  0.4896
 9219TIP3    H149072   5.768   3.827   2.351  0.9667 -0.5106  2.1901
 9219TIP3    H249073   5.653   3.876   2.437 -2.5144  0.6900 -2.6901
 9220TIP3   OH249074   2.592   2.903  17.014  0.4239  0.1548  0.0369
 9220TIP3    H149075   2.519   2.847  17.041  0.2127  1.0190  1.3236
 9220TIP3    H249076   2.659   2.887  17.080  0.0529  2.0110  0.9069
 9221TIP3   OH249077   6.611   0.684   1.665 -0.4145 -0.1884  0.0046
 9221TIP3    H149078   6.681   0.619   1.677  1.0197  0.7317 -2.6841
 9221TIP3    H249079   6.555   0.647   1.597 -0.2680  0.8082 -0.6811
 9222TIP3   OH249080   5.567   4.689   4.760 -0.4677  0.0122 -0.0724
 9222TIP3    H149081   5.573   4.735   4.676  0.8510  0.8959  0.4804
 9222TIP3    H249082   5.548   4.758   4.824  0.0560 -0.4232  0.5601
 9223TIP3   OH249083   6.661   1.179  11.430  0.1502 -0.5517  0.3856
 9223TIP3    H149084   6.576   1.206  11.396 -0.6278 -2.0993  1.0158
 9223TIP3    H249085   6.670   1.087  11.403  1.9265 -0.2555 -0.2291
 9224TIP3   OH249086   4.861   4.926   3.173 -0.4417 -0.7978 -0.9160
 9224TIP3    H149087   4.819   4.846   3.204  1.0386 -1.3280 -0.2129
 9224TIP3    H249088   4.801   4.996   3.200 -0.5528 -1.4684  0.7059
 9225TIP3   OH249089   4.236   5.137  13.299 -0.1259  0.2083  0.1001
 9225TIP3    H149090   4.286   5.056  13.308  0.8195  0.4909 -1.9392
 9225TIP3    H249091   4.192   5.129  13.215 -3.0241  0.3038  1.4912
 9226TIP3   OH249092   5.559   3.732   2.705  0.6813  0.2298 -0.1803
 9226TIP3    H149093   5.514   3.649   2.717  1.0307  0.2880  1.8607
 9226TIP3    H249094   5.630   3.731   2.770  0.0222  2.5345  0.6708
 9227TIP3   OH249095   1.774   0.855  11.706 -0.2156  0.0131 -0.0317
 9227TIP3    H149096   1.829   0.777  11.702 -1.0156 -0.6150  0.7474
 9227TIP3    H249097   1.734   0.851  11.793 -2.6591 -0.3705 -1.1078
 9228TIP3   OH249098   5.503   1.836  16.907  0.5386  0.6880  0.0122
 9228TIP3    H149099   5.579   1.850  16.850  0.9074  1.1280  0.5953
 9228TIP3    H249100   5.504   1.912  16.966 -1.0766  1.3527 -0.7571
 9229TIP3   OH249101   4.750   6.684   4.963 -0.2350 -0.3803  0.1497
 9229TIP3    H149102   4.761   6.653   4.873  1.5333  0.5037  0.0262
 9229TIP3    H249103   4.662   6.654   4.987 -0.5421 -1.1113 -1.6644
 9230TIP3   OH249104   1.618   6.200  14.523  0.3215 -0.0359 -0.0791
 9230TIP3    H149105   1.703   6.169  14.491 -0.7036 -0.7372 -2.3353
 9230TIP3    H249106   1.590   6.264  14.457 -0.8754  0.2147  0.6621
 9231TIP3   OH249107   2.036   0.734   1.655 -0.5506 -0.5020  0.2789
 9231TIP3    H149108   2.057   0.691   1.738  2.1279  0.0131 -0.0347
 9231TIP3    H249109   1.982   0.809   1.680 -1.3887 -1.4335  1.3272
 9232TIP3   OH249110   5.247   0.964  15.093 -0.0675 -0.6497 -1.0204
 9232TIP3    H149111   5.175   1.005  15.142  1.0806 -0.0118  0.1932
 9232TIP3    H249112   5.221   0.873  15.083 -0.2969 -0.8463  0.9432
 9233TIP3   OH249113   2.038   6.105   3.416  0.6760 -0.1157 -0.0710
 9233TIP3    H149114   2.113   6.123   3.472  0.9690 -1.5350  0.0119
 9233TIP3    H249115   2.075   6.082   3.331  0.3413 -0.7210 -0.0605
 9234TIP3   OH249116   3.983   2.995   2.589  0.2797  1.1107  0.2111
 9234TIP3    H149117   3.929   2.985   2.667 -1.9797 -0.7941 -1.4659
 9234TIP3    H249118   3.947   3.072   2.544  0.3862  1.1286  0.1563
 9235TIP3   OH249119   2.728   4.020   0.420  0.3101 -0.2828 -0.8244
 9235TIP3    H149120   2.688   3.940   0.456  0.7122  0.0228  0.3396
 9235TIP3    H249121   2.656   4.066   0.378 -0.3350 -0.3033  0.2316
 9236TIP3   OH249122   5.237   3.882  13.241 -0.1510  0.3401 -0.0845
 9236TIP3    H149123   5.294   3.822  13.191 -0.9243 -1.1252  0.7120
 9236TIP3    H249124   5.287   3.902  13.320 -0.5472 -0.6160  0.4230
 9237TIP3   OH249125   1.250   0.982   4.760 -0.3935  0.1537 -0.3572
 9237TIP3    H149126   1.221   0.981   4.669 -1.7650  0.6334  0.0567
 9237TIP3    H249127   1.236   0.892   4.791  0.5019 -0.1247 -0.7351
 9238TIP3   OH249128   1.904   0.655  14.192  0.3128  0.4910  0.0215
 9238TIP3    H149129   1.980   0.628  14.243 -0.7724 -1.0195  0.9062
 9238TIP3    H249130   1.879   0.740  14.230  0.2623 -0.0317  1.2090
 9239TIP3   OH249131   1.407   6.652   2.650  0.3162  0.4223 -0.8510
 9239TIP3    H149132   1.390   6.675   2.741 -0.5083 -1.0307 -0.6117
 9239TIP3    H249133   1.488   6.601   2.652 -1.3160 -2.3421 -0.4375
 9240TIP3   OH249134   3.599   1.126  14.825 -0.0762 -0.3859  0.2590
 9240TIP3    H149135   3.531   1.175  14.872 -0.0784  1.1843 -1.2758
 9240TIP3    H249136   3.678   1.179  14.836  0.4501 -1.1676  0.3441
 9241TIP3   OH249137   2.238   2.194   2.881  0.2152  0.4899 -0.6650
 9241TIP3    H149138   2.251   2.279   2.924 -0.3694  1.2917 -1.9878
 9241TIP3    H249139   2.149   2.168   2.906  0.1825  0.5526 -0.7147
 9242TIP3   OH249140   1.855   4.626   4.637  0.4333  0.1613 -0.5682
 9242TIP3    H149141   1.923   4.586   4.584  0.3408 -0.1018 -0.4922
 9242TIP3    H249142   1.803   4.552   4.669 -0.5671  0.4072 -1.5395
 9243TIP3   OH249143   4.617   0.961  14.629 -0.2905 -0.0291 -0.2413
 9243TIP3    H149144   4.563   0.883  14.643 -1.3586  0.9153  1.3070
 9243TIP3    H249145   4.605   1.012  14.709  0.5170  1.6443 -1.1480
 9244TIP3   OH249146   5.839   5.600   4.667  0.6250 -0.0620 -0.5171
 9244TIP3    H149147   5.902   5.594   4.739  0.3896  0.5957 -0.2565
 9244TIP3    H249148   5.852   5.687   4.630 -0.3992  0.2358 -0.2087
 9245TIP3   OH249149   6.491   5.229   4.815 -0.0917 -0.5674 -0.4712
 9245TIP3    H149150   6.444   5.224   4.898  0.0917 -0.1676 -0.3416
 9245TIP3    H249151   6.582   5.244   4.839  0.1946 -1.8388 -0.7095
 9246TIP3   OH249152   5.590   2.426  14.540 -0.2376  0.0149 -0.3067
 9246TIP3    H149153   5.566   2.483  14.468  0.0225  0.0019 -0.4059
 9246TIP3    H249154   5.538   2.457  14.614 -0.4980  0.0324 -0.4962
 9247TIP3   OH249155   1.414   1.360  15.206 -0.5153 -0.1880 -0.1035
 9247TIP3    H149156   1.502   1.322  15.203 -0.8584 -0.9606 -0.4443
 9247TIP3    H249157   1.429   1.452  15.228  0.1364 -1.1452  4.3805
 9248TIP3   OH249158   1.569   3.841  11.395 -0.3494  0.0012  0.1664
 9248TIP3    H149159   1.549   3.915  11.338 -1.4491 -1.1827 -1.0658
 9248TIP3    H249160   1.504   3.774  11.371  0.0024 -1.0158  1.9048
 9249TIP3   OH249161   1.565   4.227  15.496  0.5568 -0.1596 -0.2231
 9249TIP3    H149162   1.505   4.161  15.461  0.1944  0.2817 -0.4408
 9249TIP3    H249163   1.649   4.182  15.502  0.0521 -1.0155  0.7980
 9250TIP3   OH249164   1.480   4.674  16.226 -0.1083 -0.5216 -0.0214
 9250TIP3    H149165   1.467   4.768  16.217 -1.6149 -0.4433  2.2958
 9250TIP3    H249166   1.529   4.664  16.307 -0.8214 -1.7882  0.2725
 9251TIP3   OH249167   1.928   4.105  13.290 -0.3474  0.2917 -0.4547
 9251TIP3    H149168   1.924   4.065  13.377 -0.6156 -2.2919 -1.5492
 9251TIP3    H249169   1.890   4.192  13.302  2.0079  1.0756  2.4788
 9252TIP3   OH249170   0.292   1.894   0.010  0.2440 -0.1209 -0.2195
 9252TIP3    H149171   0.247   1.914   0.093  2.5219 -0.9555  1.3030
 9252TIP3    H249172   0.263   1.963  -0.049 -2.2004 -0.0255  0.9387
 9253TIP3   OH249173   2.516   2.874   3.909  0.4695 -0.0317  0.4710
 9253TIP3    H149174   2.532   2.780   3.919  0.6535 -0.0384  0.0991
 9253TIP3    H249175   2.505   2.905   3.999 -0.5324 -0.5699  0.5447
 9254TIP3   OH249176   2.415   1.880   0.064  0.8554  0.5443 -0.3509
 9254TIP3    H149177   2.502   1.842   0.077  0.4312 -0.1071  0.7495
 9254TIP3    H249178   2.354   1.811   0.092 -0.0557  0.7172 -1.7832
 9255TIP3   OH249179   4.004   2.237   2.424 -0.1348 -0.4611  0.6393
 9255TIP3    H149180   4.070   2.260   2.359  0.5808 -1.2912  1.0573
 9255TIP3    H249181   4.003   2.311   2.485 -1.3807  0.6904 -0.7259
 9256TIP3   OH249182   3.229   3.267  11.713  0.0353 -0.4065  0.3119
 9256TIP3    H149183   3.319   3.278  11.744 -0.6876  0.1390  2.3402
 9256TIP3    H249184   3.179   3.336  11.758 -1.2001  0.1827 -1.8022
 9257TIP3   OH249185   1.203   4.534   4.281  0.3867  0.0753 -0.7391
 9257TIP3    H149186   1.113   4.567   4.282  0.5734  0.7121  1.7757
 9257TIP3    H249187   1.238   4.562   4.196 -1.7598 -0.2477 -1.8117
 9258TIP3   OH249188   4.219   2.839   5.641 -0.3205 -0.4007 -0.6669
 9258TIP3    H149189   4.138   2.887   5.621 -0.5718 -0.2502  0.6504
 9258TIP3    H249190   4.243   2.797   5.558 -2.1996 -1.1151 -0.8957
 9259TIP3   OH249191   1.559   3.725  15.987  0.1967 -0.0555 -0.1881
 9259TIP3    H149192   1.571   3.674  15.907  1.0341 -2.0562  1.1426
 9259TIP3    H249193   1.478   3.692  16.024 -0.1231  0.7814 -0.1051
 9260TIP3   OH249194   0.201   2.219   3.440 -0.0303 -0.1994 -0.0757
 9260TIP3    H149195   0.194   2.292   3.502 -0.7555 -0.1141 -0.2386
 9260TIP3    H249196   0.110   2.200   3.417  0.2224 -0.3461 -0.9772
 9261TIP3   OH249197   2.351   0.915   3.624 -0.4045  0.1286 -0.5123
 9261TIP3    H149198   2.329   0.869   3.705  0.8612 -0.7609 -0.6300
 9261TIP3    H249199   2.365   0.845   3.560  1.7002  0.6227 -0.6712
 9262TIP3   OH249200   3.543   5.274  16.755  0.9178  0.0998 -0.2267
 9262TIP3    H149201   3.574   5.184  16.754  0.2888 -0.1296 -1.6082
 9262TIP3    H249202   3.454   5.269  16.789  0.1264 -0.1047 -2.2267
 9263TIP3   OH249203   5.044   5.784   5.223 -0.2236  0.3765  0.0701
 9263TIP3    H149204   5.015   5.778   5.314 -0.1158 -1.8101  0.0022
 9263TIP3    H249205   4.966   5.812   5.175 -0.2299  1.7566  0.8367
 9264TIP3   OH249206   5.136   3.967  13.712  0.5103 -0.3179  0.6138
 9264TIP3    H149207   5.222   3.948  13.748  0.3252 -2.4964  0.0322
 9264TIP3    H249208   5.133   3.919  13.629 -1.0511  0.1842  0.3467
 9265TIP3   OH249209   2.530   5.800  11.507  0.4930 -0.4943 -0.4467
 9265TIP3    H149210   2.545   5.807  11.412  1.5159  3.0928 -0.1635
 9265TIP3    H249211   2.450   5.850  11.522 -0.1652 -1.7912  0.5329
 9266TIP3   OH249212   0.362   5.896  14.601  0.0550 -0.1225  0.0537
 9266TIP3    H149213   0.296   5.877  14.667  0.1668 -1.3735 -0.1726
 9266TIP3    H249214   0.313   5.937  14.530 -0.0492  1.3385  0.9348
 9267TIP3   OH249215   1.999   0.184  11.038 -0.2725 -0.5718  0.1007
 9267TIP3    H149216   1.906   0.162  11.046 -0.2564 -0.1334  2.0067
 9267TIP3    H249217   2.031   0.128  10.968 -1.5736 -2.0904  0.6631
 9268TIP3   OH249218   0.505   4.681   1.663 -0.1284  0.0826 -0.0140
 9268TIP3    H149219   0.490   4.632   1.582 -2.6265  0.3904  0.1725
 9268TIP3    H249220   0.417   4.697   1.697  0.8300  0.6597  2.3615
 9269TIP3   OH249221   0.241   4.853   3.241 -0.1346 -0.4139 -0.2206
 9269TIP3    H149222   0.160   4.903   3.249 -0.5893 -0.9679 -1.2085
 9269TIP3    H249223   0.231   4.804   3.159  1.3741 -0.1699 -0.5735
 9270TIP3   OH249224   3.127   3.803   3.738 -0.0103 -0.5983 -0.3499
 9270TIP3    H149225   3.052   3.772   3.788 -0.9479  2.8578  0.6442
 9270TIP3    H249226   3.203   3.774   3.789 -0.5117 -3.8231 -1.1797
 9271TIP3   OH249227   5.195   1.411   3.900  0.6630 -0.1060  0.5215
 9271TIP3    H149228   5.110   1.456   3.900  0.7974  0.3070 -2.2342
 9271TIP3    H249229   5.236   1.440   3.982 -0.2917  2.8235  0.1065
 9272TIP3   OH249230   2.969   4.342  15.503  0.0273 -0.1323  0.2533
 9272TIP3    H149231   3.029   4.415  15.514  1.0556 -1.0262  0.7234
 9272TIP3    H249232   2.933   4.327  15.591  0.4987 -0.7524  0.3478
 9273TIP3   OH249233   4.038   3.788  10.664  0.4183 -0.0932  0.3653
 9273TIP3    H149234   3.959   3.803  10.611  0.6196 -1.8395 -0.4943
 9273TIP3    H249235   4.025   3.842  10.742 -0.7137  1.1759 -0.6403
 9274TIP3   OH249236   4.458   1.318   1.038 -0.5774  0.2801  0.3054
 9274TIP3    H149237   4.400   1.276   1.101 -2.5926 -0.3648 -1.8154
 9274TIP3    H249238   4.501   1.245   0.993 -0.0917  0.6718  0.1231
 9275TIP3   OH249239   6.202   2.854   1.488 -0.2090  0.2638 -0.0726
 9275TIP3    H149240   6.138   2.830   1.421  0.4003  1.9047 -1.3071
 9275TIP3    H249241   6.286   2.856   1.441  0.7144 -1.2564  1.3834
 9276TIP3   OH249242   0.441   1.025   1.373  0.2377  0.3087  0.2671
 9276TIP3    H149243   0.391   1.097   1.335  0.8532  0.9927  0.7116
 9276TIP3    H249244   0.451   1.049   1.466  2.6645  0.9884 -0.0904
 9277TIP3   OH249245   0.483   2.000  11.750  0.0394  0.4552 -1.1029
 9277TIP3    H149246   0.482   2.074  11.811  1.2704 -1.4307  1.4097
 9277TIP3    H249247   0.493   2.039  11.663 -0.4830  3.2324  0.0044
 9278TIP3   OH249248   5.007   4.932  15.763 -0.0875 -0.0464 -0.5737
 9278TIP3    H149249   5.022   4.891  15.678 -0.5046 -1.4647  0.0180
 9278TIP3    H249250   5.002   5.026  15.744  0.5771 -0.2808 -1.9980
 9279TIP3   OH249251   2.911   2.519   1.148 -0.6352  0.4755  0.0508
 9279TIP3    H149252   2.954   2.516   1.233 -0.8824  1.9654  0.2432
 9279TIP3    H249253   2.905   2.427   1.121 -0.4696 -0.0083  1.5861
 9280TIP3   OH249254   3.261   3.427   3.583  0.4967 -0.0708  0.5642
 9280TIP3    H149255   3.215   3.443   3.665 -0.7961  0.7898 -0.2785
 9280TIP3    H249256   3.303   3.511   3.563 -1.6799  0.7420 -1.0881
 9281TIP3   OH249257   2.662   3.637  13.765 -0.2290  0.1920  0.1252
 9281TIP3    H149258   2.727   3.572  13.739 -1.0415 -0.9216  0.7959
 9281TIP3    H249259   2.708   3.721  13.758  0.3224 -0.2296 -2.5084
 9282TIP3   OH249260   2.255   2.867  11.189 -0.5990 -0.0602  0.0429
 9282TIP3    H149261   2.163   2.859  11.163 -0.3728 -0.9020 -0.5794
 9282TIP3    H249262   2.273   2.787  11.239 -0.0076 -0.3152 -0.5460
 9283TIP3   OH249263   0.620   5.261  12.871  0.4551 -0.0141  0.0307
 9283TIP3    H149264   0.603   5.299  12.784  1.0087 -0.9464 -0.5014
 9283TIP3    H249265   0.579   5.175  12.867 -1.6123  0.8126  1.5475
 9284TIP3   OH249266   3.295   2.727  11.654 -0.2953  0.1276  0.1259
 9284TIP3    H149267   3.243   2.725  11.735 -1.7965  0.8465 -0.7653
 9284TIP3    H249268   3.236   2.767  11.590  0.6160 -1.0317 -1.4899
 9285TIP3   OH249269   1.997   6.577  11.640  0.6033  0.5529  0.4937
 9285TIP3    H149270   2.070   6.515  11.643  0.5474  0.5147  1.0620
 9285TIP3    H249271   2.035   6.656  11.602  0.3741 -0.2252 -1.5363
 9286TIP3   OH249272   0.877   1.505   5.655  0.5543  0.0112 -0.3040
 9286TIP3    H149273   0.848   1.422   5.618 -0.8680  0.5618 -0.4995
 9286TIP3    H249274   0.901   1.484   5.746 -0.6193 -0.4651 -0.0912
 9287TIP3   OH249275   0.118   4.694  14.597 -0.1549 -0.0574  0.4297
 9287TIP3    H149276   0.158   4.779  14.613  0.0090  0.2511 -1.3928
 9287TIP3    H249277   0.039   4.694  14.650  0.5142  0.6897  1.4570
 9288TIP3   OH249278   4.282   0.077  14.788  0.8942  0.1118  0.0271
 9288TIP3    H149279   4.359   0.121  14.824  1.0910  0.6199 -0.9746
 9288TIP3    H249280   4.269   0.001  14.844  0.5357  1.4523  1.8337
 9289TIP3   OH249281   4.133   4.897   0.877 -0.5267  0.7184  0.3356
 9289TIP3    H149282   4.060   4.927   0.931 -0.7806  0.9895 -0.1508
 9289TIP3    H249283   4.211   4.919   0.926 -0.7606  0.8539  0.6462
 9290TIP3   OH249284   1.512   0.453  15.225 -0.5567  0.1664  0.0939
 9290TIP3    H149285   1.434   0.420  15.182 -0.4507  0.3202 -0.2182
 9290TIP3    H249286   1.514   0.547  15.205  0.8475 -0.1895 -1.7217
 9291TIP3   OH249287   1.765   2.181  12.451  0.3985  0.0020 -0.0774
 9291TIP3    H149288   1.706   2.255  12.435  2.0526  1.1997 -0.9945
 9291TIP3    H249289   1.707   2.106  12.461 -1.2750  1.1176 -0.9006
 9292TIP3   OH249290   2.512   5.080  12.759  0.1799  0.0619 -0.6181
 9292TIP3    H149291   2.440   5.087  12.696  0.1055 -0.1990 -0.5654
 9292TIP3    H249292   2.549   4.993  12.744 -0.9389 -0.7161  0.8405
 9293TIP3   OH249293   3.304   1.544   2.354  0.1486 -0.1191 -0.5290
 9293TIP3    H149294   3.328   1.544   2.261 -1.1094  0.4877 -0.8740
 9293TIP3    H249295   3.239   1.475   2.362 -1.0832  1.0208 -0.4810
 9294TIP3   OH249296   5.113   5.708   3.386  0.2200 -0.2172 -0.6026
 9294TIP3    H149297   5.175   5.703   3.314 -0.1772 -0.1286 -0.9512
 9294TIP3    H249298   5.120   5.798   3.417 -0.8679  0.2566 -1.6617
 9295TIP3   OH249299   3.924   0.973   4.034 -0.3571 -0.0884 -0.2106
 9295TIP3    H149300   3.972   1.016   3.963 -2.5990  1.7307 -0.7553
 9295TIP3    H249301   3.962   1.009   4.114  0.3791 -0.0921 -0.5461
 9296TIP3   OH249302   6.395   0.218   5.090  0.6153  0.2924 -0.1909
 9296TIP3    H149303   6.332   0.172   5.146  0.8021  1.5463  1.1119
 9296TIP3    H249304   6.474   0.165   5.096  0.6646  0.4531  0.8516
 9297TIP3   OH249305   5.025   3.129   3.747  0.1143 -0.4840 -0.0076
 9297TIP3    H149306   5.087   3.189   3.789 -1.9455  0.8466  1.3379
 9297TIP3    H249307   5.041   3.045   3.791  2.0687 -0.6330 -0.9039
 9298TIP3   OH249308   2.258   3.209  13.235 -0.3221 -0.3482 -0.0125
 9298TIP3    H149309   2.274   3.300  13.209  0.3827 -0.8502 -1.4263
 9298TIP3    H249310   2.336   3.184  13.285 -0.9951  0.1339  1.3320
 9299TIP3   OH249311   2.537   2.657  13.998 -0.9967  0.1314  0.5858
 9299TIP3    H149312   2.588   2.619  14.069 -0.4310  0.8028  0.5484
 9299TIP3    H249313   2.539   2.591  13.929 -1.8088 -0.6627  1.2797
 9300TIP3   OH249314   0.165   2.423  17.155  0.0268 -0.6632  0.4042
 9300TIP3    H149315   0.094   2.432  17.218 -0.8846  2.7620 -0.8937
 9300TIP3    H249316   0.234   2.481  17.189  0.9755 -1.5564  0.0473
 9301TIP3   OH249317   3.362   1.269   1.558  0.1759 -0.0442  0.5492
 9301TIP3    H149318   3.345   1.338   1.494  2.1491 -1.3373 -1.5156
 9301TIP3    H249319   3.370   1.315   1.642 -0.0211  2.0407 -0.5285
 9302TIP3   OH249320   2.134   5.711   3.730  0.6675  0.4295 -0.5292
 9302TIP3    H149321   2.047   5.676   3.711  1.2001 -0.7708 -0.8459
 9302TIP3    H249322   2.125   5.751   3.817 -0.1410  0.1269 -0.4607
 9303TIP3   OH249323   3.120   5.597   1.402  0.1619 -0.5102 -0.2115
 9303TIP3    H149324   3.131   5.525   1.464 -0.3559 -0.7860 -0.4292
 9303TIP3    H249325   3.032   5.583   1.365  1.1169 -1.3587 -2.3007
 9304TIP3   OH249326   0.340   2.801   2.189 -0.5642 -0.0179 -0.3069
 9304TIP3    H149327   0.402   2.737   2.152 -0.6672  0.4143 -1.2443
 9304TIP3    H249328   0.371   2.886   2.157 -0.6898  0.3656  0.5725
 9305TIP3   OH249329   1.605   4.118  13.316  0.2640  0.1090  0.0831
 9305TIP3    H149330   1.563   4.183  13.260 -1.1621  0.2142  1.2331
 9305TIP3    H249331   1.656   4.170  13.379  0.4934  0.0408 -0.0431
 9306TIP3   OH249332   1.865   5.627   1.394 -0.1935 -0.0922  0.3826
 9306TIP3    H149333   1.926   5.639   1.321  1.8376 -1.4705  1.7656
 9306TIP3    H249334   1.905   5.560   1.449 -2.0437  0.3136  2.3741
 9307TIP3   OH249335   1.187   4.557   1.471 -0.9966  0.4904  1.2735
 9307TIP3    H149336   1.129   4.633   1.483  0.6431  1.7777  1.4008
 9307TIP3    H249337   1.219   4.566   1.381 -0.0192  0.5119  1.6173
 9308TIP3   OH249338   1.668   0.707   1.884  0.3775  0.4367  0.0759
 9308TIP3    H149339   1.731   0.774   1.913  1.1038  0.4038 -1.3160
 9308TIP3    H249340   1.716   0.625   1.888 -0.3532  0.0373  1.2749
 9309TIP3   OH249341   0.079   5.798   2.575 -0.0092 -0.3332 -0.3475
 9309TIP3    H149342   0.024   5.798   2.653  1.3598  0.1509  0.6484
 9309TIP3    H249343   0.032   5.855   2.513 -1.4822 -1.3128 -0.2002
 9310TIP3   OH249344   6.097   3.753  15.029 -0.2488 -0.0268  0.0493
 9310TIP3    H149345   6.067   3.749  15.120 -0.9900 -0.4357 -0.1976
 9310TIP3    H249346   6.119   3.845  15.015 -0.5114  0.1141  0.5263
 9311TIP3   OH249347   3.198   2.316   5.527 -0.3948 -0.0013  0.3420
 9311TIP3    H149348   3.278   2.369   5.530 -0.7053  0.4404  0.9712
 9311TIP3    H249349   3.141   2.362   5.465 -0.7052  0.4738  0.9675
 9312TIP3   OH249350   4.671   5.683  16.728  0.2593  0.0515  0.5073
 9312TIP3    H149351   4.646   5.726  16.810  2.7940 -0.8144  1.8466
 9312TIP3    H249352   4.752   5.726  16.701 -0.2097 -0.0917 -1.2352
 9313TIP3   OH249353   2.553   3.039  11.874 -0.3035  0.3807 -0.0194
 9313TIP3    H149354   2.597   3.009  11.953 -2.4146 -0.9452  0.7546
 9313TIP3    H249355   2.620   3.086  11.825  1.6386 -0.6141  1.5374
 9314TIP3   OH249356   2.184   4.702  13.342 -0.3610  0.3276 -0.2519
 9314TIP3    H149357   2.112   4.655  13.299  1.3570 -2.1006 -0.6906
 9314TIP3    H249358   2.182   4.670  13.433  0.3323 -0.0091 -0.3466
 9315TIP3   OH249359   6.098   0.360   5.260  0.0205 -0.7247  0.3287
 9315TIP3    H149360   6.169   0.318   5.310  1.3646 -0.5941 -1.3919
 9315TIP3    H249361   6.090   0.307   5.180 -0.5659  0.3454 -0.3436
 9316TIP3   OH249362   5.716   2.306   6.032  0.4651  0.6751  0.5289
 9316TIP3    H149363   5.711   2.246   5.957  1.7243 -0.1912  1.1114
 9316TIP3    H249364   5.661   2.380   6.006 -0.6155 -0.4322 -0.4737
 9317TIP3   OH249365   1.584   4.091   4.331  0.5165 -0.2239  0.1795
 9317TIP3    H149366   1.536   4.171   4.350  0.4128 -0.4983  1.1166
 9317TIP3    H249367   1.526   4.020   4.358  0.4152 -0.6440 -1.0789
 9318TIP3   OH249368   2.277   0.981   4.351  0.1226 -0.4110 -0.2651
 9318TIP3    H149369   2.314   1.050   4.407  1.1559 -0.6284 -0.6653
 9318TIP3    H249370   2.183   0.988   4.365  0.2263  0.8762 -0.0557
 9319TIP3   OH249371   6.764   1.646  16.506 -0.2662  0.3238 -0.1487
 9319TIP3    H149372   6.702   1.639  16.433  0.6998 -0.9190 -0.8975
 9319TIP3    H249373   6.769   1.739  16.525 -0.6816  0.6547 -1.5479
 9320TIP3   OH249374   1.383   3.230  16.807 -0.5895 -0.5868  0.5654
 9320TIP3    H149375   1.353   3.249  16.896  1.0450 -1.4421  1.3406
 9320TIP3    H249376   1.311   3.260  16.751 -0.7039  2.1609  1.9992
 9321TIP3   OH249377   4.349   3.862   0.635 -0.1191  1.0543 -0.3871
 9321TIP3    H149378   4.397   3.779   0.631 -1.0475  0.2844  2.3446
 9321TIP3    H249379   4.415   3.929   0.613  1.2694 -0.2111 -0.2360
 9322TIP3   OH249380   2.887   0.383   1.213  0.0302  0.0082 -0.3403
 9322TIP3    H149381   2.799   0.418   1.228 -1.3851 -2.7947 -1.4179
 9322TIP3    H249382   2.932   0.452   1.164 -0.6125  2.5591  2.3393
 9323TIP3   OH249383   6.712   3.318  11.604  0.2225 -0.2923  0.5296
 9323TIP3    H149384   6.678   3.239  11.562  1.2793  0.1470 -1.2688
 9323TIP3    H249385   6.801   3.326  11.571 -0.2663  2.3513 -0.3578
 9324TIP3   OH249386   6.566   4.257  10.889 -0.5323 -0.1523 -0.0296
 9324TIP3    H149387   6.503   4.319  10.852  0.7995  1.2537 -0.0345
 9324TIP3    H249388   6.599   4.208  10.813 -1.7797 -1.0851  0.0052
 9325TIP3   OH249389   1.480   2.387  15.642  0.5312  0.2549  0.1206
 9325TIP3    H149390   1.525   2.463  15.604 -1.5201  0.0250 -3.2217
 9325TIP3    H249391   1.465   2.329  15.567 -2.1402 -1.2480  1.6786
 9326TIP3   OH249392   4.213   4.369  14.863 -0.5439 -0.5263  0.0591
 9326TIP3    H149393   4.196   4.340  14.774  1.2829 -2.2886  0.2217
 9326TIP3    H249394   4.230   4.463  14.855 -1.8799 -0.3519 -1.1872
 9327TIP3   OH249395   0.184   2.140   4.688  0.6967  0.3994  0.2038
 9327TIP3    H149396   0.196   2.235   4.687 -0.2440  0.5471 -2.2396
 9327TIP3    H249397   0.143   2.122   4.773 -3.3914  2.8419 -0.9863
 9328TIP3   OH249398   1.065   1.571   6.634 -0.3461  0.2560 -0.5591
 9328TIP3    H149399   1.048   1.481   6.663 -0.6791  0.3748 -0.3776
 9328TIP3    H249400   1.157   1.587   6.656 -1.3446  1.4712  3.5797
 9329TIP3   OH249401   4.357   4.210   3.710  0.4063  0.4711 -0.2912
 9329TIP3    H149402   4.422   4.172   3.651 -1.8343 -1.4390 -1.6916
 9329TIP3    H249403   4.348   4.146   3.781  0.7881  1.2453  0.4772
 9330TIP3   OH249404   2.732   2.905  12.144  0.2126 -0.4311  0.1680
 9330TIP3    H149405   2.691   2.849  12.078 -0.9876 -0.1548  0.6579
 9330TIP3    H249406   2.788   2.964  12.093 -1.3611  0.3579 -0.7433
 9331TIP3   OH249407   4.401   1.176  12.431  0.0293 -0.1953 -0.1157
 9331TIP3    H149408   4.340   1.233  12.384 -2.0030 -0.4130  2.0943
 9331TIP3    H249409   4.354   1.093  12.441  0.8416 -0.5234  1.2482
 9332TIP3   OH249410   5.815   4.773  11.274 -0.1106  0.3457  0.6936
 9332TIP3    H149411   5.758   4.698  11.291 -0.3555  0.1515 -0.8484
 9332TIP3    H249412   5.904   4.737  11.282 -0.2019  0.3091  1.6557
 9333TIP3   OH249413   3.469   4.779   3.971 -0.4193 -0.6206 -0.2763
 9333TIP3    H149414   3.528   4.837   4.019  1.0686 -0.0454 -2.6421
 9333TIP3    H249415   3.406   4.838   3.929  0.6051 -0.7181 -2.0361
 9334TIP3   OH249416   1.894   3.084   1.487  0.1304  0.2761 -0.1881
 9334TIP3    H149417   1.811   3.115   1.452  0.5232  1.1622 -0.3510
 9334TIP3    H249418   1.893   3.112   1.579 -0.9713 -2.1786  0.6293
 9335TIP3   OH249419   6.710   5.806   0.797  0.3569 -0.3000 -0.4145
 9335TIP3    H149420   6.734   5.720   0.833  0.1690 -1.0147 -1.9013
 9335TIP3    H249421   6.727   5.797   0.703 -2.8600  0.1653 -1.1271
 9336TIP3   OH249422   6.584   5.082   2.513  0.0939  0.4937 -0.1805
 9336TIP3    H149423   6.522   5.019   2.476  0.0078  0.6212 -0.2574
 9336TIP3    H249424   6.603   5.142   2.441  0.2536  0.4948 -0.1365
 9337TIP3   OH249425   0.744   2.015   5.893 -0.0086 -0.0649 -0.1180
 9337TIP3    H149426   0.774   2.071   5.964  2.4475 -2.4840  0.9645
 9337TIP3    H249427   0.658   1.985   5.919  0.6940 -0.5987  1.7241
 9338TIP3   OH249428   2.471   4.653   4.286 -0.0270 -0.1272 -0.7048
 9338TIP3    H149429   2.441   4.579   4.339 -0.5711  0.2475 -0.4834
 9338TIP3    H249430   2.556   4.675   4.323  0.1678 -0.6722 -0.8081
 9339TIP3   OH249431   1.770   4.620  17.204  0.2188  0.6007  0.1840
 9339TIP3    H149432   1.688   4.667  17.220  0.4680  0.9067  0.5760
 9339TIP3    H249433   1.811   4.613  17.290  1.8098  2.7077 -0.3009
 9340TIP3   OH249434   1.771   3.919  14.603 -0.3536 -0.1594  0.1840
 9340TIP3    H149435   1.827   3.843  14.611 -1.5299 -0.9440  1.5142
 9340TIP3    H249436   1.829   3.994  14.619  0.5720 -0.8558  0.1428
 9341TIP3   OH249437   3.399   0.837   5.728  0.0546 -0.3806 -0.6306
 9341TIP3    H149438   3.364   0.924   5.746  0.0351 -0.2996 -1.0591
 9341TIP3    H249439   3.492   0.843   5.747  0.0670 -0.2467 -0.7392
 9342TIP3   OH249440   0.850   4.349  11.183  0.2525  0.4971 -0.0273
 9342TIP3    H149441   0.862   4.332  11.090 -1.7616 -0.8690 -0.1040
 9342TIP3    H249442   0.829   4.263  11.220 -0.1913  1.2210  1.4618
 9343TIP3   OH249443   5.279   5.800  11.810 -0.6073 -0.5292  0.0746
 9343TIP3    H149444   5.187   5.787  11.786 -1.4660  2.1318  1.4763
 9343TIP3    H249445   5.326   5.796  11.727 -2.4029  0.8091 -1.0913
 9344TIP3   OH249446   4.847   5.597  17.127  0.1212  0.2559  0.1903
 9344TIP3    H149447   4.904   5.644  17.066  1.9693 -1.0728  0.7981
 9344TIP3    H249448   4.854   5.646  17.209 -0.1344  0.4632  0.0889
 9345TIP3   OH249449   4.939   6.652   2.413  0.3215  0.1091  0.2584
 9345TIP3    H149450   4.992   6.600   2.474  0.6073  0.2016  0.0878
 9345TIP3    H249451   4.964   6.743   2.431 -1.1405  0.3160  1.4989
 9346TIP3   OH249452   3.718   1.707   4.419 -0.0594  0.2156 -0.1130
 9346TIP3    H149453   3.749   1.630   4.372 -0.0340  0.5771 -0.6899
 9346TIP3    H249454   3.647   1.674   4.475 -2.3635  0.3100 -2.7614
 9347TIP3   OH249455   0.755   5.633  12.954  0.5541 -0.6031 -0.4654
 9347TIP3    H149456   0.703   5.637  12.874 -1.1953 -0.5638  0.6411
 9347TIP3    H249457   0.793   5.721  12.962 -0.9734  0.0525 -0.1689
 9348TIP3   OH249458   3.603   3.463  12.503 -0.2789 -0.3192  0.4076
 9348TIP3    H149459   3.658   3.523  12.553  0.0373  1.1179 -1.5499
 9348TIP3    H249460   3.661   3.427  12.436 -1.6291  1.3085 -1.7804
 9349TIP3   OH249461   4.233   5.829  14.284 -0.0796  0.1616  0.3083
 9349TIP3    H149462   4.194   5.864  14.204  1.2714 -0.2030 -0.5380
 9349TIP3    H249463   4.326   5.847  14.276  0.3886 -1.7821  0.7734
 9350TIP3   OH249464   5.556   2.259  16.359  0.2226 -0.7391  0.3162
 9350TIP3    H149465   5.468   2.222  16.364 -0.2458 -0.1668 -2.1596
 9350TIP3    H249466   5.543   2.354  16.364  0.8123 -0.6882  0.9942
 9351TIP3   OH249467   2.085   2.490   0.565  0.4431 -0.6909  0.4782
 9351TIP3    H149468   2.119   2.451   0.484 -0.8093 -1.9625  0.5198
 9351TIP3    H249469   2.005   2.440   0.583  0.7656 -0.5209  2.5763
 9352TIP3   OH249470   4.542   2.165  15.993 -0.3140  0.7191  0.0194
 9352TIP3    H149471   4.563   2.259  15.990 -1.3622  0.9529 -0.7936
 9352TIP3    H249472   4.535   2.145  16.086  1.0552  1.1773  0.2344
 9353TIP3   OH249473   2.360   3.358  11.278 -0.1902  0.4168  0.1866
 9353TIP3    H149474   2.305   3.284  11.302  0.2744 -0.3132 -0.9477
 9353TIP3    H249475   2.439   3.319  11.240  0.0281  1.4830 -0.5109
 9354TIP3   OH249476   2.959   2.422  16.874  0.2572 -0.3149 -0.5068
 9354TIP3    H149477   3.019   2.453  16.806  0.2351 -1.9982 -1.3305
 9354TIP3    H249478   2.967   2.327  16.871  0.0549 -0.4529  1.6763
 9355TIP3   OH249479   5.854   6.426  12.520  0.0836  0.0503  0.0422
 9355TIP3    H149480   5.882   6.407  12.431  0.7193  0.2065  0.2030
 9355TIP3    H249481   5.779   6.368  12.535  1.4496 -1.7420  0.2484
 9356TIP3   OH249482   0.733   2.620  12.710  0.3413 -0.2076 -0.0916
 9356TIP3    H149483   0.759   2.550  12.770 -0.2433 -0.8872 -0.6107
 9356TIP3    H249484   0.787   2.606  12.633 -0.8658 -1.0928 -0.8264
 9357TIP3   OH249485   3.022   4.027   3.430  0.1478  0.2132  0.1918
 9357TIP3    H149486   3.066   3.948   3.460 -1.0428 -0.1870  0.9933
 9357TIP3    H249487   3.040   4.092   3.498  2.7943  1.3189 -1.4088
 9358TIP3   OH249488   4.555   0.214  16.651 -0.0970  0.1035  0.6848
 9358TIP3    H149489   4.506   0.134  16.635 -1.6473  1.0404  0.6240
 9358TIP3    H249490   4.559   0.258  16.567  0.1521  0.4262  0.8614
 9359TIP3   OH249491   3.749   3.715  12.012 -0.3674  0.5129  0.1532
 9359TIP3    H149492   3.656   3.723  12.032 -0.4649  0.5489 -0.2988
 9359TIP3    H249493   3.760   3.626  11.981  0.5922 -1.1288  4.4741
 9360TIP3   OH249494   4.233   1.725  16.539 -0.1845 -0.1623 -0.4933
 9360TIP3    H149495   4.216   1.663  16.610 -1.1569 -1.3956 -1.7495
 9360TIP3    H249496   4.187   1.689  16.464  0.8022  1.1113 -1.7719
 9361TIP3   OH249497   3.005   2.561  15.100 -0.2634 -0.1309  0.9289
 9361TIP3    H149498   3.073   2.577  15.166 -0.2840 -1.5651  1.3392
 9361TIP3    H249499   3.036   2.606  15.022  0.6690  0.0675  1.4009
 9362TIP3   OH249500   2.000   1.048   0.627  0.3782  0.5543  0.2961
 9362TIP3    H149501   1.988   1.141   0.607  1.6377  0.3926 -1.4929
 9362TIP3    H249502   2.093   1.039   0.647  0.4707 -0.4456 -0.4763
 9363TIP3   OH249503   1.786   3.095  14.506  0.1371  0.0959 -0.1585
 9363TIP3    H149504   1.736   3.015  14.512 -1.8950  1.4035  1.7611
 9363TIP3    H249505   1.728   3.157  14.461 -0.6442  1.9830  3.1275
 9364TIP3   OH249506   1.223   0.839   6.071  0.0542  0.2344  0.8846
 9364TIP3    H149507   1.214   0.880   6.157 -0.1041 -1.6931  1.8575
 9364TIP3    H249508   1.139   0.855   6.028  0.0128  0.9375  1.2204
 9365TIP3   OH249509   4.223   5.552  14.790  0.0739  0.0843 -0.0174
 9365TIP3    H149510   4.237   5.468  14.746 -0.6159 -0.1301  0.1532
 9365TIP3    H249511   4.261   5.540  14.877  0.8011  0.2666 -0.3051
 9366TIP3   OH249512   1.353   2.034   3.637  0.0601 -0.9950 -0.1983
 9366TIP3    H149513   1.359   1.941   3.657  0.7054 -0.2612  3.9167
 9366TIP3    H249514   1.443   2.061   3.621  0.2356 -0.7141  1.1133
 9367TIP3   OH249515   5.910   6.295   5.080 -0.0712 -0.3579 -0.7119
 9367TIP3    H149516   5.894   6.366   5.018 -0.1586  0.5303  0.2982
 9367TIP3    H249517   5.937   6.340   5.160  2.9304 -1.5605 -0.9269
 9368TIP3   OH249518   1.770   0.652   4.438 -0.3344 -0.7630 -0.1929
 9368TIP3    H149519   1.825   0.634   4.515 -0.5877 -0.2514  0.1105
 9368TIP3    H249520   1.690   0.691   4.473  0.0217  0.5820 -0.7773
 9369TIP3   OH249521   5.456   1.741  13.257 -0.1466 -0.3488  0.3153
 9369TIP3    H149522   5.432   1.786  13.338  1.5058  0.7854  0.2343
 9369TIP3    H249523   5.388   1.675  13.245 -1.2808  0.4809  1.7927
 9370TIP3   OH249524   4.193   2.031  15.889  0.0928 -0.5142  0.3410
 9370TIP3    H149525   4.125   2.020  15.822 -2.6536  1.0455  2.6755
 9370TIP3    H249526   4.166   1.973  15.960  2.6046 -1.6600  0.4549
 9371TIP3   OH249527   2.982   2.435  16.528  0.6156 -0.1234  0.3835
 9371TIP3    H149528   2.918   2.370  16.559 -0.6758  0.0003 -1.7902
 9371TIP3    H249529   3.063   2.413  16.575  0.1670 -3.1462 -0.0091
 9372TIP3   OH249530   3.504   4.174  12.890 -0.2716 -0.1271  0.2045
 9372TIP3    H149531   3.513   4.269  12.890 -1.2858 -0.0060 -0.4685
 9372TIP3    H249532   3.579   4.143  12.840 -0.6827  0.4327 -0.7984
 9373TIP3   OH249533   4.087   4.927  12.915 -0.2593 -0.0387 -0.1590
 9373TIP3    H149534   4.168   4.882  12.940  0.6215  1.1270 -0.8078
 9373TIP3    H249535   4.084   4.922  12.820  0.5375  2.2954 -0.3732
 9374TIP3   OH249536   4.992   5.445   5.239 -0.3391 -0.4638  0.1483
 9374TIP3    H149537   5.079   5.482   5.221 -0.5340  0.2711  0.6596
 9374TIP3    H249538   4.949   5.442   5.153  0.1682 -0.7787 -0.0963
 9375TIP3   OH249539   1.957   2.237  13.792 -0.0675  0.2760  0.3454
 9375TIP3    H149540   1.904   2.284  13.856 -1.4381 -0.4108 -0.2244
 9375TIP3    H249541   1.955   2.293  13.714  0.2301  0.3529  0.3938
 9376TIP3   OH249542   4.187   6.208   4.791 -0.6976 -0.4522 -0.0281
 9376TIP3    H149543   4.093   6.193   4.778 -0.6949 -0.2971 -0.2403
 9376TIP3    H249544   4.199   6.300   4.767 -0.8113  0.0674  1.7318
 9377TIP3   OH249545   6.052   0.106   4.630 -0.4333 -0.2195  0.2047
 9377TIP3    H149546   6.083   0.120   4.719  1.2332  3.0764 -0.7292
 9377TIP3    H249547   6.041   0.194   4.594 -0.4714 -1.3940 -3.0246
 9378TIP3   OH249548   1.573   0.972  16.612  0.1521  0.4874 -0.1780
 9378TIP3    H149549   1.642   1.038  16.608 -0.2282  0.8113 -1.7911
 9378TIP3    H249550   1.499   1.017  16.652  1.0199 -0.0517  2.2236
 9379TIP3   OH249551   2.821   6.313  16.433  0.0985  0.1001  0.5472
 9379TIP3    H149552   2.832   6.400  16.470  1.0838  0.1386  0.1830
 9379TIP3    H249553   2.817   6.326  16.339 -1.1877 -0.1231  0.5447
 9380TIP3   OH249554   6.352   4.615  13.119 -0.1647  0.2805 -0.3737
 9380TIP3    H149555   6.434   4.600  13.071 -0.9469 -1.8778 -1.1727
 9380TIP3    H249556   6.292   4.652  13.054  0.3706  2.7606  0.4393
 9381TIP3   OH249557   3.383   3.260  15.821 -0.4148 -0.1426 -0.5123
 9381TIP3    H149558   3.416   3.172  15.803 -1.1601 -0.0962 -2.2683
 9381TIP3    H249559   3.397   3.308  15.739  0.9718  1.7116  0.7281
 9382TIP3   OH249560   3.998   6.282   1.232 -0.4739 -0.4527  0.3573
 9382TIP3    H149561   4.058   6.221   1.190 -0.8114 -0.2342 -0.4774
 9382TIP3    H249562   3.999   6.258   1.325  0.7568 -0.5566  0.3325
 9383TIP3   OH249563   2.013   2.971  10.872 -0.0819  0.4367  0.2139
 9383TIP3    H149564   1.941   2.919  10.907  0.1908  0.9038  1.5349
 9383TIP3    H249565   2.086   2.955  10.933  0.4096  1.2906 -0.1282
 9384TIP3   OH249566   4.892   2.669  16.834 -0.1481  0.3390 -0.4985
 9384TIP3    H149567   4.934   2.656  16.749 -0.1172  2.4576 -0.8562
 9384TIP3    H249568   4.800   2.688  16.813 -0.2380  0.4426 -0.0312
 9385TIP3   OH249569   1.653   5.612  17.175  0.5026 -0.3815 -0.1952
 9385TIP3    H149570   1.728   5.671  17.177 -0.1543  0.4620  0.2232
 9385TIP3    H249571   1.615   5.619  17.263  0.7733 -1.9205  0.0766
 9386TIP3   OH249572   0.848   6.259  13.353 -0.6246 -0.6913 -0.3242
 9386TIP3    H149573   0.918   6.237  13.292 -1.1097 -0.9111 -0.8063
 9386TIP3    H249574   0.871   6.213  13.434  0.4928  0.3222 -0.0351
 9387TIP3   OH249575   6.141   4.940  16.596  0.0994 -0.2579  0.0834
 9387TIP3    H149576   6.230   4.970  16.614 -0.1395  0.1455  0.6116
 9387TIP3    H249577   6.150   4.886  16.518  0.8887 -0.6613  0.4382
 9388TIP3   OH249578   4.328   2.967   1.150 -0.2713  0.0313 -0.0419
 9388TIP3    H149579   4.321   2.916   1.070 -2.6217  1.0143 -0.5214
 9388TIP3    H249580   4.238   2.984   1.176  0.4474  1.1307  1.9247
 9389TIP3   OH249581   3.596   4.945   2.147  0.5496 -0.4460  0.5381
 9389TIP3    H149582   3.640   5.029   2.133 -1.2879  0.5637  0.4518
 9389TIP3    H249583   3.663   4.879   2.131  1.3303  0.9083 -2.3644
 9390TIP3   OH249584   0.943   3.667   1.651 -0.1322  0.0961  0.0006
 9390TIP3    H149585   0.936   3.736   1.716 -0.0041  0.5323 -0.4396
 9390TIP3    H249586   1.016   3.612   1.681 -0.3098  0.0811  0.4111
 9391TIP3   OH249587   2.473   6.316   5.934 -0.8403 -0.6729 -0.1042
 9391TIP3    H149588   2.553   6.276   5.900 -0.7229 -0.0726 -0.5553
 9391TIP3    H249589   2.453   6.267   6.014  1.7483  1.1417  1.8362
 9392TIP3   OH249590   4.461   0.530   3.160  0.5845 -0.1665  0.1874
 9392TIP3    H149591   4.480   0.527   3.067 -1.0312 -1.3442 -0.1541
 9392TIP3    H249592   4.373   0.568   3.166  0.4933 -0.4887  1.1971
 9393TIP3   OH249593   4.543   4.805   5.256  0.1008  0.4676  0.5269
 9393TIP3    H149594   4.538   4.802   5.161 -0.9127  0.4042  0.5745
 9393TIP3    H249595   4.569   4.895   5.276 -1.2753  0.9547  0.2334
 9394TIP3   OH249596   1.621   4.136  14.384 -0.3490 -0.5005  0.7933
 9394TIP3    H149597   1.678   4.172  14.452  1.5211 -1.5213 -0.1393
 9394TIP3    H249598   1.681   4.096  14.321 -2.0873 -0.9328 -0.6875
 9395TIP3   OH249599   3.896   0.388   0.745 -0.2646  1.4275 -0.6312
 9395TIP3    H149600   3.835   0.448   0.701 -0.1979  1.3359 -0.8502
 9395TIP3    H249601   3.967   0.444   0.777 -1.6655  1.9482  1.8777
 9396TIP3   OH249602   1.275   5.949  15.120  0.2761  0.4326  0.5266
 9396TIP3    H149603   1.203   5.980  15.174  0.2096 -1.7971  1.8336
 9396TIP3    H249604   1.352   5.954  15.177  1.1142  2.1809 -0.6482
 9397TIP3   OH249605   5.862   6.166   5.511 -0.1282 -0.0397 -0.4804
 9397TIP3    H149606   5.790   6.137   5.567 -0.0582  0.2148 -0.2581
 9397TIP3    H249607   5.893   6.086   5.468  1.5495 -0.7160  1.8210
 9398TIP3   OH249608   5.105   4.888   2.001  0.5594 -0.3168 -0.4988
 9398TIP3    H149609   5.121   4.978   1.971  0.3743 -0.4336 -0.9479
 9398TIP3    H249610   5.059   4.899   2.085 -0.0644  0.0111 -0.8755
 9399TIP3   OH249611   2.662   1.101   3.273  0.6420 -0.0695 -0.0983
 9399TIP3    H149612   2.651   1.170   3.207  3.0244  0.2268 -0.2797
 9399TIP3    H249613   2.712   1.143   3.343  1.5905 -1.4472  0.0847
 9400TIP3   OH249614   0.442   3.205   1.729 -0.2292 -0.0447 -0.0599
 9400TIP3    H149615   0.385   3.275   1.761 -0.0922 -0.3187  0.8124
 9400TIP3    H249616   0.432   3.209   1.634 -1.9601 -0.2942  0.0661
 9401TIP3   OH249617   4.258   2.843   4.181  0.1418  0.6045  0.3060
 9401TIP3    H149618   4.204   2.827   4.104  1.0896  0.6487 -0.3817
 9401TIP3    H249619   4.221   2.922   4.221 -0.7955  0.1779  0.3110
 9402TIP3   OH249620   4.873   0.433   0.878 -0.3344  0.0959 -0.2167
 9402TIP3    H149621   4.932   0.360   0.892 -2.0376 -1.3096 -0.1085
 9402TIP3    H249622   4.915   0.507   0.923  1.0345 -0.9681  0.3217
 9403TIP3   OH249623   6.476   3.247   3.819 -0.0215  0.6261 -0.4588
 9403TIP3    H149624   6.482   3.256   3.914 -3.5091 -1.2872  0.1224
 9403TIP3    H249625   6.383   3.256   3.799  0.7243  2.4304 -3.9661
 9404TIP3   OH249626   3.022   5.886  16.993  0.0064 -0.1082  0.3609
 9404TIP3    H149627   2.944   5.900  17.047 -0.5926 -0.2130 -0.4630
 9404TIP3    H249628   3.082   5.837  17.050 -0.4006  0.2357  1.1031
 9405TIP3   OH249629   4.289   4.488   3.773  0.4360 -0.7421  0.0740
 9405TIP3    H149630   4.298   4.460   3.864 -2.7750 -1.2778  0.3697
 9405TIP3    H249631   4.306   4.408   3.722  0.1549 -0.9838  0.3551
 9406TIP3   OH249632   5.824   5.404   5.694  0.1443  0.1174  0.3180
 9406TIP3    H149633   5.804   5.497   5.680  1.9533  0.7829  1.6498
 9406TIP3    H249634   5.859   5.401   5.783 -1.1548 -2.1037  0.8156
 9407TIP3   OH249635   6.608   3.320  10.406 -0.0922  0.2037 -0.5277
 9407TIP3    H149636   6.562   3.354  10.483 -0.4113  1.7727 -1.3579
 9407TIP3    H249637   6.647   3.238  10.435 -0.5252  0.5705  1.1919
 9408TIP3   OH249638   5.221   1.012  13.424  0.0197 -0.4004  0.0923
 9408TIP3    H149639   5.188   0.941  13.368 -0.5297 -0.3421  0.3411
 9408TIP3    H249640   5.281   1.061  13.367  0.6354 -1.2368  0.0042
 9409TIP3   OH249641   0.633   1.677   4.725  0.6849 -0.1758 -0.5550
 9409TIP3    H149642   0.569   1.608   4.737  0.5282 -0.0007 -0.3754
 9409TIP3    H249643   0.597   1.752   4.773  1.2388 -0.2075 -0.0885
 9410TIP3   OH249644   1.213   0.850   1.144  0.0524  0.8641 -0.3345
 9410TIP3    H149645   1.172   0.782   1.198 -0.4004 -0.8952 -2.7084
 9410TIP3    H249646   1.307   0.842   1.163 -0.2662  2.2783  2.2446
 9411TIP3   OH249647   6.758   2.823  11.319 -0.3284 -0.2798 -0.5781
 9411TIP3    H149648   6.811   2.764  11.265  0.1419 -0.9366  0.5549
 9411TIP3    H249649   6.692   2.766  11.359 -1.1345  0.3287 -1.0317
 9412TIP3   OH249650   1.743   2.105   5.007  0.2842  0.0094 -0.1474
 9412TIP3    H149651   1.749   2.199   5.024  1.0995 -0.2422  1.1693
 9412TIP3    H249652   1.649   2.087   5.004  0.1219  0.8680 -0.4831
 9413TIP3   OH249653   5.200   3.063   1.066 -0.0881 -0.0464 -0.1177
 9413TIP3    H149654   5.254   3.017   1.001 -1.1383  1.3722 -2.0780
 9413TIP3    H249655   5.158   2.992   1.116  1.3439 -1.1697 -0.4082
 9414TIP3   OH249656   3.425   4.733  15.646  0.1274  0.3260 -0.2111
 9414TIP3    H149657   3.491   4.669  15.620 -1.4417 -0.8791 -1.4438
 9414TIP3    H249658   3.474   4.815  15.658  2.2146 -1.0777  1.5592
 9415TIP3   OH249659   1.981   5.442   5.267 -0.1097 -0.0771 -0.8577
 9415TIP3    H149660   2.052   5.388   5.233  1.3023  1.0295  0.2120
 9415TIP3    H249661   1.976   5.419   5.360  0.5070  1.5406 -0.3849
 9416TIP3   OH249662   4.522   5.530  12.182  0.3609  0.1844 -0.5040
 9416TIP3    H149663   4.579   5.592  12.136  1.2257 -0.9280 -0.9668
 9416TIP3    H249664   4.470   5.489  12.113 -0.2772  0.4560 -0.1896
 9417TIP3   OH249665   2.713   0.658   6.277  0.4082  0.0560  0.0748
 9417TIP3    H149666   2.721   0.745   6.239  0.1678 -0.6523 -1.6721
 9417TIP3    H249667   2.628   0.626   6.246  0.6075 -0.9047  0.4878
 9418TIP3   OH249668   0.538   4.045  16.174  0.2610  0.2227 -0.6215
 9418TIP3    H149669   0.460   3.998  16.143 -1.7210  1.8178  1.5691
 9418TIP3    H249670   0.559   4.105  16.103  0.1160 -0.8944 -1.6376
 9419TIP3   OH249671   1.078   6.227   1.989 -0.2881 -0.6542  0.1986
 9419TIP3    H149672   1.078   6.315   2.026 -0.3665  0.4535 -2.1918
 9419TIP3    H249673   1.050   6.170   2.060  1.1994  1.0356  2.2469
 9420TIP3   OH249674   3.969   0.172  14.789  0.4910 -0.1290  0.3305
 9420TIP3    H149675   3.999   0.083  14.772 -1.2267 -0.8589  0.8109
 9420TIP3    H249676   3.878   0.160  14.818  1.0189  1.5520  2.9987
 9421TIP3   OH249677   3.538   0.823  12.427  0.0141 -0.1061 -0.1216
 9421TIP3    H149678   3.465   0.776  12.468 -0.5885  2.0370  1.4545
 9421TIP3    H249679   3.518   0.822  12.334 -0.4777 -2.0390 -0.0393
 9422TIP3   OH249680   2.390   4.738  14.956 -0.0866  0.2995  0.2275
 9422TIP3    H149681   2.434   4.816  14.921 -0.3268  0.7251  0.8621
 9422TIP3    H249682   2.391   4.676  14.883 -0.7738  1.2415 -0.6144
 9423TIP3   OH249683   6.707   0.341   5.233  0.5780  0.7796 -0.3634
 9423TIP3    H149684   6.630   0.369   5.281 -0.0992 -1.1025 -0.2591
 9423TIP3    H249685   6.781   0.369   5.287 -0.0142  2.2796 -0.2886
 9424TIP3   OH249686   5.569   3.431   5.651  0.2885 -0.1721 -0.0084
 9424TIP3    H149687   5.655   3.396   5.673  0.9602  0.2406 -1.7780
 9424TIP3    H249688   5.585   3.491   5.578 -1.6011 -0.8326 -1.0542
 9425TIP3   OH249689   4.454   1.685  14.193  0.0420 -0.1970  0.6785
 9425TIP3    H149690   4.396   1.633  14.137  1.1869  0.2523 -0.9741
 9425TIP3    H249691   4.402   1.701  14.272 -0.8199 -2.6987  0.7072
 9426TIP3   OH249692   5.346   1.956   3.663 -0.0534  0.2906 -0.7221
 9426TIP3    H149693   5.284   1.990   3.598 -0.3886 -0.2308 -0.6834
 9426TIP3    H249694   5.299   1.883   3.704  0.0829  0.7370  0.2379
 9427TIP3   OH249695   6.734   4.903   0.385  0.1163  0.1447 -0.1995
 9427TIP3    H149696   6.695   4.922   0.300  0.2586  1.2987 -0.0143
 9427TIP3    H249697   6.825   4.882   0.365 -0.1566 -0.8475 -0.4523
 9428TIP3   OH249698   3.606   5.823  12.555 -0.6655  0.1160  0.3727
 9428TIP3    H149699   3.586   5.893  12.493 -1.9552 -0.5594 -0.0087
 9428TIP3    H249700   3.697   5.800  12.537 -0.8354  0.3375 -0.8787
 9429TIP3   OH249701   1.540   2.939   5.377  0.1114  0.1507 -0.6497
 9429TIP3    H149702   1.464   2.985   5.343  1.2009  1.7698 -1.0365
 9429TIP3    H249703   1.504   2.870   5.432 -1.6454 -0.1430 -2.0705
 9430TIP3   OH249704   4.646   1.218  16.402  0.1279 -0.0993 -0.2081
 9430TIP3    H149705   4.588   1.253  16.334 -0.6080  0.4812  0.7020
 9430TIP3    H249706   4.598   1.144  16.438  0.9224 -0.9959 -0.9316
 9431TIP3   OH249707   4.413   6.394   0.204 -0.3811  0.0703  0.0791
 9431TIP3    H149708   4.341   6.456   0.216  0.1083  0.8715 -0.9887
 9431TIP3    H249709   4.432   6.362   0.292 -1.4732  0.4836  0.4789
 9432TIP3   OH249710   6.513   6.012   3.900  0.1597  0.3261 -0.6927
 9432TIP3    H149711   6.605   6.036   3.892  0.0320  0.8569 -0.5749
 9432TIP3    H249712   6.482   6.006   3.810  0.5451 -0.7866 -0.7623
 9433TIP3   OH249713   2.063   4.214  12.425  0.4536 -0.3756  0.3526
 9433TIP3    H149714   2.016   4.186  12.503  0.1835  1.1907  0.7826
 9433TIP3    H249715   2.036   4.151  12.357  0.0913 -1.2856  1.3081
 9434TIP3   OH249716   5.912   0.226   1.910 -0.5075  0.6294 -0.2958
 9434TIP3    H149717   5.930   0.248   2.001  2.1700 -1.2123 -0.2748
 9434TIP3    H249718   5.820   0.200   1.910 -0.9576  1.9683  1.5641
 9435TIP3   OH249719   0.021   4.868   2.392  0.9227 -0.6164  1.0697
 9435TIP3    H149720   0.021   4.801   2.460 -0.3800 -0.7163  0.9956
 9435TIP3    H249721  -0.020   4.826   2.317  0.7277  0.0498  0.7981
 9436TIP3   OH249722   2.405   1.680   2.305  0.0279  0.2160 -0.6220
 9436TIP3    H149723   2.420   1.751   2.368  0.6403 -0.0359 -0.4796
 9436TIP3    H249724   2.410   1.600   2.356  2.3896 -0.1261 -1.2271
 9437TIP3   OH249725   1.571   0.274  12.724  0.1790  0.1589  0.2800
 9437TIP3    H149726   1.662   0.254  12.748 -0.1828 -0.4220  1.2195
 9437TIP3    H249727   1.565   0.369  12.730  0.7191  0.1991  0.2354
 9438TIP3   OH249728   5.285   4.852   3.836 -0.8185  0.3782 -0.5304
 9438TIP3    H149729   5.191   4.861   3.816 -1.2477 -1.6153  0.3696
 9438TIP3    H249730   5.300   4.758   3.840  0.2775  0.5523  3.3168
 9439TIP3   OH249731   5.008   4.426  13.579 -0.4684  0.0068 -0.3054
 9439TIP3    H149732   4.981   4.450  13.491 -1.9628  0.7676  0.3198
 9439TIP3    H249733   4.964   4.343  13.597 -2.2900  1.0889  0.5958
 9440TIP3   OH249734   5.365   2.608  10.570 -0.2522 -0.5513  0.2664
 9440TIP3    H149735   5.271   2.596  10.561 -0.5623  1.2632  0.6846
 9440TIP3    H249736   5.379   2.618  10.664  0.0639  0.9894  0.0905
 9441TIP3   OH249737   2.366   0.402  11.562  0.6324  0.0362  0.0290
 9441TIP3    H149738   2.308   0.435  11.493  1.5555  0.9462 -0.3390
 9441TIP3    H249739   2.454   0.415  11.527  1.0799 -1.3974  0.5462
 9442TIP3   OH249740   3.073   4.751   1.423 -0.6602  0.0668  0.1877
 9442TIP3    H149741   3.107   4.698   1.350  2.3990  0.7321  0.9945
 9442TIP3    H249742   3.094   4.700   1.501 -3.6275 -0.4924  0.7162
 9443TIP3   OH249743   1.355   0.781  14.761 -0.5891  0.1848 -0.5030
 9443TIP3    H149744   1.284   0.839  14.789 -0.1481  0.5765 -0.1683
 9443TIP3    H249745   1.338   0.699  14.806 -0.2688  0.5985  0.4071
 9444TIP3   OH249746   2.225   0.920  15.621  0.2692  0.5933 -0.0370
 9444TIP3    H149747   2.150   0.890  15.672  1.8757 -1.0840  1.5348
 9444TIP3    H249748   2.264   0.839  15.587  1.0056  1.4708 -1.3859
 9445TIP3   OH249749   1.965   5.785   1.747  0.4051 -0.3846 -0.2848
 9445TIP3    H149750   1.888   5.840   1.737  1.5252  0.9610 -2.1870
 9445TIP3    H249751   1.953   5.716   1.682  0.1967 -0.9413  0.3387
 9446TIP3   OH249752   3.594   6.553   4.136  0.4408 -0.6741  0.1395
 9446TIP3    H149753   3.632   6.612   4.071 -0.9208  0.7647  0.5957
 9446TIP3    H249754   3.612   6.595   4.220  1.2846 -2.0021  0.6485
 9447TIP3   OH249755   3.621   1.888   0.460 -0.3120  0.3797  0.2407
 9447TIP3    H149756   3.695   1.941   0.489 -0.9672  0.9303  0.9257
 9447TIP3    H249757   3.544   1.943   0.473 -0.7401  0.3627 -1.7723
 9448TIP3   OH249758   4.466   5.380   6.107 -0.6503 -0.8727 -0.2548
 9448TIP3    H149759   4.473   5.458   6.051  1.5964 -1.5625 -1.0157
 9448TIP3    H249760   4.459   5.307   6.046  0.7052 -1.5368  0.3480
 9449TIP3   OH249761   6.730   5.084   4.717  0.4886 -0.6854  0.4222
 9449TIP3    H149762   6.653   5.038   4.684 -1.2345  0.6853  2.2297
 9449TIP3    H249763   6.731   5.064   4.810  1.4132  0.5290  0.6976
 9450TIP3   OH249764   6.255   2.563  16.402 -0.4213 -0.5124 -0.3552
 9450TIP3    H149765   6.321   2.530  16.463  1.0694  2.4241 -0.1957
 9450TIP3    H249766   6.182   2.591  16.458  0.3399  0.8320  0.0123
 9451TIP3   OH249767   4.842   1.547  13.193 -0.8761 -0.3016 -0.1245
 9451TIP3    H149768   4.907   1.501  13.245 -1.9528 -1.3555  0.3490
 9451TIP3    H249769   4.758   1.514  13.225 -1.6943  1.6393 -0.1160
 9452TIP3   OH249770   2.964   5.246   3.774 -0.4465 -0.1939 -0.0241
 9452TIP3    H149771   2.921   5.168   3.740  1.0350 -0.9199 -0.3449
 9452TIP3    H249772   2.961   5.236   3.869 -0.3253 -0.6243 -0.0622
 9453TIP3   OH249773   4.199   4.426   5.210  0.1782 -0.2559  0.2431
 9453TIP3    H149774   4.220   4.357   5.273  0.9095  0.0740  0.3705
 9453TIP3    H249775   4.257   4.498   5.233 -0.6969  0.4756  0.2130
 9454TIP3   OH249776   5.760   5.661   5.685 -0.2184 -0.4126  0.0300
 9454TIP3    H149777   5.791   5.744   5.721  1.2975 -0.2752 -1.4413
 9454TIP3    H249778   5.693   5.631   5.746  0.2229  1.1828  1.3563
 9455TIP3   OH249779   2.698   2.125  16.834 -0.1386  0.3392  0.5713
 9455TIP3    H149780   2.616   2.130  16.884 -0.4954 -0.8960  0.1368
 9455TIP3    H249781   2.767   2.134  16.900 -0.5917  2.3771  0.8332
 9456TIP3   OH249782   1.385   0.273   2.044 -0.0199 -0.3436  0.4598
 9456TIP3    H149783   1.454   0.312   2.098  0.5229 -1.2489  0.4459
 9456TIP3    H249784   1.328   0.228   2.106  1.4784 -2.7442  0.2482
 9457TIP3   OH249785   1.490   0.590  16.828  0.8270 -0.2961  0.0837
 9457TIP3    H149786   1.556   0.611  16.762 -0.1762 -0.5838 -1.0463
 9457TIP3    H249787   1.510   0.501  16.856  1.7167  0.0943  0.7738
 9458TIP3   OH249788   4.376   1.014   2.463  0.5535 -0.0770  0.3750
 9458TIP3    H149789   4.318   0.972   2.400 -0.4982 -0.6147  1.6618
 9458TIP3    H249790   4.335   1.098   2.482  1.5836  0.6827 -0.6509
 9459TIP3   OH249791   4.325   3.307  16.706 -0.3980  0.4055  0.0069
 9459TIP3    H149792   4.298   3.248  16.635  1.7358  1.5660 -1.9357
 9459TIP3    H249793   4.278   3.389  16.689 -0.5217  0.4202  0.4255
 9460TIP3   OH249794   3.290   4.530   5.903  0.2050  0.3511 -0.5034
 9460TIP3    H149795   3.365   4.555   5.957 -0.3009  0.6924  0.0507
 9460TIP3    H249796   3.251   4.457   5.950  0.4813 -0.1696 -1.0610
 9461TIP3   OH249797   5.824   1.757   3.076 -0.1849 -0.1946  0.5486
 9461TIP3    H149798   5.747   1.702   3.085  0.4590 -1.2319 -0.0633
 9461TIP3    H249799   5.819   1.791   2.986  0.8625 -1.5737 -0.0832
 9462TIP3   OH249800   1.902   3.113  16.665  0.3862 -0.1538 -0.2668
 9462TIP3    H149801   1.973   3.071  16.616  2.1534  0.8237  1.3045
 9462TIP3    H249802   1.834   3.130  16.600  2.3485  0.5326 -2.2592
 9463TIP3   OH249803   1.032   4.208   2.866  0.3864  0.1240  0.0164
 9463TIP3    H149804   0.986   4.292   2.862 -1.7842 -1.0410 -1.9492
 9463TIP3    H249805   1.000   4.168   2.947 -2.3761 -0.7345 -1.3964
 9464TIP3   OH249806   0.058   1.575  14.565  0.1327  0.7991  0.3460
 9464TIP3    H149807  -0.031   1.603  14.544  0.2101  1.5093  0.9097
 9464TIP3    H249808   0.109   1.594  14.486  0.4815  3.6880  1.1555
 9465TIP3   OH249809   2.091   5.672  12.971  0.4186  0.0059  0.6402
 9465TIP3    H149810   2.084   5.586  13.011 -1.9454  0.2280  0.8294
 9465TIP3    H249811   2.082   5.655  12.877  1.0517 -0.0381  0.5826
 9466TIP3   OH249812   3.228   1.662   5.028 -0.2328  0.1137 -0.3280
 9466TIP3    H149813   3.292   1.627   5.090 -1.4934 -0.2084  0.8381
 9466TIP3    H249814   3.251   1.623   4.944  1.4717  0.4969 -0.0728
 9467TIP3   OH249815   5.330   3.428  10.951 -0.0224  0.3045 -0.0819
 9467TIP3    H149816   5.374   3.468  10.875  0.6788 -1.8710 -0.8977
 9467TIP3    H249817   5.320   3.336  10.927 -0.8440 -0.2123  2.0272
 9468TIP3   OH249818   2.705   5.190   2.452  0.4258  0.1935  0.2613
 9468TIP3    H149819   2.618   5.229   2.454  0.3386  0.0467 -0.3433
 9468TIP3    H249820   2.696   5.107   2.498  0.2415  0.1740  0.1894
 9469TIP3   OH249821   4.243   2.456  15.465  0.0816 -0.4166  0.0585
 9469TIP3    H149822   4.293   2.426  15.541  0.3009 -1.0954 -0.3412
 9469TIP3    H249823   4.152   2.432  15.484 -0.2952  1.7126  1.2353
 9470TIP3   OH249824   6.746   1.771   0.361  0.0466  0.0113  0.1831
 9470TIP3    H149825   6.670   1.724   0.325 -0.5317  0.4347  0.8114
 9470TIP3    H249826   6.766   1.725   0.442  0.2406  0.1118  0.1916
 9471TIP3   OH249827   3.782   6.027   3.906 -0.5619  0.5919 -0.0166
 9471TIP3    H149828   3.778   6.072   3.821  0.1362 -0.4345 -0.6201
 9471TIP3    H249829   3.861   5.973   3.900 -0.1022  1.0424  1.5707
 9472TIP3   OH249830   3.005   2.384   1.369  0.4109  0.3321  0.2920
 9472TIP3    H149831   2.929   2.331   1.345  0.1002  0.3833  1.1400
 9472TIP3    H249832   3.074   2.320   1.387  0.1165  0.2104  1.0408
 9473TIP3   OH249833   2.344   3.851   5.840 -0.1931  0.2487  0.4235
 9473TIP3    H149834   2.290   3.917   5.798 -1.1245 -0.6186  0.2194
 9473TIP3    H249835   2.351   3.781   5.775 -0.0717 -0.2955  1.0146
 9474TIP3   OH249836   2.260   0.755   3.863 -0.1024 -0.0812 -0.2976
 9474TIP3    H149837   2.232   0.712   3.944  0.8252 -1.0242 -0.4630
 9474TIP3    H249838   2.189   0.737   3.801 -0.0863 -0.6951 -0.1426
 9475TIP3   OH249839   4.109   6.272  14.826  0.5547  0.4812  0.5552
 9475TIP3    H149840   4.036   6.301  14.880 -1.5523 -0.6902 -1.4927
 9475TIP3    H249841   4.136   6.189  14.865 -0.1369  0.2390  0.5249
 9476TIP3   OH249842   4.316   0.916  13.972  0.2856  0.0325 -0.0835
 9476TIP3    H149843   4.408   0.895  13.991  0.5480  0.7246 -0.5764
 9476TIP3    H249844   4.300   0.998  14.017 -0.0552 -0.0218 -0.1052
 9477TIP3   OH249845   5.589   2.135   1.214  0.7113 -0.1197  0.1874
 9477TIP3    H149846   5.524   2.202   1.236  1.0446  0.6599 -1.1157
 9477TIP3    H249847   5.671   2.167   1.252  0.3710 -1.1707  1.9531
 9478TIP3   OH249848   5.183   4.106  14.239 -0.0103  0.0446  0.2034
 9478TIP3    H149849   5.118   4.166  14.276 -0.0329 -0.0465  0.3135
 9478TIP3    H249850   5.234   4.160  14.179  1.1379  0.6253  1.6487
 9479TIP3   OH249851   5.765   2.604   0.445  0.2857 -0.5849 -0.5655
 9479TIP3    H149852   5.853   2.583   0.413  1.4760  0.5085  1.7184
 9479TIP3    H249853   5.768   2.698   0.461 -0.8799 -0.7460  0.7270
 9480TIP3   OH249854   0.009   4.733   6.441  0.1804  0.7555  1.0172
 9480TIP3    H149855  -0.084   4.753   6.438  0.0890  0.3299  1.0242
 9480TIP3    H249856   0.024   4.701   6.530  0.0450 -0.5931  0.5625
 9481TIP3   OH249857   5.213   3.269   0.818 -0.0394  0.0730  0.5383
 9481TIP3    H149858   5.213   3.358   0.852 -0.4304 -0.6348  2.5776
 9481TIP3    H249859   5.304   3.240   0.825  0.1301  0.3641 -0.3372
 9482TIP3   OH249860   5.253   3.616  12.122 -0.0063 -0.0113  0.1601
 9482TIP3    H149861   5.347   3.613  12.138  0.1947  0.5051 -0.8138
 9482TIP3    H249862   5.225   3.525  12.128  0.3405 -0.0537  1.5506
 9483TIP3   OH249863   4.106   1.738  10.959 -0.5114  0.2558 -0.0082
 9483TIP3    H149864   4.013   1.715  10.957 -0.4067 -0.1254 -0.9456
 9483TIP3    H249865   4.107   1.834  10.954 -0.8358  0.2178 -0.8829
 9484TIP3   OH249866   3.199   1.526  13.958 -0.3852  0.4903 -0.2214
 9484TIP3    H149867   3.141   1.465  14.002 -1.9151  2.0114 -0.0243
 9484TIP3    H249868   3.275   1.533  14.015 -1.9173  1.7184  1.7895
 9485TIP3   OH249869   5.698   2.840   5.221 -0.0703 -0.0068  0.5176
 9485TIP3    H149870   5.622   2.898   5.224 -0.7084 -0.8874  1.9444
 9485TIP3    H249871   5.769   2.897   5.190 -0.1373  2.2593  3.9238
 9486TIP3   OH249872   4.077   1.292   4.857  0.1870  0.1516  0.0913
 9486TIP3    H149873   4.080   1.202   4.825 -1.7663  0.4710 -1.1106
 9486TIP3    H249874   3.987   1.320   4.843  0.4954  1.9781  1.3855
 9487TIP3   OH249875   5.853   4.495   0.693  0.0809 -0.7091  0.3567
 9487TIP3    H149876   5.887   4.517   0.780 -2.0325  0.9132  0.8692
 9487TIP3    H249877   5.796   4.569   0.671  0.5179 -1.1120 -2.4162
 9488TIP3   OH249878   2.977   6.675   1.784 -0.3384  0.4875 -0.0227
 9488TIP3    H149879   2.955   6.716   1.701 -0.0409 -0.5784 -0.6454
 9488TIP3    H249880   3.073   6.679   1.788 -0.2660 -0.6916 -0.3872
 9489TIP3   OH249881   5.715   6.292   0.198  0.0133 -0.2176 -0.2984
 9489TIP3    H149882   5.739   6.356   0.131  0.3222 -0.1413 -0.1194
 9489TIP3    H249883   5.621   6.305   0.212  0.2135  0.7259  0.2808
 9490TIP3   OH249884   0.319   1.093   5.143  0.9090  0.0839  0.2117
 9490TIP3    H149885   0.309   1.119   5.234 -0.4571 -0.2519  0.1732
 9490TIP3    H249886   0.381   1.019   5.146  1.2828  0.4188  0.7964
 9491TIP3   OH249887   6.031   3.965  12.206 -0.4563  0.6403 -0.2352
 9491TIP3    H149888   6.069   3.877  12.206  2.0175  1.6442 -0.5444
 9491TIP3    H249889   5.944   3.953  12.168 -0.6973 -1.8446  0.8838
 9492TIP3   OH249890   3.037   0.943  16.128  0.4767  0.1214  0.2157
 9492TIP3    H149891   3.013   0.975  16.041 -3.0993 -0.8245  0.6892
 9492TIP3    H249892   2.983   0.995  16.188  0.0687 -1.7357  1.5334
 9493TIP3   OH249893   5.428   3.446   1.878 -0.1090 -0.0067 -0.2796
 9493TIP3    H149894   5.420   3.475   1.969 -0.7982  0.2054 -0.4007
 9493TIP3    H249895   5.486   3.510   1.837  2.3589 -1.5475  0.6173
 9494TIP3   OH249896   5.985   2.770   1.689  0.0056  0.1779  0.1320
 9494TIP3    H149897   5.965   2.857   1.723 -2.5510 -0.3842  0.3066
 9494TIP3    H249898   6.067   2.780   1.641  0.0208  2.5486  0.5637
 9495TIP3   OH249899   4.099   4.809   1.459 -0.0311  1.1521  0.5918
 9495TIP3    H149900   4.147   4.747   1.514  1.4213  1.1863 -0.5693
 9495TIP3    H249901   4.024   4.835   1.512  0.7704  0.4374  2.1511
 9496TIP3   OH249902   2.032   5.053  14.473 -0.0262  0.1362  0.3210
 9496TIP3    H149903   1.960   5.115  14.481  1.8284  2.2989  1.1703
 9496TIP3    H249904   2.039   5.037  14.379 -0.3231  1.5287  0.0361
 9497TIP3   OH249905   4.829   0.117  14.478  0.0289 -0.5210  0.2722
 9497TIP3    H149906   4.812   0.211  14.483  1.1101 -0.2686 -0.4182
 9497TIP3    H249907   4.916   0.107  14.516 -0.0878 -1.2417  0.3483
 9498TIP3   OH249908   2.177   0.180  11.290  1.0981 -0.1069 -0.1197
 9498TIP3    H149909   2.160   0.163  11.197  1.1062 -0.9224  0.0254
 9498TIP3    H249910   2.268   0.153  11.303  1.0028 -0.2743  0.1969
 9499TIP3   OH249911   4.701   6.777   1.897 -0.0527 -0.2999  0.4952
 9499TIP3    H149912   4.691   6.786   1.992  0.3174 -0.6890  0.5756
 9499TIP3    H249913   4.690   6.683   1.880 -1.8764 -0.0123 -0.0775
 9500TIP3   OH249914   5.527   1.548  16.920 -0.2797 -0.2973 -0.4289
 9500TIP3    H149915   5.522   1.644  16.919  1.0727 -0.1671  0.9462
 9500TIP3    H249916   5.461   1.520  16.857  0.4037  1.5862 -2.0925
 9501TIP3   OH249917   0.025   0.724  12.602  0.3310 -0.3845  0.4189
 9501TIP3    H149918  -0.018   0.804  12.573 -0.3250 -0.4643  1.1354
 9501TIP3    H249919  -0.047   0.663  12.618  0.8104 -1.0424  0.1203
 9502TIP3   OH249920   5.921   1.096  16.265  0.1225  0.0398 -0.0597
 9502TIP3    H149921   5.943   1.187  16.287  0.3961  0.1248 -0.6881
 9502TIP3    H249922   5.962   1.044  16.335  1.1922  0.2907 -0.4839
 9503TIP3   OH249923   1.662   4.934   2.544  0.0001  0.3606 -0.4361
 9503TIP3    H149924   1.605   4.962   2.473  0.6370  0.2955 -0.9860
 9503TIP3    H249925   1.743   4.983   2.531  0.9159 -1.2351 -1.0678
 9504TIP3   OH249926   4.019   4.333  15.230  0.1969  0.0216  0.1466
 9504TIP3    H149927   3.977   4.397  15.173 -1.8978  0.2072  1.8173
 9504TIP3    H249928   4.112   4.355  15.226 -0.0930  1.1322 -1.7595
 9505TIP3   OH249929   1.977   0.475   3.116  0.7417 -0.2507  0.4966
 9505TIP3    H149930   1.990   0.491   3.210 -2.9705 -0.7998  1.2819
 9505TIP3    H249931   1.984   0.561   3.076  1.9097  0.0666  1.3376
 9506TIP3   OH249932   3.580   4.128   5.810 -0.2953 -0.3896  0.1470
 9506TIP3    H149933   3.556   4.098   5.898 -1.5047 -2.0874 -0.7117
 9506TIP3    H249934   3.627   4.054   5.771 -0.7383 -0.0741 -1.0186
 9507TIP3   OH249935   3.154   1.814   4.801  0.2684  0.4906  0.4319
 9507TIP3    H149936   3.121   1.724   4.796  1.3976  0.0888 -0.1088
 9507TIP3    H249937   3.189   1.821   4.889 -1.4508  1.0143  1.1146
 9508TIP3   OH249938   6.759   0.704  16.949  0.3695 -0.3561 -0.0283
 9508TIP3    H149939   6.789   0.670  16.865  0.1403 -1.6691  0.4032
 9508TIP3    H249940   6.780   0.635  17.012 -2.3054 -0.8171  0.5098
 9509TIP3   OH249941   5.074   6.635   5.040 -0.7020 -0.2172  0.1899
 9509TIP3    H149942   4.990   6.680   5.028 -0.9612 -0.6815  0.2761
 9509TIP3    H249943   5.063   6.550   4.998  0.1090  0.1545 -0.8073
 9510TIP3   OH249944   0.842   2.169   3.040 -0.0979  0.1763  0.1927
 9510TIP3    H149945   0.928   2.137   3.065  0.5611  2.1629  0.6829
 9510TIP3    H249946   0.804   2.201   3.121 -1.2642 -0.5461 -0.0471
 9511TIP3   OH249947   4.481   5.414   0.913 -0.6925 -0.2910 -0.6162
 9511TIP3    H149948   4.536   5.335   0.913  0.9129  0.7559  0.1887
 9511TIP3    H249949   4.433   5.410   0.995 -0.7079 -0.4934 -0.6347
 9512TIP3   OH249950   3.786   2.576  12.442  0.6796 -0.1212 -0.0609
 9512TIP3    H149951   3.811   2.596  12.352  1.2054 -0.3848  0.0239
 9512TIP3    H249952   3.694   2.602  12.447  0.6926  0.0557 -0.6240
 9513TIP3   OH249953   2.681   0.387  12.049 -0.6561 -0.4097 -0.2339
 9513TIP3    H149954   2.600   0.426  12.015 -0.9754 -0.4038  0.5273
 9513TIP3    H249955   2.661   0.294  12.059 -0.5632 -0.4094 -0.0471
 9514TIP3   OH249956   3.023   1.340   5.361  0.0933  0.1486 -0.1582
 9514TIP3    H149957   2.962   1.365   5.291  1.0766 -1.6909 -1.7848
 9514TIP3    H249958   3.074   1.420   5.378 -0.6681  0.8347 -1.0069
 9515TIP3   OH249959   0.093   3.981   5.599 -0.5520  0.3393  0.5097
 9515TIP3    H149960   0.117   4.027   5.518  1.8086 -2.5047 -0.6074
 9515TIP3    H249961   0.104   3.888   5.577 -1.7480 -0.6217  3.5696
 9516TIP3   OH249962   1.730   6.062  11.774 -0.2537 -0.1032  0.3799
 9516TIP3    H149963   1.668   6.114  11.825 -1.0632 -2.1011  1.5940
 9516TIP3    H249964   1.674   6.004  11.722  0.6041 -0.4539 -0.1696
 9517TIP3   OH249965   5.787   4.687  14.386 -0.0319 -0.1260 -0.0503
 9517TIP3    H149966   5.700   4.657  14.360 -0.3332  0.5310  0.1813
 9517TIP3    H249967   5.807   4.759  14.326  1.2321 -1.5599 -1.4503
 9518TIP3   OH249968   6.673   4.022   4.585 -0.7883 -0.1709 -0.2732
 9518TIP3    H149969   6.764   4.036   4.611 -0.9325 -1.0605  0.7738
 9518TIP3    H249970   6.624   4.086   4.637 -0.7373  0.5243 -1.0721
 9519TIP3   OH249971   4.737   1.908   1.041  0.6335 -0.0390  0.7428
 9519TIP3    H149972   4.725   2.001   1.059  0.6706  0.8829 -3.1391
 9519TIP3    H249973   4.665   1.885   0.981  0.2945 -2.7029  2.0301
 9520TIP3   OH249974   3.771   6.591  14.929 -0.0750  0.4181  0.6386
 9520TIP3    H149975   3.692   6.641  14.908 -0.0397  0.1696 -0.1239
 9520TIP3    H249976   3.758   6.507  14.886  0.7687  0.5041  0.1847
 9521TIP3   OH249977   6.319   1.665  12.191  0.0583  0.0780  0.7977
 9521TIP3    H149978   6.273   1.647  12.272 -1.8579 -0.3504 -0.3221
 9521TIP3    H249979   6.310   1.584  12.140 -0.4242  0.9698 -0.5788
 9522TIP3   OH249980   1.862   0.174   3.852  0.2013 -0.3320 -0.5732
 9522TIP3    H149981   1.833   0.193   3.762  1.1487  1.5461 -0.5270
 9522TIP3    H249982   1.957   0.185   3.850  0.0866  1.5763  1.0227
 9523TIP3   OH249983   2.282   0.648  13.436 -0.2000  0.0922 -0.2783
 9523TIP3    H149984   2.243   0.699  13.508 -0.1158 -0.1615 -0.0503
 9523TIP3    H249985   2.234   0.565  13.437 -0.2762  0.1334 -0.5906
 9524TIP3   OH249986   1.008   3.576  11.623  0.1526 -0.2380 -0.9627
 9524TIP3    H149987   0.915   3.566  11.606  0.1153  1.9652 -2.4046
 9524TIP3    H249988   1.050   3.557  11.539  0.8522  0.4156 -0.7767
 9525TIP3   OH249989   2.612   2.349  12.945  0.2109 -0.1255 -0.4035
 9525TIP3    H149990   2.554   2.425  12.942 -1.9365 -1.6258  0.5469
 9525TIP3    H249991   2.677   2.370  13.012  0.4968  1.3923 -1.1263
 9526TIP3   OH249992   1.550   0.756  17.172  0.0338  0.0336 -0.2298
 9526TIP3    H149993   1.476   0.707  17.135  0.3144  1.0303 -2.2540
 9526TIP3    H249994   1.546   0.738  17.266 -1.4945 -1.6384 -0.5550
 9527TIP3   OH249995   0.961   1.847  15.595  0.2818 -0.5294  0.5627
 9527TIP3    H149996   0.992   1.846  15.504 -0.5022  1.3224  0.2180
 9527TIP3    H249997   1.041   1.857  15.647  0.7063 -1.2285  0.0612
 9528TIP3   OH249998   6.007   2.070   2.624 -0.0581 -0.6511  0.3723
 9528TIP3    H149999   6.055   1.988   2.618 -0.2510 -0.6546 -1.4795
 9528TIP3    H250000   6.067   2.136   2.589  0.1181  0.0545  1.8857
 9529TIP3   OH250001   0.672   1.278   4.867  0.3250  0.3658 -0.6300
 9529TIP3    H150002   0.635   1.198   4.831  2.0243  0.4948 -2.8375
 9529TIP3    H250003   0.600   1.342   4.863 -1.1902 -1.0772  1.5990
 9530TIP3   OH250004   4.256   4.476  10.620 -0.0560  0.4371 -0.0171
 9530TIP3    H150005   4.169   4.440  10.602  0.0880  0.1548 -0.1425
 9530TIP3    H250006   4.243   4.571  10.617  0.0062  0.4318 -1.8795
 9531TIP3   OH250007   2.297   5.483  16.381 -0.0545 -0.2423 -0.2603
 9531TIP3    H150008   2.301   5.399  16.336  1.6906  0.8157 -2.2333
 9531TIP3    H250009   2.213   5.521  16.354  0.4964 -0.0894 -1.8501
 9532TIP3   OH250010   0.248   2.592   3.205  0.5714  0.2586 -0.1486
 9532TIP3    H150011   0.307   2.546   3.266  0.7329 -0.8492 -1.1163
 9532TIP3    H250012   0.217   2.524   3.146 -0.0007  1.2319 -0.9891
 9533TIP3   OH250013   3.267   0.560   3.859  0.8691  0.2208  0.1094
 9533TIP3    H150014   3.192   0.535   3.805  1.6915  1.1731 -1.5455
 9533TIP3    H250015   3.258   0.654   3.871  1.2939  0.1909  0.6966
 9534TIP3   OH250016   5.541   0.614   1.714 -0.0941  0.5812  0.2608
 9534TIP3    H150017   5.514   0.594   1.625 -0.6409  2.1843  0.0417
 9534TIP3    H250018   5.460   0.625   1.763  0.1969  0.3213  0.8180
 9535TIP3   OH250019   0.935   3.914  14.379  0.2595  0.1809  0.2688
 9535TIP3    H150020   0.901   3.871  14.300  0.4588  1.1273 -0.3533
 9535TIP3    H250021   0.954   3.843  14.439 -2.3924 -0.4472  0.4836
 9536TIP3   OH250022   0.904   6.730  13.054 -0.3376 -0.3666 -0.6006
 9536TIP3    H150023   0.984   6.694  13.016 -0.3697 -1.3105  0.1814
 9536TIP3    H250024   0.837   6.664  13.036 -0.8821  0.2876 -1.0014
 9537TIP3   OH250025   6.131   0.155   6.688 -0.0781  0.4081  0.5373
 9537TIP3    H150026   6.049   0.201   6.668  0.7310  1.3101 -0.8049
 9537TIP3    H250027   6.104   0.065   6.706 -1.3274  0.6020 -0.2431
 9538TIP3   OH250028   0.249   3.336   2.680 -0.1927  0.6808  0.4847
 9538TIP3    H150029   0.203   3.330   2.596 -1.2919 -1.0962  1.1418
 9538TIP3    H250030   0.241   3.428   2.705  0.5418  1.3617 -1.5237
 9539TIP3   OH250031   1.055   4.051   2.030  0.5234  0.4779  0.4090
 9539TIP3    H150032   1.044   3.972   1.978 -0.2836  0.2978  0.8381
 9539TIP3    H250033   1.150   4.060   2.041  0.5845 -1.0370  1.2915
 9540TIP3   OH250034   6.429   6.459   5.295  0.4764  0.0873 -0.4771
 9540TIP3    H150035   6.511   6.495   5.330  0.9705 -0.9969 -0.4722
 9540TIP3    H250036   6.402   6.393   5.359 -0.7153  0.8221 -0.1955
 9541TIP3   OH250037   0.610   5.482  14.038 -0.1247 -0.5874 -0.0746
 9541TIP3    H150038   0.564   5.516  14.115 -2.3598  0.3916 -1.7466
 9541TIP3    H250039   0.682   5.543  14.025 -0.5426  0.0301  0.4362
 9542TIP3   OH250040   4.582   2.589   6.559 -0.3018  0.2665 -0.2478
 9542TIP3    H150041   4.498   2.580   6.604 -0.8085 -2.6168 -1.5556
 9542TIP3    H250042   4.646   2.549   6.617 -0.3290 -0.0896 -0.4590
 9543TIP3   OH250043   0.552   3.904   1.620  0.2332  0.0176 -0.3603
 9543TIP3    H150044   0.507   3.891   1.703  2.9658  0.0728  1.2313
 9543TIP3    H250045   0.489   3.873   1.554 -1.3710 -1.7163  1.8185
 9544TIP3   OH250046   1.005   6.111   1.750 -0.2193 -0.1614 -0.0426
 9544TIP3    H150047   0.970   6.045   1.810 -0.1546  0.2019  0.3999
 9544TIP3    H250048   1.037   6.181   1.807  0.9789 -0.3604 -0.4458
 9545TIP3   OH250049   0.038   2.160  15.073 -0.1644  0.6867  0.6356
 9545TIP3    H150050   0.109   2.162  15.009 -1.0014  0.9790 -0.3162
 9545TIP3    H250051   0.067   2.218  15.144 -0.1114  2.0975 -0.4906
 9546TIP3   OH250052   0.621   1.282  13.358 -0.6926 -0.3776 -0.6231
 9546TIP3    H150053   0.686   1.263  13.291  1.0483  1.7855  0.3292
 9546TIP3    H250054   0.658   1.245  13.438 -1.3753 -0.4374 -0.3281
 9547TIP3   OH250055   0.049   4.323   5.306 -0.5676 -0.6394  0.5627
 9547TIP3    H150056   0.040   4.387   5.236 -1.2143  0.7034  1.8019
 9547TIP3    H250057   0.140   4.294   5.302 -0.1207  0.7502  0.2679
 9548TIP3   OH250058   4.635   2.242   0.136 -0.5109  0.9096 -0.0998
 9548TIP3    H150059   4.610   2.257   0.045 -0.8087  0.0468 -0.1654
 9548TIP3    H250060   4.596   2.315   0.184 -3.4686 -0.5317 -0.1522
 9549TIP3   OH250061   0.649   2.670   5.789  0.2617  0.2820 -0.1476
 9549TIP3    H150062   0.744   2.673   5.776  0.5871 -0.1830  1.7821
 9549TIP3    H250063   0.638   2.622   5.871 -1.6943 -0.2830 -0.7013
 9550TIP3   OH250064   0.378   6.151   3.936  0.0698 -0.0941  0.0057
 9550TIP3    H150065   0.308   6.213   3.957  0.2731  0.4238 -0.8194
 9550TIP3    H250066   0.360   6.124   3.846 -0.3798 -1.7445  0.5607
 9551TIP3   OH250067   6.189   2.756  10.576  0.7039 -0.5076 -0.0934
 9551TIP3    H150068   6.248   2.775  10.649  1.0102 -0.2551 -0.3999
 9551TIP3    H250069   6.247   2.725  10.506  0.2789 -2.0629  0.2048
 9552TIP3   OH250070   5.541   0.139  15.314 -0.8065 -0.0836 -0.4616
 9552TIP3    H150071   5.591   0.091  15.380 -1.2021  0.8414  0.5300
 9552TIP3    H250072   5.557   0.091  15.232 -1.2263 -1.9409  0.4997
 9553TIP3   OH250073   4.505   3.570   5.283  0.1337  0.4443 -0.4987
 9553TIP3    H150074   4.580   3.573   5.342 -1.0031 -0.1328  1.0361
 9553TIP3    H250075   4.435   3.614   5.330 -1.4197 -1.8883 -0.4559
 9554TIP3   OH250076   5.035   0.722   2.330  0.8269  0.5628  0.2789
 9554TIP3    H150077   5.036   0.815   2.305 -0.1246  0.4350 -0.3060
 9554TIP3    H250078   5.125   0.692   2.316  0.7754  0.9970 -1.1425
 9555TIP3   OH250079   1.644   1.789   5.047 -0.1451 -0.0367  0.0971
 9555TIP3    H150080   1.725   1.829   5.079 -1.1014  1.2890  0.9772
 9555TIP3    H250081   1.673   1.729   4.978  1.8409 -1.8119  2.3411
 9556TIP3   OH250082   3.870   5.990  10.879  0.3109  0.0940 -0.0348
 9556TIP3    H150083   3.845   5.951  10.795  1.5424  1.5897 -1.1532
 9556TIP3    H250084   3.811   6.065  10.889 -2.2235 -2.0338  2.2263
 9557TIP3   OH250085   5.804   6.475   2.815  0.3218 -0.1190  0.2650
 9557TIP3    H150086   5.709   6.484   2.812  0.3957  0.5926 -0.3970
 9557TIP3    H250087   5.824   6.410   2.748  0.3344  0.1044  0.0489
 9558TIP3   OH250088   5.242   6.606   0.405  0.0512 -0.2469  0.2257
 9558TIP3    H150089   5.321   6.621   0.354 -1.5405  0.2981 -2.2279
 9558TIP3    H250090   5.236   6.510   0.411 -0.3580 -0.3836 -1.7567
 9559TIP3   OH250091   3.519   5.711  16.558  0.1478 -0.1035  0.3735
 9559TIP3    H150092   3.495   5.618  16.558  0.1719 -0.1095  0.3345
 9559TIP3    H250093   3.585   5.719  16.490  2.2396 -0.6061  2.2356
 9560TIP3   OH250094   6.029   0.025   3.740  0.0818  0.1987  0.3702
 9560TIP3    H150095   6.086  -0.052   3.753 -0.8620 -0.4855  0.5510
 9560TIP3    H250096   5.989   0.010   3.654 -0.2082  0.4194  0.4677
 9561TIP3   OH250097   1.614   0.326  16.637  0.1670  0.0306  0.2484
 9561TIP3    H150098   1.555   0.401  16.630  0.4857  0.2672  0.0596
 9561TIP3    H250099   1.610   0.284  16.551  0.8846  0.5150 -0.0325
 9562TIP3   OH250100   4.558   0.978  17.060 -0.4799  0.0086  0.0685
 9562TIP3    H150101   4.633   1.028  17.092  0.7902 -0.9911 -1.2206
 9562TIP3    H250102   4.513   1.038  17.000  0.9860 -0.3092 -1.4137
 9563TIP3   OH250103   5.941   1.170  16.999 -0.1054  0.3028  0.2805
 9563TIP3    H150104   5.959   1.092  16.946 -2.5735 -0.9384  1.1062
 9563TIP3    H250105   5.952   1.242  16.938  2.3010 -0.6174 -0.5051
 9564TIP3   OH250106   1.778   1.929   2.568  0.0131 -0.0020 -0.3188
 9564TIP3    H150107   1.694   1.974   2.556 -0.1087 -0.2665 -0.4500
 9564TIP3    H250108   1.765   1.875   2.645 -0.3653 -1.0428 -1.0919
 9565TIP3   OH250109   2.324   0.287   3.549  0.2349  0.0302 -0.6788
 9565TIP3    H150110   2.340   0.194   3.565 -1.6366 -0.5472 -1.8260
 9565TIP3    H250111   2.387   0.332   3.605 -1.2236 -1.8556  2.7681
 9566TIP3   OH250112   0.495   0.983   6.540  0.2484 -0.2375 -0.3541
 9566TIP3    H150113   0.540   0.915   6.490 -0.4053 -0.9396  0.0052
 9566TIP3    H250114   0.565   1.044   6.565  1.0398 -1.3710  0.2895
 9567TIP3   OH250115   3.352   0.706   2.904 -0.2112  0.5322  0.3873
 9567TIP3    H150116   3.309   0.702   2.989 -0.6474  2.5234  0.3086
 9567TIP3    H250117   3.306   0.640   2.851 -0.2795 -0.3582  1.5161
 9568TIP3   OH250118   3.850   0.070  12.897 -0.2187 -0.2111 -0.5692
 9568TIP3    H150119   3.913   0.130  12.858 -1.5969  1.5333 -0.2787
 9568TIP3    H250120   3.828   0.110  12.981  0.8660 -2.6188  0.9631
 9569TIP3   OH250121   3.825   2.121  16.785  0.4578 -0.6724 -0.3552
 9569TIP3    H150122   3.886   2.048  16.785  1.7925  0.3830 -2.1225
 9569TIP3    H250123   3.845   2.170  16.865  0.3662 -1.5316  0.2115
 9570TIP3   OH250124   3.483   1.688  11.377 -0.0166  0.0559 -0.1901
 9570TIP3    H150125   3.568   1.665  11.416 -1.3138  0.7123  3.3793
 9570TIP3    H250126   3.420   1.632  11.421 -1.7384  1.3085 -0.9324
 9571TIP3   OH250127   1.959   0.899  13.525 -0.3916  0.2301  0.4223
 9571TIP3    H150128   1.933   0.864  13.611 -0.6309  0.2830  0.3720
 9571TIP3    H250129   1.879   0.896  13.473 -0.8233  2.2947  0.8855
 9572TIP3   OH250130   5.821   1.760  15.531  0.9093  0.2458  0.3233
 9572TIP3    H150131   5.871   1.823  15.583  1.9050  0.4134 -0.8083
 9572TIP3    H250132   5.782   1.813  15.461 -0.1035 -0.0435  0.6429
 9573TIP3   OH250133   2.025   0.155  13.534  0.1669  0.1602  0.3308
 9573TIP3    H150134   2.034   0.231  13.476  1.3704 -0.3968 -0.2581
 9573TIP3    H250135   2.115   0.133  13.559 -0.1687 -0.9948  0.6028
 9574TIP3   OH250136   3.152   1.983   6.607  0.1276  0.8173  0.0747
 9574TIP3    H150137   3.087   1.915   6.588  2.1832 -0.7616 -1.6912
 9574TIP3    H250138   3.208   1.944   6.675  1.1756  0.7973 -0.7793
 9575TIP3   OH250139   1.037   2.642   1.944 -0.3990 -0.1696 -0.2093
 9575TIP3    H150140   1.067   2.551   1.942 -0.3767 -0.2249  1.2487
 9575TIP3    H250141   0.948   2.639   1.909 -0.7478 -0.9171  0.6933
 9576TIP3   OH250142   0.831   4.127  13.145 -0.7517  0.4125  0.1903
 9576TIP3    H150143   0.736   4.116  13.151 -0.6305 -1.3153 -0.3359
 9576TIP3    H250144   0.852   4.102  13.055  0.4241 -1.5470  0.9351
 9577TIP3   OH250145   3.543   0.808   3.115 -0.4921  0.0328 -0.0585
 9577TIP3    H150146   3.473   0.744   3.106 -0.2399 -0.3376  0.5071
 9577TIP3    H250147   3.614   0.774   3.061  1.0144 -2.1768  2.9970
 9578TIP3   OH250148   3.147   4.359   1.820  0.0378 -0.0484  0.1036
 9578TIP3    H150149   3.196   4.287   1.858 -1.1316 -1.3143 -0.7119
 9578TIP3    H250150   3.059   4.324   1.804 -0.2107  1.1526 -1.4757
 9579TIP3   OH250151   6.499   3.097  15.955  0.2018  0.2848 -0.0974
 9579TIP3    H150152   6.534   3.013  15.925  0.3082  0.8292 -1.5572
 9579TIP3    H250153   6.411   3.075  15.988  0.2441 -0.4079 -0.4202
 9580TIP3   OH250154   0.987   1.151   4.278  0.4241 -0.0389  0.4428
 9580TIP3    H150155   1.054   1.175   4.214 -0.8518  0.4863 -0.7717
 9580TIP3    H250156   1.018   1.069   4.316  0.7613 -0.9500 -1.6305
 9581TIP3   OH250157   0.964   0.067  11.994 -0.6072  0.0768 -0.1299
 9581TIP3    H150158   1.058   0.058  11.979 -0.4042  1.0564  0.4588
 9581TIP3    H250159   0.957   0.121  12.073 -1.6642  0.7010 -0.6151
 9582TIP3   OH250160   3.230   5.092   1.111  0.1309 -0.2946 -0.2072
 9582TIP3    H150161   3.239   5.180   1.072 -1.7391  0.1621  0.2936
 9582TIP3    H250162   3.153   5.055   1.068  1.0164 -1.8243 -0.5670
 9583TIP3   OH250163   6.531   6.504  14.007 -0.1355  0.0021  0.6037
 9583TIP3    H150164   6.473   6.449  14.060  0.3991 -0.3939  0.7853
 9583TIP3    H250165   6.591   6.442  13.965 -1.4317  0.1343 -1.6306
 9584TIP3   OH250166   0.346   6.785  12.258 -0.6652 -0.3381 -0.4198
 9584TIP3    H150167   0.378   6.749  12.176 -2.0341 -0.1132 -1.0856
 9584TIP3    H250168   0.302   6.711  12.301  1.2750 -0.8395  0.8305
 9585TIP3   OH250169   0.460   0.023  13.149 -0.3549  0.0316  0.0027
 9585TIP3    H150170   0.403   0.100  13.153 -0.4498 -0.0627  0.5725
 9585TIP3    H250171   0.406  -0.045  13.108  0.1524  0.6172 -1.7320
 9586TIP3   OH250172   4.333   5.031   5.310 -0.0663  0.5708 -0.3110
 9586TIP3    H150173   4.342   4.992   5.396 -0.2411  1.2827  0.0350
 9586TIP3    H250174   4.286   5.113   5.325  0.3446  0.9493 -1.0150
 9587TIP3   OH250175   4.290   4.361   3.434 -0.4094  0.3733  0.1804
 9587TIP3    H150176   4.296   4.440   3.487 -0.8101  2.3338 -2.4647
 9587TIP3    H250177   4.299   4.289   3.496 -0.2554  2.4686  2.7492
 9588TIP3   OH250178   5.935   6.092  14.374 -0.0557 -0.2446  0.4845
 9588TIP3    H150179   6.014   6.145  14.380  1.0943 -2.0399  3.3151
 9588TIP3    H250180   5.947   6.039  14.295  0.9696  0.3753  0.2109
 9589TIP3   OH250181   4.948   4.950  16.985  0.0902  0.1542 -0.0233
 9589TIP3    H150182   5.014   4.890  17.018  0.3407  1.4856  2.1007
 9589TIP3    H250183   4.980   4.976  16.898  1.5039 -0.4776  0.2835
 9590TIP3   OH250184   5.903   0.029   2.409  0.6510 -0.0578  0.4475
 9590TIP3    H150185   5.854   0.076   2.341  0.8260  0.1177  0.4395
 9590TIP3    H250186   5.965   0.094   2.442 -0.3885  0.2894  1.7691
 9591TIP3   OH250187   2.188   3.485   1.250  0.5684  0.1467  0.7132
 9591TIP3    H150188   2.141   3.560   1.213  1.1439  0.7611  1.2008
 9591TIP3    H250189   2.158   3.481   1.341 -1.7698 -2.0951 -0.0178
 9592TIP3   OH250190   5.631   2.316  17.010 -0.2677 -0.2491 -0.0003
 9592TIP3    H150191   5.606   2.232  17.048 -1.0157 -0.3372 -0.6546
 9592TIP3    H250192   5.556   2.341  16.955  0.4902  0.1895 -0.8699
 9593TIP3   OH250193   6.389   2.386  15.579  0.0235 -0.0456  0.0547
 9593TIP3    H150194   6.471   2.435  15.586 -0.9450  1.7040 -0.2418
 9593TIP3    H250195   6.381   2.364  15.486 -0.9702  1.9732 -0.4131
 9594TIP3   OH250196   1.415   5.383   0.441 -0.2915  0.3365 -0.0157
 9594TIP3    H150197   1.420   5.381   0.346  0.2059  2.1865 -0.0638
 9594TIP3    H250198   1.336   5.334   0.463  1.0865 -2.6346 -1.1673
 9595TIP3   OH250199   4.438   0.325  16.352  0.0443 -0.1037 -0.2859
 9595TIP3    H150200   4.387   0.328  16.271  1.3610 -1.1307 -1.1968
 9595TIP3    H250201   4.529   0.319  16.323  0.9399  3.5703  1.2749
 9596TIP3   OH250202   5.734   3.168   0.766  0.1415  0.6219 -0.0226
 9596TIP3    H150203   5.814   3.120   0.744  1.3063  1.7961  1.4111
 9596TIP3    H250204   5.761   3.228   0.836 -1.7181  1.9278 -0.3620
 9597TIP3   OH250205   0.030   6.697  16.832 -0.6184 -0.1412  0.0030
 9597TIP3    H150206   0.119   6.675  16.805 -0.7151  1.5240 -1.9820
 9597TIP3    H250207   0.018   6.787  16.800 -2.5489  0.1592  1.4366
 9598TIP3   OH250208   5.527   2.119   5.853 -0.5036 -0.1359  0.2774
 9598TIP3    H150209   5.524   2.055   5.782  0.2857 -1.1901  1.1722
 9598TIP3    H250210   5.436   2.124   5.883 -0.6028 -0.6990  0.0880
 9599TIP3   OH250211   0.156   2.798  13.078  0.0449 -0.1685 -0.3182
 9599TIP3    H150212   0.152   2.704  13.060 -0.8510 -0.1003 -0.5432
 9599TIP3    H250213   0.245   2.823  13.053 -0.3111 -0.5851 -2.1934
 9600TIP3   OH250214   1.052   4.256  13.256  0.3247  0.1601  0.0099
 9600TIP3    H150215   0.979   4.195  13.260 -0.5896  1.2810  0.8853
 9600TIP3    H250216   1.024   4.324  13.194  1.6201 -0.6038 -1.5182
 9601TIP3   OH250217   2.453   2.733   5.227 -0.1483  0.1374  0.3466
 9601TIP3    H150218   2.514   2.664   5.253 -0.8139 -1.1746 -1.3654
 9601TIP3    H250219   2.497   2.815   5.252  2.6205 -0.6976 -1.3767
 9602TIP3   OH250220   0.874   2.189  14.590 -0.0337 -0.5024  0.6351
 9602TIP3    H150221   0.907   2.133  14.520 -2.2620  0.5476 -1.4119
 9602TIP3    H250222   0.839   2.128  14.655  1.0714 -1.4996  0.3191
 9603TIP3   OH250223   6.047   5.641   3.435  0.2634 -0.2113 -0.4269
 9603TIP3    H150224   5.981   5.608   3.496 -1.0748 -0.1496 -1.7505
 9603TIP3    H250225   6.110   5.570   3.426  1.1835  0.2411  1.9218
 9604TIP3   OH250226   5.054   1.489  15.474  0.1918 -0.6161 -0.3777
 9604TIP3    H150227   5.038   1.582  15.459 -0.5024 -0.8188 -0.9689
 9604TIP3    H250228   5.141   1.485  15.512  0.5746  0.2185 -1.1367
 9605TIP3   OH250229   0.730   5.461  14.512 -0.0973 -0.3866 -0.3143
 9605TIP3    H150230   0.798   5.477  14.577 -0.4039  0.2425 -0.1330
 9605TIP3    H250231   0.697   5.374  14.532  0.8553 -0.8224 -0.5974
 9606TIP3   OH250232   6.509   2.129  15.618 -0.2746 -0.9749 -0.3319
 9606TIP3    H150233   6.464   2.211  15.635 -1.0203 -1.1946 -1.1408
 9606TIP3    H250234   6.590   2.154  15.573  0.0659 -0.6207  0.4690
 9607TIP3   OH250235   5.494   1.695  12.603 -0.1700  0.4987  0.3471
 9607TIP3    H150236   5.558   1.709  12.672  1.7549 -0.9811 -1.0502
 9607TIP3    H250237   5.431   1.634  12.641  1.2066 -0.7885  0.6308
 9608TIP3   OH250238   6.489   1.652   0.301 -0.1714  0.3904 -0.6884
 9608TIP3    H150239   6.453   1.712   0.236 -1.9772  0.7034  0.5200
 9608TIP3    H250240   6.433   1.664   0.378  0.1140 -2.0247 -0.0332
 9609TIP3   OH250241   5.612   5.131   3.505 -0.2084 -0.1595  0.4952
 9609TIP3    H150242   5.550   5.098   3.570  0.9125 -2.1434  0.6492
 9609TIP3    H250243   5.623   5.224   3.527 -1.7063 -0.2080  1.5894
 9610TIP3   OH250244   1.115   5.441  16.460  0.2661 -0.2886 -0.2880
 9610TIP3    H150245   1.075   5.485  16.535 -0.1720  0.5398 -0.9851
 9610TIP3    H250246   1.107   5.504  16.388  1.0315 -0.9045 -0.9379
 9611TIP3   OH250247   1.774   1.162  17.101 -0.0175  0.1432 -0.2289
 9611TIP3    H150248   1.713   1.109  17.050  1.3280  1.2581 -3.3166
 9611TIP3    H250249   1.726   1.241  17.122 -0.5534 -0.2567  0.0534
 9612TIP3   OH250250   5.333   6.218  12.200 -0.0651  0.2569 -0.1465
 9612TIP3    H150251   5.344   6.158  12.127  1.5784  0.9226 -0.4872
 9612TIP3    H250252   5.345   6.305  12.161  0.8148  0.6245  0.8893
 9613TIP3   OH250253   3.449   0.822  11.834 -0.4784 -0.1021 -0.3728
 9613TIP3    H150254   3.455   0.736  11.876  0.4653  0.7919  1.3959
 9613TIP3    H250255   3.526   0.827  11.778  0.4090  0.2501  0.8488
 9614TIP3   OH250256   3.174   5.456  14.036 -0.2278 -0.1456 -0.6889
 9614TIP3    H150257   3.259   5.498  14.052 -0.6428 -0.0373  1.4485
 9614TIP3    H250258   3.117   5.528  14.008 -0.4449  0.4252  1.1201
 9615TIP3   OH250259   0.786   4.090   1.967  0.4358 -0.2441  0.4974
 9615TIP3    H150260   0.871   4.088   2.012 -0.3389 -1.7251  2.0091
 9615TIP3    H250261   0.797   4.031   1.893  1.0028  0.3238  0.1190
 9616TIP3   OH250262   2.264   6.728   5.046 -0.1831 -0.2795 -0.1006
 9616TIP3    H150263   2.201   6.782   4.998 -0.8271 -0.0505  0.9688
 9616TIP3    H250264   2.344   6.780   5.049 -0.4452  0.1234 -0.0773
 9617TIP3   OH250265   5.892   5.111  10.770  0.1235  0.1177 -0.1749
 9617TIP3    H150266   5.838   5.041  10.807  0.1268  1.2075  2.0635
 9617TIP3    H250267   5.896   5.177  10.839  0.8235  1.9600 -1.8967
 9618TIP3   OH250268   6.357   0.009  12.428  0.0804 -0.3513  0.2800
 9618TIP3    H150269   6.337   0.067  12.501 -0.7022 -0.5276  0.2116
 9618TIP3    H250270   6.416   0.059  12.372  0.7343 -0.2325  1.0548
 9619TIP3   OH250271   3.541   5.188   4.273  0.2017 -0.1146  0.0201
 9619TIP3    H150272   3.605   5.140   4.326  0.7602  1.0120  0.3841
 9619TIP3    H250273   3.554   5.280   4.296 -2.5197  0.0774  1.2321
 9620TIP3   OH250274   6.038   2.394   1.583  0.3844 -0.1247 -0.1137
 9620TIP3    H150275   6.008   2.461   1.522  1.4239 -0.8073 -1.4428
 9620TIP3    H250276   5.966   2.383   1.645 -2.1502 -1.6027 -3.0360
 9621TIP3   OH250277   3.536   5.528  13.240 -0.6609  0.2020 -0.7042
 9621TIP3    H150278   3.627   5.556  13.233  0.2909 -2.7325 -1.4952
 9621TIP3    H250279   3.486   5.601  13.202  1.2010  2.2943  0.5997
 9622TIP3   OH250280   3.869   6.181   0.749 -0.3632  0.2033  0.0060
 9622TIP3    H150281   3.916   6.182   0.832 -0.2222  0.1746 -0.0726
 9622TIP3    H250282   3.936   6.198   0.683 -0.6455  1.2545 -0.0285
 9623TIP3   OH250283   6.690   1.168  13.270  0.1322  0.0852  0.1561
 9623TIP3    H150284   6.640   1.216  13.204  0.3007 -1.6007 -1.2438
 9623TIP3    H250285   6.641   1.087  13.282  0.9994 -0.3386  0.9041
 9624TIP3   OH250286   0.033   4.499  15.040  0.9318  0.2718  0.0486
 9624TIP3    H150287  -0.004   4.584  15.066 -0.4709 -0.2014 -0.3088
 9624TIP3    H250288   0.023   4.497  14.945 -1.9612 -1.5148  0.2632
 9625TIP3   OH250289   6.269   1.917  15.950  0.5257 -1.0364  0.1964
 9625TIP3    H150290   6.240   2.007  15.933 -1.2735 -1.4319  1.0388
 9625TIP3    H250291   6.339   1.927  16.015  2.5881 -0.0618 -2.0052
 9626TIP3   OH250292   1.133   0.437  12.034  0.5640  0.0653  0.0622
 9626TIP3    H150293   1.065   0.388  11.987  0.3803 -0.2869  0.6845
 9626TIP3    H250294   1.179   0.486  11.966  1.6670 -2.0246 -0.8126
 9627TIP3   OH250295   6.403   5.107  15.626 -0.0925  0.2262  0.0516
 9627TIP3    H150296   6.352   5.122  15.546  0.1414 -0.6627 -0.2774
 9627TIP3    H250297   6.493   5.099  15.596  0.4466  2.7796  0.7351
 9628TIP3   OH250298   3.141   0.938   3.489 -0.2136 -0.5437 -0.8488
 9628TIP3    H150299   3.229   0.902   3.500  0.6205  1.7687  0.7778
 9628TIP3    H250300   3.083   0.863   3.502  1.4534 -1.6852  0.5567
 9629TIP3   OH250301   4.421   4.666  15.549 -0.5531 -0.1743 -0.2951
 9629TIP3    H150302   4.341   4.649  15.499  1.2438 -2.1291 -2.7004
 9629TIP3    H250303   4.448   4.581  15.582  0.3049  0.5280  0.9104
 9630TIP3   OH250304   1.682   4.350   3.395  0.0738  0.5848 -0.1519
 9630TIP3    H150305   1.742   4.416   3.360  0.4539  0.2768 -0.0901
 9630TIP3    H250306   1.597   4.374   3.361  0.4993  0.0534 -1.6504
 9631TIP3   OH250307   6.428   6.220   0.634  0.0096 -0.4052 -0.1301
 9631TIP3    H150308   6.511   6.236   0.679 -1.4213  0.5247  2.3941
 9631TIP3    H250309   6.424   6.286   0.565  1.5388 -0.7790 -0.6067
 9632TIP3   OH250310   0.467   2.564  11.835  0.0702  0.6550 -0.3052
 9632TIP3    H150311   0.461   2.543  11.742  1.3094  2.2934 -0.8186
 9632TIP3    H250312   0.377   2.575  11.863 -0.4895 -2.2118 -0.6617
 9633TIP3   OH250313   6.446   2.736   3.851 -0.4416 -0.2638  0.1745
 9633TIP3    H150314   6.464   2.793   3.776  0.4293 -0.7333  0.0170
 9633TIP3    H250315   6.523   2.679   3.858 -1.2852 -1.4480  0.3065
 9634TIP3   OH250316   5.036   1.619   3.955  0.3050  0.1587  0.4282
 9634TIP3    H150317   4.981   1.639   3.879  1.2778  1.0816 -0.0608
 9634TIP3    H250318   5.003   1.676   4.024  0.6624  0.7424  0.1231
 9635TIP3   OH250319   6.535   4.784   5.697 -0.2148  0.1679  0.0120
 9635TIP3    H150320   6.548   4.829   5.613  1.2133 -0.0141  0.1065
 9635TIP3    H250321   6.622   4.778   5.735 -0.4788 -1.8238  0.4402
 9636TIP3   OH250322   5.897   3.955  15.054  0.4069 -0.4318  0.4431
 9636TIP3    H150323   5.842   3.879  15.074  1.5165 -1.5087 -0.4419
 9636TIP3    H250324   5.961   3.922  14.990  0.9234  1.2518  0.0498
 9637TIP3   OH250325   4.218   2.953  14.798  0.2903 -0.3553 -0.3135
 9637TIP3    H150326   4.209   2.941  14.704  0.0031 -1.7467 -0.1330
 9637TIP3    H250327   4.238   2.865  14.832  2.6537  0.4852  0.6804
 9638TIP3   OH250328   6.067   3.049   4.393 -0.5522  0.9022  0.4677
 9638TIP3    H150329   6.099   3.139   4.381  0.2188  0.4621 -0.9635
 9638TIP3    H250330   6.043   3.020   4.305  0.8480 -0.8992  0.6303
 9639TIP3   OH250331   5.760   2.358   0.572 -0.2368 -0.1239  0.6183
 9639TIP3    H150332   5.738   2.447   0.545 -0.7488  0.1498  1.8709
 9639TIP3    H250333   5.851   2.346   0.544  0.3510  1.3514  1.7694
 9640TIP3   OH250334   6.705   6.752  14.355 -0.3074 -0.1152  0.2857
 9640TIP3    H150335   6.697   6.733  14.261 -2.8539 -1.1402  0.6305
 9640TIP3    H250336   6.617   6.777  14.382  0.3925  0.2842  2.4185
 9641TIP3   OH250337   3.867   6.411   3.339  0.3978 -0.1973 -0.4791
 9641TIP3    H150338   3.840   6.465   3.264 -2.0828  0.3566  0.7226
 9641TIP3    H250339   3.915   6.338   3.299 -0.2079  0.4552 -2.5449
 9642TIP3   OH250340   5.039   3.402  16.817  0.2552  0.2267 -0.0706
 9642TIP3    H150341   4.987   3.396  16.737 -1.0020 -1.5611  0.7995
 9642TIP3    H250342   5.110   3.339  16.804  0.6488  0.6986 -0.1972
 9643TIP3   OH250343   5.682   1.225   2.535 -0.8613  0.0438  0.0403
 9643TIP3    H150344   5.708   1.137   2.563 -2.1278 -0.6948 -1.0566
 9643TIP3    H250345   5.599   1.241   2.580 -1.1732  0.2522 -0.6099
 9644TIP3   OH250346   3.560   4.922   5.399 -0.2548  0.0662  0.2422
 9644TIP3    H150347   3.557   4.911   5.304 -2.3803  1.1751  0.1312
 9644TIP3    H250348   3.620   4.995   5.412  0.6306 -0.5634 -0.1611
 9645TIP3   OH250349   3.118   4.564  15.583 -0.0411  0.0526  0.0906
 9645TIP3    H150350   3.065   4.602  15.652  0.9234  0.2164  0.7570
 9645TIP3    H250351   3.194   4.528  15.628  1.2557  1.3220 -0.9970
 9646TIP3   OH250352   6.198   1.417   3.164  0.0820  0.3547 -0.3225
 9646TIP3    H150353   6.122   1.376   3.122 -0.3985  1.9302 -1.0979
 9646TIP3    H250354   6.268   1.352   3.156 -1.7907 -2.4121  3.0385
 9647TIP3   OH250355   2.610   5.273   0.260  0.6319 -0.0819 -0.2576
 9647TIP3    H150356   2.653   5.190   0.240  0.2026 -0.8261  1.6425
 9647TIP3    H250357   2.642   5.334   0.194  1.8228 -1.4847 -1.0277
 9648TIP3   OH250358   4.744   4.241  15.572 -0.1070  0.5344 -0.6000
 9648TIP3    H150359   4.705   4.263  15.656 -0.3050  2.3906 -1.1317
 9648TIP3    H250360   4.838   4.255  15.584 -0.1171  0.6357 -0.6380
 9649TIP3   OH250361   5.226   5.181   3.428  0.3025  0.6022 -0.1413
 9649TIP3    H150362   5.282   5.257   3.413 -1.0307  1.3225 -1.7688
 9649TIP3    H250363   5.203   5.151   3.340  0.9222 -1.8185  0.4619
 9650TIP3   OH250364   2.589   0.228  10.650 -0.0163 -0.1793 -0.8649
 9650TIP3    H150365   2.528   0.209  10.579 -1.2114 -0.4466  0.1865
 9650TIP3    H250366   2.534   0.231  10.728  1.4904 -1.9250  0.3598
 9651TIP3   OH250367   3.214   3.456  12.026  0.4479  0.8096  0.4879
 9651TIP3    H150368   3.202   3.475  12.119 -2.0140 -2.1309  0.9352
 9651TIP3    H250369   3.131   3.480  11.986  0.0085 -1.4988 -0.1527
 9652TIP3   OH250370   2.400   5.726  15.745  0.3002 -0.0628  0.3005
 9652TIP3    H150371   2.367   5.767  15.664 -0.0710 -0.8206  0.0551
 9652TIP3    H250372   2.362   5.778  15.815 -0.3914 -0.1516 -0.0006
 9653TIP3   OH250373   0.716   2.737   0.484  0.2725  0.2297  0.3184
 9653TIP3    H150374   0.628   2.749   0.518 -0.4400 -1.1979 -0.9106
 9653TIP3    H250375   0.746   2.826   0.463 -0.1789  0.9009  2.2899
 9654TIP3   OH250376   4.334   0.620  15.299 -0.2622  0.2911 -0.4563
 9654TIP3    H150377   4.379   0.539  15.322 -0.4236  0.3412  0.0566
 9654TIP3    H250378   4.264   0.593  15.240  0.2061  0.1670 -0.9605
 9655TIP3   OH250379   2.402   3.378   0.771  0.0383 -0.1440 -0.0739
 9655TIP3    H150380   2.328   3.365   0.830  1.8580  1.7778  2.8352
 9655TIP3    H250381   2.379   3.455   0.720  0.4027  1.0896  1.5654
 9656TIP3   OH250382   1.303   4.970   3.521 -0.2526  0.4893  0.5307
 9656TIP3    H150383   1.385   5.020   3.525 -1.0557  2.1481 -1.7205
 9656TIP3    H250384   1.324   4.894   3.466 -0.1315  0.7646  0.1886
 9657TIP3   OH250385   3.438   3.020   2.886  0.4551  0.3841 -0.4558
 9657TIP3    H150386   3.416   3.113   2.885  2.2171  0.9022 -3.8936
 9657TIP3    H250387   3.404   2.986   2.803 -1.7002 -2.5598  1.4253
 9658TIP3   OH250388   6.478   6.610  11.506  0.3274 -0.3733  0.0759
 9658TIP3    H150389   6.462   6.693  11.551  0.4215 -0.9557  1.2066
 9658TIP3    H250390   6.417   6.548  11.546 -1.2334 -0.4196 -2.1821
 9659TIP3   OH250391   4.102   5.041   3.409  0.0310  0.3180 -0.7223
 9659TIP3    H150392   4.073   4.953   3.386 -0.0569  0.1384  0.0762
 9659TIP3    H250393   4.197   5.036   3.411  0.0150  0.1478 -0.3194
 9660TIP3   OH250394   6.262   2.883  16.901 -0.1190  0.6082 -0.0720
 9660TIP3    H150395   6.263   2.846  16.989  0.1234  0.9344  0.0657
 9660TIP3    H250396   6.290   2.812  16.844 -1.6006 -0.0308 -0.0564
 9661TIP3   OH250397   3.852   4.709   6.333  0.0404 -0.0241  0.6437
 9661TIP3    H150398   3.800   4.779   6.293  0.4926  0.4380  0.8581
 9661TIP3    H250399   3.787   4.643   6.357 -0.2663 -0.2688 -0.7416
 9662TIP3   OH250400   4.106   5.329  16.608  0.3473  0.1159  0.7644
 9662TIP3    H150401   4.125   5.249  16.656 -1.4925 -0.0385  1.3273
 9662TIP3    H250402   4.191   5.359  16.577  0.9787 -2.6002 -0.3957
 9663TIP3   OH250403   5.792   4.551   6.080 -0.1838 -0.2253  0.3085
 9663TIP3    H150404   5.751   4.574   5.997  1.1470  0.3850 -0.2152
 9663TIP3    H250405   5.814   4.458   6.072 -1.5732 -0.6003  0.6658
 9664TIP3   OH250406   1.829   3.932  13.480  0.1963 -0.3018 -0.5726
 9664TIP3    H150407   1.830   3.851  13.531  0.6457 -1.4485 -2.3395
 9664TIP3    H250408   1.748   3.926  13.428 -1.0863  1.5836  1.0595
 9665TIP3   OH250409   1.626   0.969  17.002  0.2259 -0.1693  0.5389
 9665TIP3    H150410   1.606   0.884  17.042  0.1107 -0.9826 -1.1441
 9665TIP3    H250411   1.709   0.954  16.957  0.5433  0.8306  0.7707
 9666TIP3   OH250412   3.493   3.426  14.484 -0.3825  0.2858  0.0604
 9666TIP3    H150413   3.461   3.418  14.574  0.7119 -1.6149  0.3329
 9666TIP3    H250414   3.586   3.404  14.490  0.0335  1.4770 -1.3543
 9667TIP3   OH250415   0.116   1.494   4.069 -0.2097  0.3692  0.2827
 9667TIP3    H150416   0.182   1.521   4.005 -0.0659  0.3182  0.4069
 9667TIP3    H250417   0.065   1.573   4.085 -1.4191 -0.0560 -1.2550
 9668TIP3   OH250418   1.716   3.295   5.451  0.0034  0.0991 -0.3236
 9668TIP3    H150419   1.700   3.386   5.428  0.0633 -0.7691 -4.6585
 9668TIP3    H250420   1.652   3.276   5.519 -2.7120  2.4004 -2.0252
 9669TIP3   OH250421   6.717   2.962  16.940 -0.1177 -0.1400  0.0436
 9669TIP3    H150422   6.714   3.026  16.869 -0.2790  1.9217  1.8401
 9669TIP3    H250423   6.807   2.965  16.972 -0.1060 -0.8839  0.0959
 9670TIP3   OH250424   6.177   6.248   3.260  0.2403  0.2235  0.4342
 9670TIP3    H150425   6.128   6.270   3.181  0.4263 -0.4749  0.1162
 9670TIP3    H250426   6.131   6.294   3.330 -0.2686  0.3833  0.0071
 9671TIP3   OH250427   6.211   4.569   2.390  0.5903 -0.4086 -0.4204
 9671TIP3    H150428   6.263   4.642   2.424 -1.4411  0.4267  1.0860
 9671TIP3    H250429   6.249   4.492   2.431  0.4790  0.2128  0.9032
 9672TIP3   OH250430   0.356   4.417  15.353 -0.0782  0.5515  0.4329
 9672TIP3    H150431   0.393   4.399  15.267 -0.8476  3.1488 -0.5293
 9672TIP3    H250432   0.262   4.398  15.343 -0.3414  1.8351  0.3567
 9673TIP3   OH250433   4.483   6.201   5.590 -0.0246 -0.3443  0.4663
 9673TIP3    H150434   4.444   6.259   5.525  0.7835  0.7899  0.9684
 9673TIP3    H250435   4.571   6.236   5.604 -0.4275 -0.0993  2.7108
 9674TIP3   OH250436   3.275   1.849  13.076  0.5207  0.0068 -0.6978
 9674TIP3    H150437   3.305   1.882  12.991  0.4666  0.2790 -0.6107
 9674TIP3    H250438   3.308   1.912  13.140 -0.7209  0.6328 -0.6483
 9675TIP3   OH250439   2.826   6.137  13.263  0.7162  0.2472  0.0268
 9675TIP3    H150440   2.812   6.042  13.261 -0.0126  0.3390  0.5305
 9675TIP3    H250441   2.747   6.173  13.222 -0.0927  0.7367  1.9431
 9676TIP3   OH250442   4.501   2.090   1.883  0.3156 -0.5511  0.0996
 9676TIP3    H150443   4.470   2.180   1.894  1.8435 -0.0730  0.8259
 9676TIP3    H250444   4.526   2.062   1.971  1.1389 -1.1817 -0.3140
 9677TIP3   OH250445   2.190   1.720  12.605 -0.0185  0.3751  0.2216
 9677TIP3    H150446   2.276   1.711  12.646  0.0103 -1.3208 -0.1292
 9677TIP3    H250447   2.140   1.773  12.666  1.6174  2.4905 -0.1501
 9678TIP3   OH250448   5.530   4.334  14.876  0.2624 -0.0347  0.1664
 9678TIP3    H150449   5.486   4.251  14.896 -0.4585 -0.3951 -2.5733
 9678TIP3    H250450   5.519   4.386  14.956 -1.9491 -1.4588  0.8880
 9679TIP3   OH250451   6.383   6.206  12.795  0.2211 -0.5906 -0.1572
 9679TIP3    H150452   6.383   6.118  12.758 -1.8694  0.1315 -2.0989
 9679TIP3    H250453   6.384   6.265  12.720 -2.3979  0.9672  0.8739
 9680TIP3   OH250454   0.101   1.493   5.834  0.8368 -0.6410  0.5181
 9680TIP3    H150455   0.108   1.465   5.743  0.7298 -0.6722  0.5184
 9680TIP3    H250456   0.190   1.490   5.868  0.8093 -1.1142  0.5563
 9681TIP3   OH250457   4.155   5.197  14.587 -0.2383 -0.0928 -0.0727
 9681TIP3    H150458   4.113   5.115  14.561  0.9548 -0.3868 -1.2104
 9681TIP3    H250459   4.088   5.264  14.574 -1.0012 -0.8019  0.1790
 9682TIP3   OH250460   5.060   3.103   0.279  1.3455 -0.1174  0.2215
 9682TIP3    H150461   5.073   3.133   0.369  0.9994  0.1468  0.1874
 9682TIP3    H250462   5.142   3.124   0.235  0.6631  2.0587 -0.1355
 9683TIP3   OH250463   6.494   2.062   3.166  0.3348 -0.1310 -0.1339
 9683TIP3    H150464   6.476   1.984   3.114 -1.4474  1.0964 -1.4405
 9683TIP3    H250465   6.410   2.087   3.204  1.1129  0.4579  1.3333
 9684TIP3   OH250466   6.434   0.305   3.046  0.1035 -0.1004 -0.1911
 9684TIP3    H150467   6.364   0.302   2.980 -0.3581 -2.1813  0.3282
 9684TIP3    H250468   6.389   0.329   3.127  0.1954 -0.3109 -0.0784
 9685TIP3   OH250469   5.931   0.602  11.936  0.0402  0.0277  0.6153
 9685TIP3    H150470   5.893   0.668  11.878  0.1978  0.5985  1.1526
 9685TIP3    H250471   5.856   0.551  11.967  0.1612 -2.1601 -2.2819
 9686TIP3   OH250472   4.478   0.003   1.306 -0.1054 -0.7766 -0.2301
 9686TIP3    H150473   4.434  -0.050   1.373 -0.3519  0.2111  0.4112
 9686TIP3    H250474   4.540  -0.057   1.265 -0.3154 -1.5369  0.5311
 9687TIP3   OH250475   0.658   6.645   4.202  0.1018  0.3369  0.1624
 9687TIP3    H150476   0.585   6.691   4.243 -0.2915 -0.0661 -0.0734
 9687TIP3    H250477   0.730   6.708   4.204 -0.5810  1.1669 -0.6580
 9688TIP3   OH250478   5.042   0.596  12.478  0.2664 -0.1688 -0.4524
 9688TIP3    H150479   5.031   0.577  12.572  0.3411  0.2772 -0.3510
 9688TIP3    H250480   4.952   0.602  12.445  0.2191  0.8785 -0.1586
 9689TIP3   OH250481   5.787   6.012   0.293  0.3723  0.6276 -0.4339
 9689TIP3    H150482   5.876   5.983   0.274 -0.2130 -0.4708 -1.6552
 9689TIP3    H250483   5.783   6.100   0.256  1.0957  0.8984  0.1028
 9690TIP3   OH250484   4.575   6.683  10.408  0.0120 -0.2556  0.2216
 9690TIP3    H150485   4.664   6.696  10.376  0.0488 -2.1606 -0.6063
 9690TIP3    H250486   4.572   6.590  10.433 -2.1007 -0.6154 -1.0877
 9691TIP3   OH250487   4.800   2.935   4.749  0.5397  0.4555 -0.1850
 9691TIP3    H150488   4.859   2.969   4.682  1.8783 -0.0937  0.6615
 9691TIP3    H250489   4.731   2.890   4.700  1.4796  0.0821 -1.2051
 9692TIP3   OH250490   2.147   0.880  12.479  0.0428 -0.1796 -0.1737
 9692TIP3    H150491   2.118   0.820  12.410  1.8424 -1.1182 -0.1952
 9692TIP3    H250492   2.101   0.962  12.462 -0.6815 -0.8522 -1.5820
 9693TIP3   OH250493   3.214   0.330   0.498  0.3283  0.4009 -0.0233
 9693TIP3    H150494   3.300   0.355   0.464  0.0322  2.4545  0.6067
 9693TIP3    H250495   3.191   0.400   0.559 -1.3025 -0.6924  0.6885
 9694TIP3   OH250496   0.484   1.740  14.398  0.0750 -0.1751  0.2139
 9694TIP3    H150497   0.460   1.648  14.405 -1.4224  0.2548  1.2047
 9694TIP3    H250498   0.567   1.740  14.349 -1.3229 -1.8372 -2.3534
 9695TIP3   OH250499   5.545   4.378  16.155 -0.5795 -0.0583 -0.2273
 9695TIP3    H150500   5.546   4.360  16.060  1.6954  1.3947 -0.5681
 9695TIP3    H250501   5.588   4.302  16.193 -0.5439 -0.1669 -0.4770
 9696TIP3   OH250502   4.407   2.660  16.905 -0.5095  1.0133 -0.0241
 9696TIP3    H150503   4.414   2.755  16.911 -0.6182  1.0367 -0.2770
 9696TIP3    H250504   4.477   2.627  16.961 -1.9267  1.2304  1.9984
 9697TIP3   OH250505   1.850   3.422   4.887  0.2346 -0.1937 -0.1198
 9697TIP3    H150506   1.766   3.461   4.864  0.3973  0.8417  0.9800
 9697TIP3    H250507   1.840   3.395   4.978  1.1427  0.0846  0.0693
 9698TIP3   OH250508   3.819   5.924  13.193  0.3041 -0.0557 -0.0210
 9698TIP3    H150509   3.796   6.014  13.172  1.6866 -0.0273 -1.5437
 9698TIP3    H250510   3.777   5.871  13.125  0.3723 -0.4839  0.2587
 9699TIP3   OH250511   1.160   5.043  13.129 -0.2335  0.0321  0.3382
 9699TIP3    H150512   1.145   5.056  13.035  0.1789  0.8225  0.3783
 9699TIP3    H250513   1.178   5.130  13.163 -1.1394 -0.1302  1.3023
 9700TIP3   OH250514   6.779   2.906  12.787 -0.1666  0.1149  0.5852
 9700TIP3    H150515   6.850   2.843  12.776  0.5029  1.2678 -2.6755
 9700TIP3    H250516   6.789   2.967  12.714 -4.4802  0.3559 -0.0460
 9701TIP3   OH250517   2.829   1.585  16.549  0.0287 -0.7425  0.0629
 9701TIP3    H150518   2.825   1.664  16.603 -0.3643  0.0025 -1.0231
 9701TIP3    H250519   2.835   1.513  16.612 -1.4780  0.0278  1.1465
 9702TIP3   OH250520   4.668   3.457  16.284 -0.2413  0.2771  0.0563
 9702TIP3    H150521   4.676   3.371  16.243 -0.0227  0.6929 -0.7979
 9702TIP3    H250522   4.621   3.440  16.366  0.2296 -0.7202  0.1410
 9703TIP3   OH250523   3.488   4.780   4.562  0.1243 -0.3667 -0.7185
 9703TIP3    H150524   3.478   4.806   4.654 -1.1272  0.4866 -1.0700
 9703TIP3    H250525   3.442   4.696   4.556  0.7650 -0.7464 -0.4383
 9704TIP3   OH250526   2.161   3.318   4.389 -0.7424  0.4064 -0.3936
 9704TIP3    H150527   2.142   3.245   4.448 -0.8602  0.3025 -0.5566
 9704TIP3    H250528   2.075   3.348   4.361 -0.6784  0.0066 -1.0493
 9705TIP3   OH250529   0.391   6.677   3.900 -0.1159 -0.7101  0.2535
 9705TIP3    H150530   0.307   6.655   3.940  0.0999 -2.3166 -0.1184
 9705TIP3    H250531   0.389   6.772   3.892 -0.9366 -0.5080  2.3136
 9706TIP3   OH250532   3.309   0.266   2.627  0.1859  0.1973 -0.1497
 9706TIP3    H150533   3.256   0.341   2.651  2.4230  1.5789  0.8616
 9706TIP3    H250534   3.313   0.213   2.707  0.1037 -0.0248 -0.2939
 9707TIP3   OH250535   3.826   4.618  12.889  0.2542 -0.0283  0.2294
 9707TIP3    H150536   3.846   4.655  12.975  0.5910 -1.7913  0.9728
 9707TIP3    H250537   3.912   4.602  12.850  0.1168  0.0175 -0.0966
 9708TIP3   OH250538   4.065   1.051   0.909  0.2002  0.0561  0.3064
 9708TIP3    H150539   4.055   1.102   0.989  0.5819  0.2961  0.2006
 9708TIP3    H250540   4.114   0.973   0.936 -1.9065 -1.1530  0.8392
 9709TIP3   OH250541   4.968   0.605   4.802  0.3767  0.1062 -0.5046
 9709TIP3    H150542   5.048   0.554   4.791  0.5179 -0.2423  1.6962
 9709TIP3    H250543   4.898   0.544   4.781  0.6305 -0.1153 -0.7190
 9710TIP3   OH250544   3.958   1.594   5.642 -0.1973 -0.8224 -0.2448
 9710TIP3    H150545   4.018   1.557   5.578  0.7690  0.2510  0.0030
 9710TIP3    H250546   4.006   1.590   5.725 -0.8702 -0.8849  0.1469
 9711TIP3   OH250547   3.042   1.158   3.928 -0.0997  0.0911 -0.1907
 9711TIP3    H150548   3.018   1.243   3.965 -0.4951 -0.6222  1.2336
 9711TIP3    H250549   3.137   1.162   3.918 -0.2153  1.0599 -1.1150
 9712TIP3   OH250550   3.642   5.113   4.701  0.3060 -0.0575 -0.2213
 9712TIP3    H150551   3.730   5.145   4.721  0.3789 -0.6827  0.4707
 9712TIP3    H250552   3.652   5.063   4.620  0.2516  1.3350 -1.1425
 9713TIP3   OH250553   5.263   0.498  16.389  0.0583 -0.5084  0.4870
 9713TIP3    H150554   5.285   0.503  16.296  1.3776  1.6608  0.8307
 9713TIP3    H250555   5.177   0.458  16.392 -0.6363  0.6701 -1.7973
 9714TIP3   OH250556   5.934   6.672  11.035 -0.8379 -0.3794  0.0297
 9714TIP3    H150557   5.997   6.651  10.966 -0.1110  1.8271 -0.0315
 9714TIP3    H250558   5.967   6.625  11.112 -0.7998 -1.6120 -0.7045
 9715TIP3   OH250559   5.823   3.661  12.776 -0.3471  0.5655  0.0082
 9715TIP3    H150560   5.846   3.634  12.865 -0.4049 -1.4745 -0.5421
 9715TIP3    H250561   5.729   3.646  12.770 -0.0801 -0.9895 -0.8867
 9716TIP3   OH250562   3.946   3.432  10.695 -0.0610  0.3105 -0.4580
 9716TIP3    H150563   3.867   3.430  10.750 -0.4942  0.7544 -1.0481
 9716TIP3    H250564   3.917   3.473  10.614  0.8771  0.8209 -0.5411
 9717TIP3   OH250565   1.226   4.875   4.002  0.1285  0.7317  0.3762
 9717TIP3    H150566   1.274   4.912   3.928 -0.8587  0.2753 -0.5210
 9717TIP3    H250567   1.225   4.780   3.985 -0.4878  0.6665  0.7455
 9718TIP3   OH250568   4.575   4.740   4.985 -0.2036 -0.2721 -0.0312
 9718TIP3    H150569   4.489   4.700   5.001 -0.1384 -0.1312  0.7172
 9718TIP3    H250570   4.638   4.673   5.012 -0.0927  0.5910  2.0328
 9719TIP3   OH250571   4.408   5.764  17.077 -0.1663 -0.2598  0.3550
 9719TIP3    H150572   4.487   5.806  17.046  0.3847 -1.1577  0.4867
 9719TIP3    H250573   4.375   5.715  17.001 -0.5266  0.0118  0.3334
 9720TIP3   OH250574   4.606   3.572   4.041 -1.1183  0.2452  0.3146
 9720TIP3    H150575   4.607   3.492   3.988  0.3413  0.6168 -0.2668
 9720TIP3    H250576   4.608   3.643   3.978  0.9968  0.6993  0.7986
 9721TIP3   OH250577   4.158   4.124   0.066 -0.7758  0.2063  0.1408
 9721TIP3    H150578   4.168   4.219   0.080 -1.7670  0.3757 -0.1965
 9721TIP3    H250579   4.179   4.086   0.151 -0.2042  0.7192  0.2357
 9722TIP3   OH250580   0.689   3.557   4.057 -0.2299 -0.3916 -0.6147
 9722TIP3    H150581   0.765   3.500   4.055  1.8596  2.1022  1.0858
 9722TIP3    H250582   0.698   3.612   3.979  0.6946  0.9399  0.3709
 9723TIP3   OH250583   1.114   3.620   5.475 -0.0844 -0.1010  0.2950
 9723TIP3    H150584   1.108   3.553   5.542  0.3290  0.8004  1.2604
 9723TIP3    H250585   1.152   3.575   5.399  0.6864 -0.8306  1.1016
 9724TIP3   OH250586   5.135   0.839  16.230  0.3087 -0.0533  0.1551
 9724TIP3    H150587   5.208   0.779  16.242  1.2225  0.9766 -0.1051
 9724TIP3    H250588   5.175   0.922  16.205 -0.8021  1.1271  2.0406
 9725TIP3   OH250589   1.530   4.522   0.317  0.1987 -0.5571  0.1267
 9725TIP3    H150590   1.565   4.433   0.311 -0.4744 -0.8394  0.2795
 9725TIP3    H250591   1.516   4.549   0.227  3.3898  0.6418 -0.1477
 9726TIP3   OH250592   3.286   6.630   5.209 -0.4450 -0.3034 -0.0345
 9726TIP3    H150593   3.199   6.647   5.173 -0.3243 -1.3769 -0.9081
 9726TIP3    H250594   3.333   6.713   5.200 -1.3329  0.2519  0.3415
 9727TIP3   OH250595   4.402   1.105   1.853 -0.0090  0.2319  0.0711
 9727TIP3    H150596   4.312   1.097   1.823  0.5375  1.2176 -2.0324
 9727TIP3    H250597   4.443   1.023   1.828  0.8256  1.5939 -3.6231
 9728TIP3   OH250598   4.969   3.612  12.408  0.5101 -0.0490 -0.1221
 9728TIP3    H150599   5.045   3.555  12.397 -1.7303 -3.2820 -0.1213
 9728TIP3    H250600   4.956   3.615  12.503 -2.0484 -3.7041 -0.1446
 9729TIP3   OH250601   5.658   5.804   0.943 -0.1601  0.5192  0.0606
 9729TIP3    H150602   5.632   5.753   0.866  0.6109 -1.3824  0.9717
 9729TIP3    H250603   5.733   5.856   0.913  0.3474 -0.4477 -0.4296
 9730TIP3   OH250604   0.094   1.275   1.720 -0.1938  0.9409 -0.1643
 9730TIP3    H150605   0.158   1.300   1.653  0.1648  0.9661  0.1855
 9730TIP3    H250606   0.097   1.347   1.784  0.5771  0.1825  0.6658
 9731TIP3   OH250607   2.811   0.306  13.450 -0.1762 -0.5069 -0.3437
 9731TIP3    H150608   2.765   0.223  13.466 -0.1330 -0.7733 -1.4823
 9731TIP3    H250609   2.791   0.327  13.358 -0.4584  0.9229  0.0172
 9732TIP3   OH250610   0.995   2.022  12.400 -0.1663 -0.2474  0.3552
 9732TIP3    H150611   0.901   2.009  12.406  0.0568 -2.0248  0.6455
 9732TIP3    H250612   1.027   2.005  12.489  0.1985  3.0597  0.9637
 9733TIP3   OH250613   1.489   0.277  16.880  0.7124  0.2573  0.3290
 9733TIP3    H150614   1.409   0.233  16.851  0.0894  0.7315  1.2765
 9733TIP3    H250615   1.555   0.251  16.816 -0.4102  0.6006 -1.0285
 9734TIP3   OH250616   6.023   3.863   5.752  0.1140 -0.0689 -0.3410
 9734TIP3    H150617   5.978   3.887   5.834 -2.3045 -0.3346 -1.4920
 9734TIP3    H250618   6.074   3.941   5.729 -1.9546  1.3854 -0.3304
 9735TIP3   OH250619   1.798   4.905   3.411 -0.6450 -0.3141 -0.5758
 9735TIP3    H150620   1.875   4.937   3.458 -1.1215  1.0525 -0.7007
 9735TIP3    H250621   1.829   4.893   3.321 -0.6099  0.3849 -0.6613
 9736TIP3   OH250622   2.498   3.320   1.487 -0.7726 -0.0381  0.8028
 9736TIP3    H150623   2.572   3.351   1.436 -0.8287  0.1014  0.8058
 9736TIP3    H250624   2.535   3.293   1.571 -0.4695 -1.5202  0.2374
 9737TIP3   OH250625   3.682   6.090   4.554  0.1207  0.2241  0.1676
 9737TIP3    H150626   3.635   6.099   4.638 -0.2573  0.1460 -0.0339
 9737TIP3    H250627   3.621   6.042   4.498  0.2830  0.4728 -0.2236
 9738TIP3   OH250628   5.107   6.531   4.666 -0.6216 -0.2817  0.2113
 9738TIP3    H150629   5.118   6.604   4.727  0.7321 -0.2292 -0.0665
 9738TIP3    H250630   5.086   6.456   4.721 -0.4881 -0.0093  0.6412
 9739TIP3   OH250631   6.232   2.580   2.398 -0.3161  0.0247  0.5072
 9739TIP3    H150632   6.306   2.605   2.453 -0.6805 -0.0753  1.0565
 9739TIP3    H250633   6.157   2.577   2.459 -0.1399 -3.4216  0.7607
 9740TIP3   OH250634   6.337   2.012   5.639  0.0152  0.4086  0.5815
 9740TIP3    H150635   6.245   2.020   5.664  0.0496  0.6197  0.6438
 9740TIP3    H250636   6.335   2.011   5.543 -0.1693 -1.0458  0.5876
 9741TIP3   OH250637   1.706   5.633  13.557  0.0194  0.1641 -0.4381
 9741TIP3    H150638   1.765   5.676  13.619  0.8809  0.0833 -1.1820
 9741TIP3    H250639   1.710   5.687  13.479 -1.7239  0.7483 -0.1637
 9742TIP3   OH250640   3.090   6.112   1.514 -0.7471 -0.1208 -0.0976
 9742TIP3    H150641   3.046   6.047   1.459 -2.2542  2.5594 -2.2819
 9742TIP3    H250642   3.127   6.174   1.452 -0.5676  1.8471  1.8866
 9743TIP3   OH250643   1.760   1.951  16.803  0.3694 -0.4487  0.2671
 9743TIP3    H150644   1.768   1.984  16.892 -1.3329 -0.7876  0.5862
 9743TIP3    H250645   1.676   1.905  16.802  0.4501 -0.6268 -1.4608
 9744TIP3   OH250646   4.583   2.148   0.991  0.4206 -0.0149 -0.5506
 9744TIP3    H150647   4.501   2.163   1.037  0.7935  0.7300 -0.1031
 9744TIP3    H250648   4.576   2.201   0.912  0.2653 -0.3560 -0.7679
 9745TIP3   OH250649   0.353   0.605  11.297  0.2116  0.0005 -0.6554
 9745TIP3    H150650   0.410   0.680  11.282 -1.5696  1.2548 -1.4350
 9745TIP3    H250651   0.276   0.621  11.243 -0.8002 -1.7491  0.1617
 9746TIP3   OH250652   3.408   6.294   3.297 -0.6142  0.0096 -0.3509
 9746TIP3    H150653   3.364   6.229   3.242 -0.0377  3.0650 -4.9087
 9746TIP3    H250654   3.339   6.357   3.318 -0.5111 -0.4280  1.4383
 9747TIP3   OH250655   5.695   5.687  14.362  0.1449  0.1866 -0.4330
 9747TIP3    H150656   5.790   5.686  14.376  0.3552  0.2538 -1.7750
 9747TIP3    H250657   5.658   5.690  14.451  1.3990  0.6461  0.0943
 9748TIP3   OH250658   3.223   1.324   0.737 -0.1491  0.2834 -0.5148
 9748TIP3    H150659   3.160   1.332   0.809  0.7039  1.4723  0.1406
 9748TIP3    H250660   3.171   1.293   0.663 -1.0895 -0.7396  0.5475
 9749TIP3   OH250661   0.792   5.989   1.326 -0.2640  1.0899 -0.8041
 9749TIP3    H150662   0.864   5.927   1.327 -1.6795 -0.6866 -1.6256
 9749TIP3    H250663   0.825   6.064   1.277  1.0149  0.3154 -1.1760
 9750TIP3   OH250664   4.493   2.564  12.237 -0.3378 -0.0057  0.2017
 9750TIP3    H150665   4.522   2.553  12.147 -0.6640 -0.1719  0.1140
 9750TIP3    H250666   4.570   2.543  12.290 -0.0078  0.5572 -0.0439
 9751TIP3   OH250667   4.754   0.150   3.156 -0.0649 -0.1298 -0.3206
 9751TIP3    H150668   4.807   0.228   3.136 -0.1275 -0.1064 -0.3980
 9751TIP3    H250669   4.691   0.145   3.084 -0.0129 -0.2956 -0.3551
 9752TIP3   OH250670   1.335   3.426  13.421 -0.5041 -0.0966 -0.4077
 9752TIP3    H150671   1.380   3.495  13.372  0.1125  0.5175  0.9858
 9752TIP3    H250672   1.254   3.467  13.452  0.1474  0.2288  0.9388
 9753TIP3   OH250673   0.683   4.526  16.334 -0.0724  0.4357  0.6536
 9753TIP3    H150674   0.725   4.480  16.406  1.0829 -1.4918 -1.1176
 9753TIP3    H250675   0.724   4.613  16.333  1.6277 -0.3331  0.8909
 9754TIP3   OH250676   3.164   0.176   3.201 -0.0853 -0.2074  0.5377
 9754TIP3    H150677   3.219   0.120   3.256  0.5898 -2.9553 -2.6802
 9754TIP3    H250678   3.078   0.172   3.242  1.3610  2.5371  4.5113
 9755TIP3   OH250679   5.356   3.416   1.429  0.0236  0.4195 -0.1104
 9755TIP3    H150680   5.387   3.465   1.352  0.1401 -1.2158 -1.1394
 9755TIP3    H250681   5.431   3.363   1.455 -0.2672  0.3865  0.6778
 9756TIP3   OH250682   6.430   2.065  15.173 -0.1085  0.3610 -0.3607
 9756TIP3    H150683   6.358   2.023  15.220 -0.7479  0.3589 -1.3075
 9756TIP3    H250684   6.447   2.007  15.099  1.5936 -0.1854  0.4257
 9757TIP3   OH250685   3.735   4.955   4.027 -0.0430  0.4478  0.3007
 9757TIP3    H150686   3.793   4.962   4.103  1.2257  1.1591 -0.7025
 9757TIP3    H250687   3.788   4.984   3.953 -1.5107  0.5786 -0.7439
 9758TIP3   OH250688   4.134   1.767   2.626 -0.2741 -0.3716 -0.3787
 9758TIP3    H150689   4.179   1.769   2.711  1.5707 -0.0980 -1.3138
 9758TIP3    H250690   4.156   1.682   2.588 -3.2617 -1.6505  0.4459
 9759TIP3   OH250691   6.700   5.681   6.468  0.1769 -0.9003  0.4749
 9759TIP3    H150692   6.794   5.689   6.482  0.8490  0.2058 -3.3254
 9759TIP3    H250693   6.661   5.756   6.513  0.8118 -2.0741  3.1925
 9760TIP3   OH250694   0.928   0.657   4.618 -0.2321  0.1205  0.1874
 9760TIP3    H150695   0.837   0.680   4.597 -0.8525 -3.0669 -1.0775
 9760TIP3    H250696   0.925   0.629   4.710 -0.3611  0.6929  0.3620
 9761TIP3   OH250697   3.972   4.188   5.447  0.0291  0.4124 -0.3790
 9761TIP3    H150698   3.906   4.234   5.395  0.7686  0.5986 -1.1669
 9761TIP3    H250699   3.976   4.100   5.409 -0.3950  0.1110  0.2461
 9762TIP3   OH250700   4.095   2.907   3.947  0.1802  0.2996 -0.0672
 9762TIP3    H150701   4.050   2.836   3.902 -0.2112  2.1800 -2.8551
 9762TIP3    H250702   4.088   2.982   3.888  3.0568  1.9176  1.4046
 9763TIP3   OH250703   3.129   2.770  11.895  0.3866  0.2594 -0.4534
 9763TIP3    H150704   3.076   2.775  11.816 -1.2044  0.7872  0.6028
 9763TIP3    H250705   3.070   2.795  11.966  1.7528 -0.2163  0.9224
 9764TIP3   OH250706   2.330   6.173  12.570 -0.3262  0.0151  0.3600
 9764TIP3    H150707   2.357   6.101  12.512 -0.6991  1.1330 -1.2491
 9764TIP3    H250708   2.253   6.139  12.615 -1.0351 -0.3018 -1.0448
 9765TIP3   OH250709   4.077   3.692   0.503 -0.1132 -0.8016  0.4314
 9765TIP3    H150710   4.169   3.718   0.506  0.1260 -1.3419 -1.2491
 9765TIP3    H250711   4.035   3.747   0.570  1.3514 -0.3038  0.9963
 9766TIP3   OH250712   5.085   0.497   2.061  0.2206 -1.1011 -0.1918
 9766TIP3    H150713   5.012   0.436   2.057  0.0391 -1.1481  2.4100
 9766TIP3    H250714   5.078   0.548   1.980 -1.6402 -2.2468 -0.8117
 9767TIP3   OH250715   5.939   5.443  15.768 -0.5159 -0.3406 -0.0147
 9767TIP3    H150716   6.020   5.392  15.766 -0.6377 -0.5777  0.7380
 9767TIP3    H250717   5.930   5.478  15.680 -0.0459 -1.0249 -0.3374
 9768TIP3   OH250718   5.361   0.359  12.553  0.2764 -0.5566 -0.0328
 9768TIP3    H150719   5.354   0.264  12.557 -0.7662 -0.4820  0.4781
 9768TIP3    H250720   5.351   0.387  12.644  2.4248 -0.0282  0.0955
 9769TIP3   OH250721   3.160   0.283  14.734  0.1653 -0.3543  0.0379
 9769TIP3    H150722   3.205   0.203  14.706 -0.1480  0.5858 -3.7539
 9769TIP3    H250723   3.076   0.253  14.767  0.6141 -1.6858  0.0197
 9770TIP3   OH250724   2.932   0.171   3.410 -0.2482  0.4255  0.1024
 9770TIP3    H150725   2.922   0.083   3.445 -1.3014 -0.0359 -1.2594
 9770TIP3    H250726   2.845   0.211   3.420  0.1548  1.2269  0.4880
 9771TIP3   OH250727   0.965   6.613   2.333 -0.3684  0.3486 -0.7073
 9771TIP3    H150728   1.021   6.650   2.402 -0.3258  2.8729 -1.9514
 9771TIP3    H250729   0.899   6.562   2.380  1.1207 -0.1093  1.0064
 9772TIP3   OH250730   2.044   4.048   3.289 -0.1480 -0.1121 -0.0263
 9772TIP3    H150731   2.109   3.987   3.323  0.5852  0.1957 -0.8499
 9772TIP3    H250732   1.972   4.043   3.352  1.0793  0.2979  1.4962
 9773TIP3   OH250733   2.756   2.639  13.120  0.3190 -0.2824  0.1073
 9773TIP3    H150734   2.737   2.682  13.036 -0.8374 -1.2094 -0.1381
 9773TIP3    H250735   2.710   2.693  13.184 -0.4784 -0.6988 -0.1057
 9774TIP3   OH250736   4.652   5.261  13.763  0.0107 -0.2747  0.4344
 9774TIP3    H150737   4.644   5.169  13.787 -1.9713 -0.6432 -1.4151
 9774TIP3    H250738   4.595   5.272  13.687  1.8586  1.9992 -0.7674
 9775TIP3   OH250739   4.168   4.946  12.017 -0.0459 -0.5301 -0.3043
 9775TIP3    H150740   4.081   4.912  11.998  0.1181 -0.9521 -0.2944
 9775TIP3    H250741   4.162   4.979  12.107 -0.6581  0.9454 -0.8548
 9776TIP3   OH250742   1.313   0.222  16.133  0.0933  0.8846  0.2799
 9776TIP3    H150743   1.254   0.176  16.073  0.8916 -0.1540  0.2725
 9776TIP3    H250744   1.287   0.193  16.220  1.0362 -0.1349  0.2376
 9777TIP3   OH250745   1.863   4.852   0.337  0.4980  0.5220  0.4667
 9777TIP3    H150746   1.944   4.858   0.386  1.6363  4.3652 -1.4923
 9777TIP3    H250747   1.891   4.853   0.245 -1.7380  1.0349 -0.2659
 9778TIP3   OH250748   6.098   4.325   5.780 -0.1015 -0.5542  0.3805
 9778TIP3    H150749   6.128   4.349   5.692  1.4064  1.3426  1.3531
 9778TIP3    H250750   6.011   4.366   5.787 -1.1161 -2.3374 -0.8479
 9779TIP3   OH250751   4.567   3.683   2.048  0.2709 -0.2099  0.5547
 9779TIP3    H150752   4.584   3.713   1.959 -1.0501 -0.2944  0.2554
 9779TIP3    H250753   4.540   3.762   2.095  1.0940 -0.1407  0.9260
 9780TIP3   OH250754   3.242   2.579  12.463 -0.1267  0.3800 -1.0739
 9780TIP3    H150755   3.162   2.607  12.507 -0.9102 -1.1042 -1.5117
 9780TIP3    H250756   3.219   2.497  12.420  0.9235  1.1982 -3.3482
 9781TIP3   OH250757   2.061   1.985  16.803  0.2822  0.0088 -0.0129
 9781TIP3    H150758   2.108   1.947  16.878 -0.7261 -1.5746 -0.1375
 9781TIP3    H250759   1.978   1.937  16.800  0.5308 -0.3808 -2.5064
 9782TIP3   OH250760   4.482   5.878  15.583 -0.5997 -0.1041  0.0343
 9782TIP3    H150761   4.475   5.792  15.541  1.3846 -0.0026 -0.6338
 9782TIP3    H250762   4.518   5.858  15.670  2.0501  0.1110 -0.9099
 9783TIP3   OH250763   3.326   1.227  16.030  0.4067  0.3624  0.4384
 9783TIP3    H150764   3.405   1.201  15.982  0.8851  0.1834  1.2977
 9783TIP3    H250765   3.314   1.159  16.096 -0.3359  0.5114  0.4632
 9784TIP3   OH250766   1.401   3.283   0.103 -0.1359  0.1997 -0.3570
 9784TIP3    H150767   1.456   3.233   0.163 -0.4554 -1.9152 -1.7375
 9784TIP3    H250768   1.312   3.263   0.130 -0.3143 -1.6766 -2.1385
 9785TIP3   OH250769   1.300   5.659  12.305 -0.1840 -0.3780 -0.0080
 9785TIP3    H150770   1.222   5.708  12.277  0.4347  0.0737 -1.0181
 9785TIP3    H250771   1.339   5.712  12.374  0.3261  0.4316 -0.9022
 9786TIP3   OH250772   6.471   0.488  16.385  0.4612 -0.2752 -0.5016
 9786TIP3    H150773   6.460   0.409  16.438 -1.0223 -0.4112 -0.9658
 9786TIP3    H250774   6.408   0.479  16.314  1.6859  0.3972 -1.7282
 9787TIP3   OH250775   2.367   5.049   5.764 -0.1478  0.5279  0.7166
 9787TIP3    H150776   2.376   5.131   5.812 -1.3462  1.3997 -0.4862
 9787TIP3    H250777   2.273   5.029   5.767 -0.2001  0.4343 -0.9706
 9788TIP3   OH250778   2.976   3.832  14.365 -0.6089  0.3730 -0.1359
 9788TIP3    H150779   2.991   3.897  14.434  0.6618 -0.3000  0.2490
 9788TIP3    H250780   3.054   3.837  14.310 -0.0368 -1.4537  0.4389
 9789TIP3   OH250781   4.917   4.800  15.178  0.1007 -0.0329 -0.4427
 9789TIP3    H150782   4.836   4.750  15.178  0.4431 -0.6302  0.8406
 9789TIP3    H250783   4.938   4.811  15.085 -0.9198 -0.7241 -0.7730
 9790TIP3   OH250784   4.066   4.709  11.235 -0.1475  0.4769 -0.0034
 9790TIP3    H150785   4.067   4.637  11.299 -1.9564  1.0711  0.7582
 9790TIP3    H250786   4.095   4.668  11.153 -0.1714 -0.8848  0.6271
 9791TIP3   OH250787   5.701   2.009   2.163 -0.2209  0.3562 -0.4881
 9791TIP3    H150788   5.781   2.028   2.212  0.6645 -0.6127 -1.5057
 9791TIP3    H250789   5.649   1.954   2.221  0.3851  0.0081 -0.2706
 9792TIP3   OH250790   1.562   2.379  12.615 -0.0189  0.0209 -0.1115
 9792TIP3    H150791   1.488   2.433  12.643  0.3955  0.1345  0.7729
 9792TIP3    H250792   1.524   2.320  12.549 -0.8872  0.1047  0.2972
 9793TIP3   OH250793   1.576   3.685   0.800 -0.0418  0.2978  0.0069
 9793TIP3    H150794   1.520   3.754   0.764  1.4668  0.3392 -2.5446
 9793TIP3    H250795   1.617   3.724   0.877 -1.2084  1.3176  0.1311
 9794TIP3   OH250796   3.772   1.574   3.383  0.1395  0.1640  0.4791
 9794TIP3    H150797   3.693   1.552   3.334  0.4084  0.6529 -0.1808
 9794TIP3    H250798   3.771   1.514   3.458 -0.9407  0.2747  0.5655
 9795TIP3   OH250799   5.779   0.242  12.685  0.6275 -0.4051 -0.4116
 9795TIP3    H150800   5.869   0.226  12.715  0.6932 -0.2776 -0.5383
 9795TIP3    H250801   5.733   0.274  12.763  1.1189  1.1731 -0.7168
 9796TIP3   OH250802   5.836   0.549  16.427  0.0725  0.4829  0.6728
 9796TIP3    H150803   5.777   0.502  16.369 -1.5493  3.7274 -0.5694
 9796TIP3    H250804   5.905   0.583  16.369  0.2914  1.0073  1.2273
 9797TIP3   OH250805   6.557   4.954   0.189 -0.1487 -0.1777 -0.0209
 9797TIP3    H150806   6.493   4.940   0.119 -0.2602  1.2558 -0.2469
 9797TIP3    H250807   6.618   5.017   0.152  0.2199  0.0253  0.9124
 9798TIP3   OH250808   2.307   6.723  13.465  0.0517  0.0728  0.4383
 9798TIP3    H150809   2.329   6.810  13.431 -1.8446  0.3712 -0.1290
 9798TIP3    H250810   2.379   6.667  13.436  0.9454  1.3093  0.1932
 9799TIP3   OH250811   2.955   6.042   4.790  0.0644 -0.1640 -0.1090
 9799TIP3    H150812   2.883   6.088   4.749 -0.9219 -0.0254  1.6865
 9799TIP3    H250813   2.932   5.949   4.783 -1.0000 -0.0683  1.6251
 9800TIP3   OH250814   5.867   2.358  14.817 -0.7302 -0.6689  0.0428
 9800TIP3    H150815   5.799   2.393  14.875 -0.6060 -1.9051  0.9804
 9800TIP3    H250816   5.937   2.424  14.821 -0.8102 -0.6211  1.1413
 9801TIP3   OH250817   4.969   1.450  11.610  0.1983 -0.2652 -0.7565
 9801TIP3    H150818   5.044   1.448  11.670 -0.7587 -0.1914  0.4819
 9801TIP3    H250819   4.943   1.542  11.608 -1.5288 -0.6568  1.0130
 9802TIP3   OH250820   3.036   0.547  15.798 -0.2239  0.0067  0.5646
 9802TIP3    H150821   2.941   0.548  15.811 -0.5036  1.2700 -1.2006
 9802TIP3    H250822   3.071   0.595  15.873 -0.9195 -0.9119  1.4943
 9803TIP3   OH250823   3.775   3.455   0.573  1.3944 -0.0294  0.1887
 9803TIP3    H150824   3.780   3.364   0.546 -0.0809 -0.7299  2.0688
 9803TIP3    H250825   3.830   3.461   0.651  0.0034  0.1982  1.1816
 9804TIP3   OH250826   2.694   6.397   6.212 -0.5273  0.1435 -0.1985
 9804TIP3    H150827   2.736   6.372   6.294 -0.6833  2.8680  0.8262
 9804TIP3    H250828   2.600   6.399   6.233 -0.6364  0.0905 -0.6705
 9805TIP3   OH250829   2.284   3.804  15.369 -0.4340  0.1711  0.5419
 9805TIP3    H150830   2.351   3.854  15.323  1.3114 -1.2296  1.4343
 9805TIP3    H250831   2.322   3.717  15.380 -2.6342 -0.8388  0.6510
 9806TIP3   OH250832   3.116   5.565   3.354  0.0627  0.4164  0.2582
 9806TIP3    H150833   3.182   5.563   3.423  0.9264 -2.3197 -0.4921
 9806TIP3    H250834   3.033   5.554   3.399  0.3704  1.1727  1.0277
 9807TIP3   OH250835   2.302   2.749  14.450 -0.1182  0.2487 -0.3416
 9807TIP3    H150836   2.248   2.744  14.529 -2.1702  1.8083 -1.5477
 9807TIP3    H250837   2.281   2.670  14.401  0.0826 -0.0143 -0.0169
 9808TIP3   OH250838   1.689   0.986   2.801 -0.2725  0.0509  0.4111
 9808TIP3    H150839   1.657   1.076   2.792 -1.4345 -0.1473  2.1768
 9808TIP3    H250840   1.635   0.935   2.740 -1.1606  0.2276  1.0320
 9809TIP3   OH250841   6.156   6.287  14.481 -0.0840  0.2333 -0.1581
 9809TIP3    H150842   6.169   6.242  14.564  1.1852  0.7017 -0.0840
 9809TIP3    H250843   6.236   6.337  14.468 -0.7495  1.0907 -1.0987
 9810TIP3   OH250844   1.286   2.287  14.632  0.0043  0.1549  0.3245
 9810TIP3    H150845   1.233   2.355  14.591 -0.8781 -1.1149 -0.7481
 9810TIP3    H250846   1.242   2.269  14.715  0.9318  1.6869  1.1859
 9811TIP3   OH250847   0.191   5.629   0.109  0.1086 -0.3463 -0.1057
 9811TIP3    H150848   0.190   5.556   0.047  0.8673 -1.9757  1.6731
 9811TIP3    H250849   0.255   5.602   0.176 -0.6083  1.3419  1.3393
 9812TIP3   OH250850   5.719   0.506   3.219 -0.1175 -0.0548  0.1300
 9812TIP3    H150851   5.712   0.412   3.201  0.0095 -0.1485  0.5661
 9812TIP3    H250852   5.709   0.547   3.133  0.6313 -0.5001 -0.1763
 9813TIP3   OH250853   0.129   3.732  16.348  0.4642 -0.2893 -0.3319
 9813TIP3    H150854   0.112   3.663  16.284  0.1536 -3.2771  2.7524
 9813TIP3    H250855   0.053   3.732  16.405  1.6116  0.8353  1.2745
 9814TIP3   OH250856   2.165   0.629  12.981 -0.3440  0.0344 -0.2144
 9814TIP3    H150857   2.071   0.631  12.963 -0.3552  1.2832 -0.1011
 9814TIP3    H250858   2.206   0.633  12.894 -0.4047  1.5067 -0.1918
 9815TIP3   OH250859   2.977   3.241  11.400  0.1249  0.8230 -0.1294
 9815TIP3    H150860   2.999   3.162  11.350  0.9784 -0.5330  2.2197
 9815TIP3    H250861   3.061   3.281  11.419  0.2113 -0.4700  2.8221
 9816TIP3   OH250862   5.586   4.099   4.499 -0.3122  0.2298 -0.2464
 9816TIP3    H150863   5.497   4.101   4.534 -0.2474  1.8303 -0.0719
 9816TIP3    H250864   5.587   4.166   4.430  0.6888  0.0945 -0.3883
 9817TIP3   OH250865   1.060   1.076   0.432  0.2015 -0.1485 -0.2833
 9817TIP3    H150866   1.014   1.052   0.351  0.7714  0.3652 -0.7588
 9817TIP3    H250867   1.022   1.017   0.498 -1.4868  0.5774 -0.5571
 9818TIP3   OH250868   5.330   4.645  14.881 -0.4027 -0.1171 -0.4422
 9818TIP3    H150869   5.426   4.643  14.884 -0.4355 -0.7886  1.2024
 9818TIP3    H250870   5.305   4.553  14.870 -0.8533 -0.2820  1.5133
 9819TIP3   OH250871   5.816   0.772  13.614  0.9281  0.1704 -0.6434
 9819TIP3    H150872   5.861   0.853  13.640 -0.8372  1.1596 -0.4701
 9819TIP3    H250873   5.741   0.802  13.562 -0.0063 -1.3259 -0.2251
 9820TIP3   OH250874   1.474   1.309  16.760  0.0017  0.4035 -0.4458
 9820TIP3    H150875   1.514   1.388  16.723 -0.2466  0.2154 -1.1426
 9820TIP3    H250876   1.438   1.263  16.684  0.3247 -0.4877 -0.0774
 9821TIP3   OH250877   2.815   2.305  11.619 -0.2248  0.2780 -0.0425
 9821TIP3    H150878   2.851   2.257  11.544  0.0788  0.5377 -0.0663
 9821TIP3    H250879   2.887   2.309  11.682 -0.1841  0.8714 -0.1240
 9822TIP3   OH250880   2.599   6.223   0.729 -0.2500 -0.7988  0.5159
 9822TIP3    H150881   2.514   6.200   0.691 -0.9612  0.5516  1.1594
 9822TIP3    H250882   2.577   6.288   0.797  0.8479 -3.3976  3.6193
 9823TIP3   OH250883   3.417   6.704  15.084 -0.3130  0.3052 -0.0805
 9823TIP3    H150884   3.440   6.630  15.141 -2.3712  0.7003  1.3388
 9823TIP3    H250885   3.460   6.683  15.000 -0.4578 -2.2720  0.4114
 9824TIP3   OH250886   6.171   0.687   0.021  0.4545  0.4068  0.3439
 9824TIP3    H150887   6.149   0.709   0.112 -0.0391  1.5981 -0.0437
 9824TIP3    H250888   6.261   0.719   0.010  0.0682  1.4527  0.0603
 9825TIP3   OH250889   0.934   5.231  14.486 -0.3462 -0.0019 -0.0909
 9825TIP3    H150890   0.977   5.274  14.412  1.6287  0.5982  1.3305
 9825TIP3    H250891   0.844   5.261  14.482  0.3171  2.0524 -0.7834
 9826TIP3   OH250892   1.699   3.619  16.568 -0.3673 -0.5295  0.5071
 9826TIP3    H150893   1.773   3.579  16.612 -0.8059 -0.9414  0.8814
 9826TIP3    H250894   1.737   3.663  16.492  0.5063  0.9157  1.7383
 9827TIP3   OH250895   2.635   3.120   3.843 -0.1235  0.5903 -0.4255
 9827TIP3    H150896   2.623   3.028   3.864  2.6948  0.1937 -0.2757
 9827TIP3    H250897   2.567   3.165   3.893 -0.3728 -1.2299  0.9693
 9828TIP3   OH250898   1.965   4.753   1.907 -0.0563  0.0466 -0.6732
 9828TIP3    H150899   1.991   4.662   1.894 -1.4878 -0.7411  1.4227
 9828TIP3    H250900   2.048   4.801   1.917  0.7442 -1.5337  0.9507
 9829TIP3   OH250901   2.652   2.177   1.079  0.8097 -0.0844  0.0806
 9829TIP3    H150902   2.646   2.268   1.108  3.2162  1.7189 -4.1401
 9829TIP3    H250903   2.562   2.150   1.066 -0.0582  0.9709  2.9978
 9830TIP3   OH250904   6.297   6.008   3.264 -0.0483  0.3363  0.4457
 9830TIP3    H150905   6.260   5.929   3.225  2.7252 -0.4187 -0.9426
 9830TIP3    H250906   6.232   6.077   3.246 -1.7708 -1.2652  0.2206
 9831TIP3   OH250907   1.480   2.937   5.012 -0.3483 -0.1435 -0.5205
 9831TIP3    H150908   1.394   2.898   5.028 -0.3958  0.4089  0.5921
 9831TIP3    H250909   1.461   3.027   4.988 -0.1222 -0.2888 -1.2882
 9832TIP3   OH250910   4.640   1.882  14.050  0.5261  0.0062 -0.1034
 9832TIP3    H150911   4.662   1.795  14.084  0.0960  0.1083  0.4335
 9832TIP3    H250912   4.547   1.877  14.030  0.1805  0.7642  1.2219
 9833TIP3   OH250913   0.991   2.104   1.484  0.0570  0.2656  0.3406
 9833TIP3    H150914   1.012   2.029   1.430  2.0581  0.3851  0.8771
 9833TIP3    H250915   0.898   2.119   1.470 -0.5890 -2.7675  0.7947
 9834TIP3   OH250916   5.661   4.247  16.870  0.4032  0.0276 -0.3296
 9834TIP3    H150917   5.579   4.197  16.867  0.9815 -0.9560  0.0907
 9834TIP3    H250918   5.637   4.333  16.834 -1.2155  0.3258  1.3165
 9835TIP3   OH250919   3.471   4.403  11.549  0.6010  0.3678  0.2630
 9835TIP3    H150920   3.508   4.427  11.464 -0.8346 -0.3671 -0.6013
 9835TIP3    H250921   3.507   4.316  11.567 -1.6934 -1.0066 -1.2801
 9836TIP3   OH250922   4.178   3.614   1.223 -0.6639  0.6272 -0.0998
 9836TIP3    H150923   4.267   3.582   1.209 -1.1161 -1.4617  1.4462
 9836TIP3    H250924   4.151   3.646   1.136  0.8331 -0.6630 -1.0976
 9837TIP3   OH250925   1.531   3.267   2.466  0.2346  0.0891 -0.0901
 9837TIP3    H150926   1.472   3.318   2.410 -0.0848 -1.3780 -1.1508
 9837TIP3    H250927   1.502   3.176   2.455  2.4819 -0.6509 -0.3800
 9838TIP3   OH250928   5.482   2.949   4.595 -0.4520  0.6267 -0.9536
 9838TIP3    H150929   5.476   3.020   4.531 -1.0168  1.9466  0.4976
 9838TIP3    H250930   5.554   2.894   4.563  0.3305  2.1152 -1.8788
 9839TIP3   OH250931   2.472   4.571   1.940  0.1172 -0.6945 -0.1354
 9839TIP3    H150932   2.558   4.609   1.919  0.5992 -1.6549  0.0247
 9839TIP3    H250933   2.438   4.542   1.855  0.1078 -0.6290 -0.1541
 9840TIP3   OH250934   1.026   5.576  14.708  0.4542  0.0982 -0.7649
 9840TIP3    H150935   0.969   5.639  14.753  2.9696  1.7818  0.2908
 9840TIP3    H250936   1.079   5.629  14.649  0.1642 -1.5741 -2.6312
 9841TIP3   OH250937   0.187   4.695   2.145  0.6269 -0.4124  0.3457
 9841TIP3    H150938   0.097   4.728   2.140  0.5836 -0.6259 -0.4060
 9841TIP3    H250939   0.203   4.683   2.239  0.4217  1.1219  0.6025
 9842TIP3   OH250940   0.861   4.581  15.729  0.5687  0.3450 -0.8961
 9842TIP3    H150941   0.890   4.551  15.643  1.0001  0.4709 -0.7996
 9842TIP3    H250942   0.909   4.526  15.791  0.0638  0.0772 -0.7353
 9843TIP3   OH250943   1.033   1.070  11.570 -0.3346 -0.4052 -0.1175
 9843TIP3    H150944   1.089   1.052  11.645  3.0767  0.9205 -2.1218
 9843TIP3    H250945   1.005   1.161  11.582 -3.2039 -1.3450  1.3929
 9844TIP3   OH250946   1.477   2.603   2.166  0.0181  0.1220 -0.3347
 9844TIP3    H150947   1.568   2.575   2.154 -0.0801  0.2684 -1.5107
 9844TIP3    H250948   1.472   2.688   2.121  0.1235  1.7789  2.5195
 9845TIP3   OH250949   6.381   4.959   5.002  0.3605 -0.1600  0.1489
 9845TIP3    H150950   6.405   5.041   5.046 -1.4162  0.2199  0.4665
 9845TIP3    H250951   6.462   4.907   5.004  1.1789  1.0850  1.0660
 9846TIP3   OH250952   4.165   1.334  11.280 -0.0144  0.0638 -0.3754
 9846TIP3    H150953   4.189   1.425  11.299  0.7837  0.2739 -2.1087
 9846TIP3    H250954   4.111   1.340  11.201 -0.4457 -0.9208 -0.1675
 9847TIP3   OH250955   4.967   6.307  14.537  0.0915  0.2271  0.1973
 9847TIP3    H150956   4.951   6.316  14.443  2.0834 -0.9568 -0.3261
 9847TIP3    H250957   4.891   6.258  14.570 -0.2554 -0.0445 -0.9575
 9848TIP3   OH250958   4.200   1.718   6.488  0.1882 -0.1535  0.1327
 9848TIP3    H150959   4.258   1.744   6.560 -1.4657  2.3638  0.6889
 9848TIP3    H250960   4.250   1.652   6.440  2.2191 -0.3616  2.3352
 9849TIP3   OH250961   3.466   0.647   5.530  0.9289 -0.1149 -0.1138
 9849TIP3    H150962   3.418   0.704   5.591 -0.1816 -1.1948  0.0511
 9849TIP3    H250963   3.550   0.632   5.574  1.5502  1.9465 -0.4897
 9850TIP3   OH250964   2.467   0.876   2.066 -0.1213 -0.0275  0.1012
 9850TIP3    H150965   2.410   0.853   2.140 -0.7167  0.2668 -0.2617
 9850TIP3    H250966   2.496   0.791   2.032  0.9040 -0.1566  1.2311
 9851TIP3   OH250967   4.723   5.930  16.093 -0.1526  0.2185 -0.0769
 9851TIP3    H150968   4.736   5.944  15.999 -0.3351  2.2990  0.1664
 9851TIP3    H250969   4.780   5.856  16.114 -0.8777 -0.9542 -1.9949
 9852TIP3   OH250970   5.528   0.817   3.568 -0.5911  0.3433 -0.3355
 9852TIP3    H150971   5.616   0.785   3.585  0.3702  3.0182  0.2159
 9852TIP3    H250972   5.526   0.834   3.473 -0.7607 -0.3237 -0.4569
 9853TIP3   OH250973   1.303   2.513   5.310  0.3798  0.4743  0.4671
 9853TIP3    H150974   1.247   2.511   5.388  0.1508 -0.2759  0.2855
 9853TIP3    H250975   1.312   2.421   5.284  0.5787  0.7063 -0.3081
 9854TIP3   OH250976   1.240   1.722  14.163 -0.5938  0.7483  0.5457
 9854TIP3    H150977   1.154   1.759  14.183 -0.7587  1.7416 -1.6278
 9854TIP3    H250978   1.292   1.798  14.134  0.3762 -0.1259 -0.0800
 9855TIP3   OH250979   5.165   3.571  17.006 -0.6897  0.8834 -0.0029
 9855TIP3    H150980   5.095   3.627  17.038 -0.8917  0.7340 -0.1828
 9855TIP3    H250981   5.124   3.517  16.939 -0.5199  0.4492  0.2402
 9856TIP3   OH250982   2.645   5.662   2.905 -0.4905  0.1080  0.0461
 9856TIP3    H150983   2.704   5.626   2.972 -0.2572  0.4465  0.0267
 9856TIP3    H250984   2.704   5.700   2.840 -0.6822  3.3073  1.5630
 9857TIP3   OH250985   5.409   5.503  13.516 -0.2836 -0.7185  0.2149
 9857TIP3    H150986   5.369   5.433  13.569  0.2007 -2.5405 -1.6930
 9857TIP3    H250987   5.358   5.503  13.435  2.1094 -1.6276 -1.4057
 9858TIP3   OH250988   3.317   5.551   3.547  0.4609 -0.4781 -0.8422
 9858TIP3    H150989   3.412   5.535   3.550  0.4374 -0.5195  0.2660
 9858TIP3    H250990   3.278   5.465   3.557  0.3263 -0.2901  0.4652
 9859TIP3   OH250991   3.087   6.756   1.165 -0.4700  0.5543 -0.0644
 9859TIP3    H150992   3.168   6.713   1.137 -0.7425 -0.6598  0.9306
 9859TIP3    H250993   3.038   6.688   1.210 -1.2926  1.7133  0.8659
 9860TIP3   OH250994   2.232   1.642  15.879  0.3797  0.1297 -0.0470
 9860TIP3    H150995   2.164   1.706  15.859  1.5764  1.1099 -1.2314
 9860TIP3    H250996   2.313   1.693  15.878  1.3683 -1.3784 -0.9630
 9861TIP3   OH250997   4.863   0.329   5.215 -0.5825  0.1524 -0.3508
 9861TIP3    H150998   4.769   0.340   5.205 -0.6324 -0.9140 -1.3774
 9861TIP3    H250999   4.901   0.408   5.176 -0.9756 -1.4107 -4.3632
 9862TIP3   OH251000   3.098   1.781   3.205 -0.0733  0.1328 -0.4424
 9862TIP3    H151001   3.049   1.753   3.127 -0.7054  1.0401 -0.3912
 9862TIP3    H251002   3.104   1.876   3.196  1.0272  0.1133 -0.0489
 9863TIP3   OH251003   0.085   5.188  15.016 -0.3052 -0.2927 -0.2955
 9863TIP3    H151004   0.048   5.116  14.967  2.7614 -1.2298 -1.4679
 9863TIP3    H251005   0.071   5.164  15.108  0.8573 -2.5858 -0.6414
 9864TIP3   OH251006   1.534   1.446  15.998  0.0500 -0.2515  0.0584
 9864TIP3    H151007   1.596   1.374  16.010 -1.6947 -1.6796  0.9172
 9864TIP3    H251008   1.455   1.404  15.965 -1.5141  1.0083  1.9934
 9865TIP3   OH251009   2.009   4.232  16.328 -0.0612 -0.1624  0.3906
 9865TIP3    H151010   2.008   4.214  16.422 -0.5322 -3.1987 -0.1003
 9865TIP3    H251011   1.922   4.210  16.297  0.1168  0.6742 -0.8147
 9866TIP3   OH251012   6.175   5.223  12.231 -0.4038  0.7401 -0.2068
 9866TIP3    H151013   6.174   5.274  12.312 -1.1066  1.8688 -0.9079
 9866TIP3    H251014   6.104   5.160  12.241  0.8381 -0.5570  0.9111
 9867TIP3   OH251015   1.865   0.042  14.775 -0.0723 -0.6973  0.2077
 9867TIP3    H151016   1.873  -0.052  14.794  0.8764 -0.3616  1.6320
 9867TIP3    H251017   1.952   0.077  14.793 -0.3635  0.4455 -0.5060
 9868TIP3   OH251018   6.505   5.329   5.601  0.3925  0.0237 -0.3374
 9868TIP3    H151019   6.463   5.269   5.662 -0.3418 -0.2368 -1.0748
 9868TIP3    H251020   6.563   5.382   5.655  0.9739 -1.2629  0.3461
 9869TIP3   OH251021   4.623   0.761   3.862 -0.0877 -0.5092  0.6809
 9869TIP3    H151022   4.598   0.799   3.947 -1.2374 -1.1738  0.6614
 9869TIP3    H251023   4.635   0.836   3.805 -1.5474 -0.1158  0.8510
 9870TIP3   OH251024   3.425   1.790  11.094  0.3870 -0.8128  0.1383
 9870TIP3    H151025   3.480   1.770  11.170  0.8859  1.1947  0.3420
 9870TIP3    H251026   3.446   1.880  11.071  0.1632 -1.3034 -2.3418
 9871TIP3   OH251027   2.183   0.814   1.923  0.3132 -0.1258 -0.1326
 9871TIP3    H151028   2.202   0.895   1.876  1.2147 -0.5290 -0.4723
 9871TIP3    H251029   2.196   0.836   2.015  2.8972 -0.4776 -0.3563
 9872TIP3   OH251030   2.382   4.198  10.544  0.3408  0.0915 -0.3416
 9872TIP3    H151031   2.406   4.149  10.465  1.2570  0.8834 -0.5631
 9872TIP3    H251032   2.350   4.131  10.605 -0.3810 -0.5303 -1.3766
 9873TIP3   OH251033   0.045   5.669   1.741 -0.0887  0.4369 -0.0449
 9873TIP3    H151034   0.031   5.750   1.693  1.3488  1.5377  1.2585
 9873TIP3    H251035   0.115   5.690   1.803 -1.1788 -1.1541  1.8676
 9874TIP3   OH251036   3.535   3.892  11.787 -0.3288 -0.3337 -0.3475
 9874TIP3    H151037   3.555   3.806  11.751  2.0096 -0.3056  0.7303
 9874TIP3    H251038   3.440   3.901  11.774 -0.3642 -2.2655 -2.1263
 9875TIP3   OH251039   5.398   1.157   5.491 -0.5548 -0.2306 -0.2919
 9875TIP3    H151040   5.356   1.185   5.572  0.0067 -0.6081  0.1426
 9875TIP3    H251041   5.482   1.203   5.491  0.5766 -2.1523  0.6523
 9876TIP3   OH251042   4.866   2.451   5.039  0.0978 -0.4553 -0.2487
 9876TIP3    H151043   4.873   2.529   5.094  1.0612  0.0475 -1.0468
 9876TIP3    H251044   4.786   2.465   4.988  0.0594 -0.1644 -0.1111
 9877TIP3   OH251045   1.651   4.226   6.671 -0.2960  0.2152  0.3436
 9877TIP3    H151046   1.729   4.269   6.635  0.0762 -1.0825 -0.4691
 9877TIP3    H251047   1.672   4.133   6.669 -1.8708 -0.1627  0.1337
 9878TIP3   OH251048   5.491   6.479   3.045 -0.1179  0.2908  0.4139
 9878TIP3    H151049   5.504   6.573   3.051 -1.1367  0.3786  1.7170
 9878TIP3    H251050   5.440   6.467   2.964 -0.8353  0.9698  0.7509
 9879TIP3   OH251051   2.039   4.451   1.224  0.1851  0.1295 -0.0922
 9879TIP3    H151052   2.056   4.527   1.169  1.6938 -0.4370 -0.4483
 9879TIP3    H251053   2.125   4.416   1.246 -0.4285 -0.6144  1.3103
 9880TIP3   OH251054   2.732   4.492  16.427  0.1660 -0.1104  0.0957
 9880TIP3    H151055   2.692   4.563  16.478  0.7912  0.9664 -0.8433
 9880TIP3    H251056   2.663   4.464  16.366 -0.4345 -1.0854  1.2066
 9881TIP3   OH251057   6.130   4.848  16.341 -0.1695  0.0120 -0.1465
 9881TIP3    H151058   6.147   4.879  16.252 -0.1184  0.8510  0.1452
 9881TIP3    H251059   6.171   4.762  16.345  2.6999  1.2668  0.0462
 9882TIP3   OH251060   3.242   1.283  14.598  0.2158 -0.6390 -0.0947
 9882TIP3    H151061   3.257   1.201  14.646 -0.2197 -0.2052  0.8081
 9882TIP3    H251062   3.154   1.310  14.626  0.5661  0.3990  0.0176
 9883TIP3   OH251063   1.983   1.555  11.523 -0.7262 -0.1374  0.4460
 9883TIP3    H151064   2.018   1.603  11.448 -0.3254  0.5656  1.0742
 9883TIP3    H251065   1.907   1.605  11.550 -0.0242  0.4427  1.4086
 9884TIP3   OH251066   1.909   1.543  16.236 -0.1301 -0.0438  0.2767
 9884TIP3    H151067   1.957   1.565  16.316 -1.0534  1.8255  0.3605
 9884TIP3    H251068   1.834   1.491  16.266 -0.3771  0.5011  0.6122
 9885TIP3   OH251069   5.218   0.908  12.515  0.0362 -0.0866 -0.1221
 9885TIP3    H151070   5.268   0.827  12.527 -0.1702 -0.0631  1.0425
 9885TIP3    H251071   5.206   0.942  12.604  0.9480  1.7420 -0.6273
 9886TIP3   OH251072   6.723   2.449   4.901  0.0103  0.0263 -0.7082
 9886TIP3    H151073   6.656   2.492   4.848 -1.0378 -2.1776 -1.2958
 9886TIP3    H251074   6.719   2.493   4.986 -2.3190 -0.1183 -0.6820
 9887TIP3   OH251075   1.810   2.754  14.686 -0.8791 -0.6483  0.1051
 9887TIP3    H151076   1.862   2.694  14.632  0.3421  0.1100  0.3971
 9887TIP3    H251077   1.764   2.809  14.622 -0.2875 -0.4675 -0.1751
 9888TIP3   OH251078   5.226   2.588  12.008  0.4546  0.7275 -0.2581
 9888TIP3    H151079   5.309   2.598  11.960  1.2465 -0.0984  0.8652
 9888TIP3    H251080   5.250   2.601  12.100 -0.4165 -0.7330  0.2101
 9889TIP3   OH251081   1.955   5.046  13.354 -0.3648 -0.2118  0.1643
 9889TIP3    H151082   1.937   4.979  13.288 -1.1711 -0.0920  0.2564
 9889TIP3    H251083   1.910   5.124  13.323  1.3668  0.6119 -0.4451
 9890TIP3   OH251084   4.137   3.045   4.343  0.4013  0.3592 -0.0646
 9890TIP3    H151085   4.148   3.002   4.428  0.6228 -0.8724 -0.6961
 9890TIP3    H251086   4.159   3.136   4.359  0.9979  0.0296  1.0738
 9891TIP3   OH251087   0.808   6.291   4.391 -0.0855  0.2623 -0.3610
 9891TIP3    H151088   0.863   6.291   4.470 -0.6637 -1.3285  0.0777
 9891TIP3    H251089   0.839   6.366   4.341  0.1324  1.4772  1.4908
 9892TIP3   OH251090   4.839   5.468  14.149  0.6858  0.2672  1.0860
 9892TIP3    H151091   4.819   5.480  14.056  0.8054 -0.2758  0.9857
 9892TIP3    H251092   4.867   5.376  14.156  0.3667  0.2087  1.7075
 9893TIP3   OH251093   5.464   6.754  13.857  0.2366 -0.1536 -0.4813
 9893TIP3    H151094   5.466   6.840  13.898  1.8011  0.2090 -1.2452
 9893TIP3    H251095   5.556   6.730  13.848 -0.1496 -1.3745 -1.3853
 9894TIP3   OH251096   3.222   3.142   2.509  0.2531  0.1296  0.2089
 9894TIP3    H151097   3.244   3.222   2.556  0.4818  0.6077 -0.6918
 9894TIP3    H251098   3.136   3.116   2.544  0.0172  0.9585  0.2466
 9895TIP3   OH251099   5.931   0.580   4.998  0.7851  0.3436  0.5022
 9895TIP3    H151100   5.838   0.594   5.019  0.4925  0.1744 -0.6331
 9895TIP3    H251101   5.938   0.605   4.906  1.6051 -0.8864  0.2262
 9896TIP3   OH251102   4.969   4.904   4.518 -0.2723  0.9969  0.3853
 9896TIP3    H151103   5.060   4.881   4.536  0.3901  2.2027 -1.1748
 9896TIP3    H251104   4.918   4.833   4.557  1.4151 -0.5410 -0.0754
 9897TIP3   OH251105   5.602   5.369  11.137 -0.3903 -0.3036 -0.6691
 9897TIP3    H151106   5.552   5.401  11.211  0.9540  1.0270 -0.2685
 9897TIP3    H251107   5.634   5.449  11.094  1.9871 -1.0412 -0.4226
 9898TIP3   OH251108   3.615   1.721  12.775 -0.7364  0.1263  0.9320
 9898TIP3    H151109   3.588   1.629  12.775  0.9770 -0.4239 -0.5508
 9898TIP3    H251110   3.646   1.737  12.864  1.0256 -1.4066  0.6415
 9899TIP3   OH251111   5.251   3.037  14.183  0.2232  0.3459  0.0512
 9899TIP3    H151112   5.258   3.056  14.277 -0.1856 -0.8043  0.3341
 9899TIP3    H251113   5.317   2.970  14.168  0.2079  0.4461 -0.4609
 9900TIP3   OH251114   6.332   2.266   6.052 -0.3035  0.7063  0.4578
 9900TIP3    H151115   6.415   2.300   6.086  0.2889 -0.4743  0.2241
 9900TIP3    H251116   6.302   2.203   6.117 -1.0119  1.0954  0.5224
 9901TIP3   OH251117   4.402   5.344  16.302 -0.4333 -0.5381  0.6301
 9901TIP3    H151118   4.444   5.264  16.333 -0.7656 -0.9741 -0.0156
 9901TIP3    H251119   4.357   5.379  16.379 -0.5992 -1.1819  0.8331
 9902TIP3   OH251120   0.572   2.526  15.043  0.0453  0.4367  0.0415
 9902TIP3    H151121   0.607   2.520  14.954  2.3953  0.5442  0.8977
 9902TIP3    H251122   0.563   2.620  15.060  0.1863  0.4361  0.1234
 9903TIP3   OH251123   3.256   6.625   1.386  0.4043  0.0002 -0.1151
 9903TIP3    H151124   3.255   6.720   1.380  0.7911  0.0216  0.1223
 9903TIP3    H251125   3.165   6.600   1.399  0.6668  0.6179  4.1478
 9904TIP3   OH251126   6.694   5.032  15.619 -0.1306 -0.3751 -0.0121
 9904TIP3    H151127   6.765   5.087  15.586  0.0987 -1.1789 -0.8850
 9904TIP3    H251128   6.728   4.943  15.616 -0.6956 -0.6349  0.8671
 9905TIP3   OH251129   2.564   1.372   2.109 -0.2913  0.4252 -0.3124
 9905TIP3    H151130   2.522   1.297   2.067  0.8247 -0.1714 -0.3870
 9905TIP3    H251131   2.593   1.340   2.194 -0.9279  1.1319  0.1873
 9906TIP3   OH251132   0.878   3.377   4.080 -1.1390  0.0570  0.0382
 9906TIP3    H151133   0.893   3.412   4.167 -1.5561 -0.1180  0.1808
 9906TIP3    H251134   0.962   3.386   4.036 -0.7611 -0.4158  0.6547
 9907TIP3   OH251135   4.755   5.970   1.350 -0.0252  0.9161 -0.3961
 9907TIP3    H151136   4.683   6.032   1.358 -0.2853  0.4198  1.5771
 9907TIP3    H251137   4.775   5.944   1.440  1.4170 -0.3393 -1.0269
 9908TIP3   OH251138   0.269   6.529  15.212  0.0601 -0.2503  0.8471
 9908TIP3    H151139   0.324   6.607  15.203 -1.0618  0.6599  1.5248
 9908TIP3    H251140   0.181   6.560  15.191 -0.2380 -1.6149  0.0134
 9909TIP3   OH251141   1.885   0.344   3.563  0.2615 -0.2404 -0.1968
 9909TIP3    H151142   1.939   0.306   3.494 -0.3041  0.2817 -0.9360
 9909TIP3    H251143   1.937   0.417   3.596  0.8500 -0.9233  0.4482
 9910TIP3   OH251144   4.256   3.726   4.917 -0.4178  0.5145  0.1266
 9910TIP3    H151145   4.196   3.759   4.851 -0.3681  1.6998  0.6408
 9910TIP3    H251146   4.234   3.634   4.927 -2.5749  1.0514  0.7360
 9911TIP3   OH251147   2.686   0.825  12.516  0.5163 -0.5836  0.2746
 9911TIP3    H151148   2.595   0.845  12.492  0.8322  0.5457 -0.0593
 9911TIP3    H251149   2.732   0.909  12.506  2.1133 -1.6168 -1.9059
 9912TIP3   OH251150   1.691   6.463   3.570  0.1258  0.4010  0.0304
 9912TIP3    H151151   1.640   6.506   3.639  1.6053 -0.2495  1.5894
 9912TIP3    H251152   1.772   6.513   3.566 -0.6551  1.6331 -2.6581
 9913TIP3   OH251153   3.161   4.379   5.525  0.3242  0.0728  0.0209
 9913TIP3    H151154   3.212   4.407   5.450  2.8658  0.6236  1.8337
 9913TIP3    H251155   3.207   4.302   5.559  0.2720  0.8493  2.0005
 9914TIP3   OH251156   6.323   0.209  16.921  0.1309  0.3903 -0.0261
 9914TIP3    H151157   6.344   0.125  16.962 -0.3611  0.4484  0.3534
 9914TIP3    H251158   6.354   0.275  16.984 -1.0225  0.4778  0.4656
 9915TIP3   OH251159   5.159   0.209  13.833  0.3614  0.4680 -0.2750
 9915TIP3    H151160   5.081   0.259  13.810 -0.6994 -1.2629 -0.6398
 9915TIP3    H251161   5.125   0.133  13.880  1.7797 -0.6697 -1.0196
 9916TIP3   OH251162   1.450   6.642   3.154 -0.4123 -0.6830  0.2169
 9916TIP3    H151163   1.538   6.670   3.126 -0.3139  0.6330  1.6958
 9916TIP3    H251164   1.464   6.559   3.199 -0.3358 -1.8945 -1.9120
 9917TIP3   OH251165   5.040   5.815   1.233 -0.3215  0.8731 -0.0020
 9917TIP3    H151166   4.945   5.817   1.244 -0.8987  1.0653 -3.7808
 9917TIP3    H251167   5.070   5.901   1.264 -1.5249  1.2473  0.1727
 9918TIP3   OH251168   4.570   3.910  13.476  0.0650  0.2386  0.4352
 9918TIP3    H151169   4.665   3.914  13.478  0.0524  0.3270  0.8969
 9918TIP3    H251170   4.548   3.822  13.507 -0.0373  0.6297  1.5192
 9919TIP3   OH251171   2.796   4.545   3.382  0.1436 -1.0768  0.0327
 9919TIP3    H151172   2.855   4.484   3.426  0.9567 -1.8435 -1.9858
 9919TIP3    H251173   2.835   4.631   3.395 -0.0939 -1.1631  1.4692
 9920TIP3   OH251174   3.854   0.986   1.474 -0.7017 -0.0903  0.4165
 9920TIP3    H151175   3.830   1.066   1.427  0.6510  0.3273  0.3826
 9920TIP3    H251176   3.800   0.918   1.435 -0.2697  0.4083 -1.1419
 9921TIP3   OH251177   1.359   6.787  13.570 -0.1651 -0.0379 -0.5948
 9921TIP3    H151178   1.438   6.783  13.623 -0.0612 -1.3376 -0.8134
 9921TIP3    H251179   1.338   6.880  13.564  0.9189  0.2609  0.0857
 9922TIP3   OH251180   3.721   1.989  11.993  0.5298  0.1545  0.1681
 9922TIP3    H151181   3.803   2.038  11.989  1.0874 -0.4713  2.3824
 9922TIP3    H251182   3.733   1.917  11.930  0.2216  1.9762 -2.1176
 9923TIP3   OH251183   5.524   3.210  12.617 -0.5958  0.0414 -0.0984
 9923TIP3    H151184   5.509   3.301  12.592 -0.2157 -0.1648 -1.1294
 9923TIP3    H251185   5.583   3.215  12.692 -1.7726  0.6811  0.8145
 9924TIP3   OH251186   6.681   2.383  14.357 -0.0333  0.2222 -0.2639
 9924TIP3    H151187   6.605   2.432  14.327  0.0928  1.1613  0.8867
 9924TIP3    H251188   6.725   2.441  14.419  1.3556 -0.4870 -0.5283
 9925TIP3   OH251189   4.253   2.897   5.323 -0.3016 -0.0034  0.1644
 9925TIP3    H151190   4.241   2.807   5.352  0.2261  0.1776  0.9899
 9925TIP3    H251191   4.171   2.920   5.281 -0.5679 -0.7581  0.2566
 9926TIP3   OH251192   6.402   0.500  17.015  0.3006  0.0985  0.4705
 9926TIP3    H151193   6.435   0.449  17.089 -0.8068 -2.1358 -0.4737
 9926TIP3    H251194   6.468   0.489  16.947  1.2582  2.0469  1.0392
 9927TIP3   OH251195   1.505   5.852   4.794 -0.1830  0.8104  0.3710
 9927TIP3    H151196   1.545   5.923   4.844  0.9631  0.8778 -0.6164
 9927TIP3    H251197   1.576   5.791   4.776 -0.9106 -0.0132  0.1948
 9928TIP3   OH251198   0.399   1.626   3.305  0.1051 -0.1638  0.4217
 9928TIP3    H151199   0.428   1.668   3.224 -1.2488 -2.2729 -1.2642
 9928TIP3    H251200   0.434   1.682   3.375  0.4450  2.3285 -1.5943
 9929TIP3   OH251201   4.410   5.356   5.327  0.2941  0.2532 -1.0600
 9929TIP3    H151202   4.440   5.284   5.271 -0.0092  0.3470 -1.3419
 9929TIP3    H251203   4.315   5.356   5.318  0.0284 -1.0219  1.0225
 9930TIP3   OH251204   5.647   3.610   0.337 -0.3522 -0.2775  0.0146
 9930TIP3    H151205   5.648   3.695   0.293  1.1744  0.0823  0.6681
 9930TIP3    H251206   5.732   3.572   0.316 -0.3763 -0.9409  1.0407
 9931TIP3   OH251207   5.083   3.456   2.877 -0.2402 -0.1105  0.4273
 9931TIP3    H151208   5.107   3.370   2.912 -0.9265 -0.6349 -0.3618
 9931TIP3    H251209   5.081   3.513   2.954  0.7848 -0.6566  0.8834
 9932TIP3   OH251210   3.287   4.477  15.775 -0.2403 -0.4604  0.1417
 9932TIP3    H151211   3.347   4.440  15.711 -0.5171 -3.5060  1.4946
 9932TIP3    H251212   3.340   4.491  15.853 -0.9603 -2.0528  0.9638
 9933TIP3   OH251213   0.673   2.941   5.950  0.2448 -0.1705  0.3487
 9933TIP3    H151214   0.766   2.962   5.956 -0.2035  1.4106  2.7002
 9933TIP3    H251215   0.654   2.890   6.028 -0.9245 -0.2852  0.0171
 9934TIP3   OH251216   2.454   4.919   0.624  0.9431  0.0078  0.0332
 9934TIP3    H151217   2.543   4.888   0.640  0.8925 -1.1002 -1.5953
 9934TIP3    H251218   2.465   4.988   0.559  0.4793 -1.6385 -1.8642
 9935TIP3   OH251219   2.060   2.929   2.912 -0.4465  0.5835 -0.1206
 9935TIP3    H151220   2.057   2.833   2.905 -0.7028  0.5522  0.3845
 9935TIP3    H251221   1.986   2.951   2.969  0.9206  0.9114  1.5992
 9936TIP3   OH251222   5.074   0.794   1.417  0.1541  0.0088  0.4899
 9936TIP3    H151223   5.035   0.852   1.352 -1.1283  0.1147  1.3224
 9936TIP3    H251224   5.159   0.770   1.380  0.7181  2.3531  0.0595
 9937TIP3   OH251225   0.425   0.980  16.973  0.5626 -0.5278 -0.6391
 9937TIP3    H151226   0.382   0.925  16.908  0.1955 -1.1343  0.1066
 9937TIP3    H251227   0.354   1.023  17.020  0.8060 -0.6129 -0.1892
 9938TIP3   OH251228   3.654   4.521   3.418 -0.2771  0.4385 -0.4957
 9938TIP3    H151229   3.567   4.510   3.457  0.3548 -0.5108  0.7047
 9938TIP3    H251230   3.695   4.590   3.469  0.8118 -1.2893  1.0766
 9939TIP3   OH251231   2.571   3.953   0.875  0.0418 -0.4945 -0.2511
 9939TIP3    H151232   2.600   4.037   0.839  1.0524 -1.7571 -2.6136
 9939TIP3    H251233   2.478   3.965   0.891 -0.0010  0.8563 -1.3085
 9940TIP3   OH251234   6.506   2.653  13.109 -0.0024 -0.1763 -0.0433
 9940TIP3    H151235   6.599   2.638  13.124  0.0813 -0.2297 -0.5954
 9940TIP3    H251236   6.502   2.730  13.052 -0.3425  0.5037  0.8871
 9941TIP3   OH251237   6.414   1.217   1.891  0.0364 -0.0542  0.0788
 9941TIP3    H151238   6.489   1.259   1.849 -1.3498  2.3948 -0.1440
 9941TIP3    H251239   6.381   1.156   1.826  0.9091 -0.0096 -0.4172
 9942TIP3   OH251240   3.403   2.277  12.678 -0.3112 -0.0770 -0.2413
 9942TIP3    H151241   3.384   2.236  12.593 -0.6035  0.7734 -0.5977
 9942TIP3    H251242   3.487   2.322  12.664 -0.3040 -0.0283 -0.0435
 9943TIP3   OH251243   2.475   2.922   4.755  0.7530 -0.3060  0.1123
 9943TIP3    H151244   2.464   2.984   4.827  1.7120 -0.0335  0.0409
 9943TIP3    H251245   2.570   2.913   4.745  0.6978  0.7592 -2.0411
 9944TIP3   OH251246   5.440   5.529   4.144  0.4330 -0.3934 -0.7637
 9944TIP3    H151247   5.386   5.592   4.097  1.1315  0.2883 -0.6862
 9944TIP3    H251248   5.396   5.518   4.229  0.8344  0.7996 -0.3726
 9945TIP3   OH251249   3.062   0.768  12.038  0.1800 -0.3308 -0.5488
 9945TIP3    H151250   2.981   0.810  12.066  1.0980  0.4301  1.0579
 9945TIP3    H251251   3.044   0.674  12.048  0.0616 -0.1334  1.5815
 9946TIP3   OH251252   5.842   5.947  14.666  0.1395 -0.9292  0.0152
 9946TIP3    H151253   5.911   5.954  14.600 -0.7869 -1.9388 -1.1015
 9946TIP3    H251254   5.807   5.859  14.655  0.3021 -1.3176  2.2421
 9947TIP3   OH251255   4.635   2.852  13.265  0.0659 -0.6988 -0.4903
 9947TIP3    H151256   4.572   2.910  13.308 -1.1390 -1.1953 -1.5278
 9947TIP3    H251257   4.652   2.784  13.331  0.9772  0.4286  0.4829
 9948TIP3   OH251258   5.108   1.173   6.153  0.5819 -0.2236 -0.4849
 9948TIP3    H151259   5.202   1.168   6.140  0.6385  0.4792 -0.3460
 9948TIP3    H251260   5.097   1.189   6.247  0.3803  1.1159 -0.7165
 9949TIP3   OH251261   4.715   1.167   4.183  0.1622  0.1976 -0.2657
 9949TIP3    H151262   4.715   1.093   4.244 -0.4660  2.0661  2.1474
 9949TIP3    H251263   4.788   1.222   4.212 -0.1557  1.1521 -1.2113
 9950TIP3   OH251264   6.668   2.439   1.309 -0.3032 -0.4490  0.3526
 9950TIP3    H151265   6.575   2.445   1.287 -0.5407 -0.4984  1.2944
 9950TIP3    H251266   6.686   2.518   1.360  0.2602 -0.2754 -0.0976
 9951TIP3   OH251267   1.432   5.441   4.708  0.6190  0.2187  0.2627
 9951TIP3    H151268   1.472   5.460   4.793  1.6837 -0.5200 -0.0554
 9951TIP3    H251269   1.347   5.486   4.711 -0.6674 -2.0366  2.8557
 9952TIP3   OH251270   0.145   1.034  15.696 -0.3675 -0.5909  0.0043
 9952TIP3    H151271   0.206   0.967  15.668 -1.0887 -0.9133 -0.8394
 9952TIP3    H251272   0.172   1.113  15.647  0.0340 -0.4469  0.4515
 9953TIP3   OH251273   0.851   0.763  13.898 -0.0234  0.0381 -0.8728
 9953TIP3    H151274   0.834   0.856  13.911  0.9508  0.0575  0.5403
 9953TIP3    H251275   0.779   0.719  13.943  0.8084  0.1365  0.6343
 9954TIP3   OH251276   0.234   0.233   0.560  0.8700  0.0053  0.0675
 9954TIP3    H151277   0.201   0.150   0.525 -2.2988  0.9996  0.3560
 9954TIP3    H251278   0.256   0.284   0.482 -0.7607  0.1851 -0.3152
 9955TIP3   OH251279   2.023   0.471  12.701 -0.0757  0.1071  0.1994
 9955TIP3    H151280   2.034   0.419  12.781  2.1829  0.0308 -0.1085
 9955TIP3    H251281   2.037   0.561  12.729 -1.7126  0.3608  0.3019
 9956TIP3   OH251282   0.408   3.142   0.343  0.0978  0.0520 -0.2553
 9956TIP3    H151283   0.320   3.105   0.346  0.6236 -1.4615 -2.1703
 9956TIP3    H251284   0.396   3.235   0.365 -1.5982 -0.6284  2.0036
 9957TIP3   OH251285   6.472   6.219  11.786  0.1279 -0.2612 -0.5246
 9957TIP3    H151286   6.460   6.181  11.699  1.0103 -0.3216 -0.6218
 9957TIP3    H251287   6.554   6.182  11.818  0.1425  0.2628  0.0654
 9958TIP3   OH251288   5.139   2.200   2.219 -0.4674  0.1812  0.1862
 9958TIP3    H151289   5.141   2.148   2.139  0.6683  1.2515 -0.5345
 9958TIP3    H251290   5.138   2.137   2.290  2.1359 -0.8826 -0.6187
 9959TIP3   OH251291   2.401   6.464   5.266  0.3685  0.3799 -0.3311
 9959TIP3    H151292   2.425   6.380   5.305 -2.1928 -1.1470 -1.7968
 9959TIP3    H251293   2.323   6.445   5.213 -0.4027  3.7172 -0.6137
 9960TIP3   OH251294   2.202   1.791   3.180 -0.3487  0.2845  0.5134
 9960TIP3    H151295   2.239   1.789   3.092 -1.1700  1.0143  0.1349
 9960TIP3    H251296   2.246   1.720   3.227  0.2644  0.0431 -0.4166
 9961TIP3   OH251297   5.430   0.265   6.728  0.2893 -0.1468 -0.3667
 9961TIP3    H151298   5.429   0.331   6.797 -0.2904  0.7785 -1.2354
 9961TIP3    H251299   5.517   0.226   6.733  0.4750  0.3511  0.4609
 9962TIP3   OH251300   1.690   1.984  16.097 -0.2649  0.4596 -0.1437
 9962TIP3    H151301   1.766   1.933  16.125  0.9897  2.2039 -0.2177
 9962TIP3    H251302   1.672   1.954  16.008  0.6334  0.3413 -0.2930
 9963TIP3   OH251303   5.304   2.073   4.932  0.0510  0.4521 -0.3324
 9963TIP3    H151304   5.209   2.071   4.915  0.2861 -0.9712 -1.7339
 9963TIP3    H251305   5.321   2.163   4.960 -1.5875  0.9825 -0.9129
 9964TIP3   OH251306   4.067   3.701  11.549 -0.4139  0.2058  0.0346
 9964TIP3    H151307   4.036   3.615  11.575 -0.5842 -0.9061 -3.4314
 9964TIP3    H251308   3.993   3.740  11.502  0.2598  1.5161  0.0186
 9965TIP3   OH251309   6.265   3.494  14.644  0.0586 -0.0386  0.3586
 9965TIP3    H151310   6.244   3.500  14.737 -0.5657 -3.3478  0.5571
 9965TIP3    H251311   6.207   3.426  14.611  0.7911  0.5387 -2.3208
 9966TIP3   OH251312   5.029   6.302  16.948 -0.7241  0.7189 -0.0391
 9966TIP3    H151313   4.991   6.266  16.868 -0.6712  1.3000 -0.3333
 9966TIP3    H251314   5.102   6.356  16.918  1.1773 -1.3425  0.5961
 9967TIP3   OH251315   5.994   2.833  13.490 -0.0341 -0.3434 -0.4459
 9967TIP3    H151316   6.065   2.785  13.533 -1.2625 -0.7800  1.2020
 9967TIP3    H251317   6.006   2.924  13.516 -0.0610 -0.4113 -0.1992
 9968TIP3   OH251318   6.583   0.297  15.819 -0.3517  0.4959 -0.2042
 9968TIP3    H151319   6.638   0.373  15.802  1.4191 -0.7853 -0.3895
 9968TIP3    H251320   6.553   0.308  15.910 -0.3155  1.5088 -0.3073
 9969TIP3   OH251321   0.289   0.338  16.116  0.0742 -0.3713  0.5028
 9969TIP3    H151322   0.204   0.293  16.117  0.5059 -1.2021  0.6370
 9969TIP3    H251323   0.291   0.384  16.032 -0.5866 -0.1731  0.5838
 9970TIP3   OH251324   5.183   2.154  14.949 -0.2380 -0.2039 -0.8243
 9970TIP3    H151325   5.245   2.225  14.969  1.0645 -0.8531 -2.3001
 9970TIP3    H251326   5.128   2.148  15.027  0.2007  1.7967 -0.2840
 9971TIP3   OH251327   0.808   1.262  14.642 -0.0617 -0.2738  0.3285
 9971TIP3    H151328   0.903   1.254  14.649  0.6537  3.7534 -1.5788
 9971TIP3    H251329   0.784   1.202  14.572  1.4121 -0.0636 -0.4018
 9972TIP3   OH251330   3.422   5.986  13.859 -0.3382  0.7600  0.3604
 9972TIP3    H151331   3.364   5.969  13.933 -0.0284  2.0513  0.9189
 9972TIP3    H251332   3.510   5.969  13.892 -0.2998 -0.0503 -0.1398
 9973TIP3   OH251333   5.345   1.657  14.007  0.1014  0.1065 -0.7971
 9973TIP3    H151334   5.280   1.592  14.033 -1.1718  1.4125 -0.5135
 9973TIP3    H251335   5.300   1.741  14.020  2.7657  1.2464  2.1292
 9974TIP3   OH251336   3.189   1.381   3.736 -0.3094  0.5797  0.6294
 9974TIP3    H151337   3.252   1.454   3.731  1.6210 -1.0741 -0.5470
 9974TIP3    H251338   3.242   1.303   3.725 -2.6875 -0.8912 -1.2908
 9975TIP3   OH251339   2.472   1.315   1.680 -0.1501  0.0580 -0.0585
 9975TIP3    H151340   2.436   1.247   1.624  0.9118  0.4694 -1.2839
 9975TIP3    H251341   2.552   1.276   1.716 -0.6216 -0.0639  0.8887
 9976TIP3   OH251342   5.357   5.611   1.874  0.0188  0.4587  0.6114
 9976TIP3    H151343   5.399   5.539   1.827 -0.5285 -0.3286  1.2857
 9976TIP3    H251344   5.273   5.624   1.830 -1.1985 -1.3353  2.2322
 9977TIP3   OH251345   4.479   2.232  14.804  0.1357  0.1873 -0.0378
 9977TIP3    H151346   4.540   2.172  14.761 -0.4372  0.4429 -1.2549
 9977TIP3    H251347   4.532   2.309  14.827  0.1629  0.6998 -1.7022
 9978TIP3   OH251348   3.571   4.656  11.628  0.4645  0.4840 -0.4324
 9978TIP3    H151349   3.523   4.578  11.656 -0.0394  1.1723  0.7061
 9978TIP3    H251350   3.537   4.675  11.541  0.1207 -0.1981 -0.4552
 9979TIP3   OH251351   2.476   4.091   1.165 -0.2610 -0.0427 -0.3211
 9979TIP3    H151352   2.571   4.077   1.170 -0.2527 -0.8837 -1.8905
 9979TIP3    H251353   2.439   4.002   1.164 -1.0694  0.2773  0.2028
 9980TIP3   OH251354   5.216   2.068   4.495 -0.0595 -0.4105  0.1641
 9980TIP3    H151355   5.161   2.127   4.545  1.2876  1.1029 -0.0451
 9980TIP3    H251356   5.294   2.120   4.473  0.3114 -1.6425 -1.7259
 9981TIP3   OH251357   1.802   6.628  15.220 -0.1192  0.1089 -0.5010
 9981TIP3    H151358   1.760   6.714  15.217  0.2110  0.2585 -1.1007
 9981TIP3    H251359   1.764   6.580  15.146  0.2993  0.0324 -0.6726
 9982TIP3   OH251360   6.334   5.697  12.997  0.1440  0.3468 -0.0856
 9982TIP3    H151361   6.253   5.742  13.023  0.7892  0.8749  1.0885
 9982TIP3    H251362   6.364   5.653  13.077  1.4836  0.9033 -0.2496
 9983TIP3   OH251363   0.953   1.588   3.244 -0.3180  0.1768 -0.1261
 9983TIP3    H151364   0.876   1.645   3.237  0.0721  0.6426 -0.6964
 9983TIP3    H251365   0.992   1.610   3.329 -1.2412 -0.6221  0.5339
 9984TIP3   OH251366   5.591   2.413  12.260 -0.0143  0.4213  0.0296
 9984TIP3    H151367   5.516   2.437  12.206  0.3549 -0.0239 -0.6834
 9984TIP3    H251368   5.576   2.460  12.342 -0.5191  1.1954 -0.4879
 9985TIP3   OH251369   3.754   4.067  16.660  0.6657  0.0534  0.0913
 9985TIP3    H151370   3.712   3.984  16.639 -0.5633  1.1842 -2.3259
 9985TIP3    H251371   3.687   4.119  16.703  1.3287 -0.0332  1.2869
 9986TIP3   OH251372   0.236   1.886   3.408 -0.1516  0.6394 -0.2711
 9986TIP3    H151373   0.176   1.901   3.481 -1.2272 -2.5553 -0.3633
 9986TIP3    H251374   0.180   1.869   3.333  0.8172 -1.6230 -0.5522
 9987TIP3   OH251375   5.856   3.275   2.007  0.1990 -0.7397 -0.9202
 9987TIP3    H151376   5.776   3.298   2.055 -0.6370 -2.3819 -1.4480
 9987TIP3    H251377   5.916   3.242   2.075  1.0082  1.7463 -0.3195
 9988TIP3   OH251378   1.996   3.648  16.961 -0.0606  0.5932  0.0561
 9988TIP3    H151379   1.964   3.727  16.916  2.1501  0.7781 -1.3484
 9988TIP3    H251380   1.918   3.594  16.974 -1.3946  2.3579 -0.2877
 9989TIP3   OH251381   2.500   6.415  15.175 -0.1749  0.2534 -0.2300
 9989TIP3    H151382   2.508   6.329  15.215 -0.1281  0.3029 -0.1346
 9989TIP3    H251383   2.460   6.397  15.089 -0.6250  0.1866 -0.0087
 9990TIP3   OH251384   0.564   0.030  13.911  0.2147  0.0066 -0.0751
 9990TIP3    H151385   0.505   0.025  13.837 -0.4407 -0.7757  0.4898
 9990TIP3    H251386   0.543   0.114  13.953 -0.4851 -0.2700  0.1221
 9991TIP3   OH251387   1.039   6.259   0.082 -0.0899 -0.1793  0.4949
 9991TIP3    H151388   1.002   6.225   0.163 -1.7531 -0.3123 -0.2834
 9991TIP3    H251389   0.984   6.334   0.060  0.2229 -0.2552 -0.5974
 9992TIP3   OH251390   1.173   4.045   6.662 -0.2799  0.3946  0.5907
 9992TIP3    H151391   1.194   3.959   6.624 -0.4219  1.0847 -1.1401
 9992TIP3    H251392   1.112   4.084   6.599  0.2388  1.9991  1.0492
 9993TIP3   OH251393   4.347   2.209   5.609  0.1845  0.5641 -0.2106
 9993TIP3    H151394   4.268   2.155   5.602 -0.2689  0.3944  3.9744
 9993TIP3    H251395   4.420   2.147   5.598 -0.1484  0.5504 -3.0325
 9994TIP3   OH251396   0.452   3.649  15.985  0.1465  0.4023  0.2457
 9994TIP3    H151397   0.546   3.641  15.974  0.0579 -0.4351  0.0269
 9994TIP3    H251398   0.434   3.742  15.977  0.6771  0.3479 -1.9764
 9995TIP3   OH251399   0.832   2.422  16.555 -0.2497  0.9257 -0.5090
 9995TIP3    H151400   0.796   2.467  16.632 -1.2175 -0.3715 -0.1496
 9995TIP3    H251401   0.831   2.488  16.486  2.0248  2.5782  0.9001
 9996TIP3   OH251402   1.287   5.744   6.660  0.1288  0.9709 -0.1050
 9996TIP3    H151403   1.306   5.657   6.625 -1.1658  0.5600  0.1678
 9996TIP3    H251404   1.373   5.782   6.677  0.7665 -0.9779  1.4995
 9997TIP3   OH251405   6.762   0.440  15.542 -0.7679  0.0157 -0.2697
 9997TIP3    H151406   6.828   0.413  15.606 -2.0497  0.0429  1.1143
 9997TIP3    H251407   6.807   0.433  15.458  0.6984 -0.8887  0.5320
 9998TIP3   OH251408   0.302   0.143  11.887  0.3351 -0.1202  0.3058
 9998TIP3    H151409   0.363   0.159  11.959  1.5679 -1.7151 -0.3230
 9998TIP3    H251410   0.218   0.175  11.919  1.0585  0.1515  2.0522
 9999TIP3   OH251411   6.761   3.538   0.100 -0.2041  0.0412 -0.2509
 9999TIP3    H151412   6.705   3.464   0.125  0.8073 -0.5869  0.2120
 9999TIP3    H251413   6.727   3.565   0.015 -1.1099 -0.4308 -0.0603
10000TIP3   OH251414   6.342   5.087  14.170  0.7678 -0.3012  0.3292
10000TIP3    H151415   6.419   5.136  14.197  0.1719  2.1227 -1.9074
10000TIP3    H251416   6.342   5.009  14.225  2.3697  1.7089  3.4525
10001TIP3   OH251417   2.465   1.974   3.203  0.4624 -0.0813  0.1827
10001TIP3    H151418   2.534   2.024   3.246  0.1927 -0.7363  1.4103
10001TIP3    H251419   2.428   1.919   3.272  0.1003 -1.2608 -0.9085
10002TIP3   OH251420   3.444   3.360   5.562 -0.1740 -0.2846 -0.2359
10002TIP3    H151421   3.351   3.353   5.537 -0.0999 -1.6092 -0.2062
10002TIP3    H251422   3.452   3.449   5.595 -0.9089  0.6515 -2.3377
10003TIP3   OH251423   1.356   3.751  14.206 -0.3654 -0.0600  0.0840
10003TIP3    H151424   1.320   3.663  14.195  1.8672 -0.8690 -1.4897
10003TIP3    H251425   1.331   3.797  14.126  0.4553 -0.0193 -0.1500
10004TIP3   OH251426   2.110   5.105  14.836  0.7427 -0.1782  0.3416
10004TIP3    H151427   2.176   5.081  14.772  1.8467 -0.6438  1.6105
10004TIP3    H251428   2.036   5.047  14.817  1.4627 -1.0551  0.1662
10005TIP3   OH251429   4.633   2.568  12.781  0.4161  0.3266 -0.3656
10005TIP3    H151430   4.660   2.625  12.710 -0.5395  0.2651 -0.7945
10005TIP3    H251431   4.714   2.549  12.830  0.5479  3.3583  0.7885
10006TIP3   OH251432   1.110   5.987  14.514  0.5595 -0.0654 -0.6494
10006TIP3    H151433   1.075   6.017  14.598  0.8689 -0.3595 -0.4080
10006TIP3    H251434   1.045   6.013  14.449  1.2732  2.0249 -0.5890
10007TIP3   OH251435   1.643   6.650   6.565  0.1570 -0.1067  0.0891
10007TIP3    H151436   1.706   6.650   6.492 -1.0988 -0.2363 -1.0390
10007TIP3    H251437   1.665   6.571   6.615  1.0897  0.0164 -0.1048
10008TIP3   OH251438   4.536   5.144   2.626  0.4236 -0.0213 -0.5454
10008TIP3    H151439   4.480   5.169   2.552  0.7286  0.5428 -0.5875
10008TIP3    H251440   4.609   5.097   2.586 -0.4538 -1.5706 -0.4169
10009TIP3   OH251441   5.456   3.712   0.511  0.6436  0.6071 -0.1549
10009TIP3    H151442   5.441   3.678   0.599  1.7516 -0.7917 -0.4742
10009TIP3    H251443   5.548   3.692   0.492  0.0013 -0.7287 -2.2651
10010TIP3   OH251444   6.063   6.213  14.859  0.2099  0.6017 -0.0950
10010TIP3    H151445   6.076   6.122  14.831  0.3429  1.0149 -1.4624
10010TIP3    H251446   6.123   6.225  14.932 -0.4494 -0.6608  0.6817
10011TIP3   OH251447   5.388   1.951   0.868  1.0370  0.2477  0.3206
10011TIP3    H151448   5.347   1.935   0.954 -0.3439 -0.1357 -0.3725
10011TIP3    H251449   5.473   1.909   0.874  0.4101 -0.9919  1.0664
10012TIP3   OH251450   6.434   0.494   0.857 -0.3179 -0.4657 -0.0109
10012TIP3    H151451   6.367   0.521   0.920 -0.3382  0.5752 -0.4642
10012TIP3    H251452   6.516   0.499   0.905 -0.5369 -1.7756  0.5581
10013TIP3   OH251453   2.646   4.294  12.025 -0.2267 -0.7499 -0.1856
10013TIP3    H151454   2.599   4.283  12.108 -0.4732 -0.5064 -0.2887
10013TIP3    H251455   2.577   4.293  11.959 -0.2981  1.3403 -0.2159
10014TIP3   OH251456   2.938   1.268   4.932  0.0278  0.4422  0.2913
10014TIP3    H151457   3.015   1.252   4.988 -0.7156  0.0257  1.2340
10014TIP3    H251458   2.882   1.324   4.985 -0.0933  1.1732 -0.6016
10015TIP3   OH251459   6.365   1.708  11.326 -0.2027 -0.2287  0.0348
10015TIP3    H151460   6.416   1.654  11.386  0.4020 -0.8675 -1.0327
10015TIP3    H251461   6.430   1.746  11.267 -0.8852 -0.4935 -0.9038
10016TIP3   OH251462   6.167   1.555  11.227 -0.4325 -0.0364 -0.4346
10016TIP3    H151463   6.204   1.563  11.139 -1.5611  3.0756 -0.7619
10016TIP3    H251464   6.219   1.616  11.281 -2.4672  1.4830 -0.0446
10017TIP3   OH251465   3.768   3.751  14.798 -0.0145  0.1580  0.2986
10017TIP3    H151466   3.696   3.693  14.770 -1.0962  1.1301  0.9889
10017TIP3    H251467   3.731   3.839  14.795  1.6461  0.8659 -0.8620
10018TIP3   OH251468   5.920   2.117   6.297  0.0234  0.2625 -0.0777
10018TIP3    H151469   5.875   2.140   6.378 -1.4964  1.4985 -1.2275
10018TIP3    H251470   5.903   2.024   6.285 -0.7131  0.3255  0.4402
10019TIP3   OH251471   6.397   1.474  14.079  0.4854  0.0897 -0.0357
10019TIP3    H151472   6.430   1.432  13.999  0.3998 -0.2501  0.1070
10019TIP3    H251473   6.466   1.536  14.103 -0.3053  1.5979 -1.4302
10020TIP3   OH251474   2.640   5.939  14.018 -0.3359  0.1641 -0.1614
10020TIP3    H151475   2.587   6.018  14.018 -0.3283  0.1842 -1.2027
10020TIP3    H251476   2.662   5.925  13.925 -1.6468 -1.9089 -0.2241
10021TIP3   OH251477   5.519   1.452   0.346 -0.3653 -0.0207 -0.2117
10021TIP3    H151478   5.592   1.439   0.285  0.3698  1.8289  0.2060
10021TIP3    H251479   5.559   1.443   0.432 -0.5869  1.1215  0.0224
10022TIP3   OH251480   2.914   2.231  15.303 -0.4357  0.0454 -0.4285
10022TIP3    H151481   2.828   2.188  15.296 -0.8693  0.6295  0.9222
10022TIP3    H251482   2.929   2.270  15.218 -1.8538  0.5449 -0.4648
10023TIP3   OH251483   0.918   4.781   1.766 -0.4670 -0.4147  0.6076
10023TIP3    H151484   0.850   4.815   1.824 -1.1427 -0.7609  0.0347
10023TIP3    H251485   0.907   4.830   1.685 -0.0144 -0.4592  0.5138
10024TIP3   OH251486   6.477   3.548  12.844  0.2967 -0.2737 -0.6071
10024TIP3    H151487   6.413   3.477  12.845  0.4661 -0.4248  0.2583
10024TIP3    H251488   6.556   3.509  12.882  1.2632 -0.4114 -2.6165
10025TIP3   OH251489   4.204   3.533  10.573 -0.6324  0.7172 -0.2502
10025TIP3    H151490   4.252   3.458  10.540  0.0603  1.4537 -0.9606
10025TIP3    H251491   4.125   3.496  10.612  1.1212 -0.6768  2.2330
10026TIP3   OH251492   5.932   4.324   6.010 -0.0158 -0.1921  0.2424
10026TIP3    H151493   5.936   4.242   5.961  1.1244 -0.1950  0.3005
10026TIP3    H251494   6.018   4.365   5.994 -0.7336  1.2243 -0.1806
10027TIP3   OH251495   4.037   6.145   1.505  0.0226  0.2919  0.7062
10027TIP3    H151496   4.095   6.071   1.484 -1.1343  0.1193 -2.5050
10027TIP3    H251497   3.950   6.113   1.484 -0.7600  1.9153  1.3291
10028TIP3   OH251498   1.845   0.954  15.410  0.1436 -0.3852 -0.1828
10028TIP3    H151499   1.865   1.033  15.460 -0.7941 -1.7113  2.5324
10028TIP3    H251500   1.909   0.953  15.339  1.0675  2.0492  0.5105
10029TIP3   OH251501   5.586   5.785  16.048  0.1913 -0.2193  0.2413
10029TIP3    H151502   5.571   5.858  15.988 -0.8127 -2.1372 -1.9471
10029TIP3    H251503   5.656   5.734  16.007  0.2939 -0.9628  1.3102
10030TIP3   OH251504   5.868   6.368   0.974  0.6473 -0.3177 -0.3576
10030TIP3    H151505   5.950   6.392   1.016 -0.0435  1.8146 -0.1374
10030TIP3    H251506   5.892   6.350   0.882  1.1540  1.8789 -0.6961
10031TIP3   OH251507   4.144   3.843  14.598  0.5945  0.6341  0.2416
10031TIP3    H151508   4.179   3.783  14.664 -0.6669  0.4522  0.7897
10031TIP3    H251509   4.095   3.786  14.538  1.3143  0.8586 -0.5794
10032TIP3   OH251510   1.428   2.387   6.075  0.4102  0.3965 -0.4828
10032TIP3    H151511   1.449   2.372   6.168  2.3140 -1.7695 -1.1754
10032TIP3    H251512   1.500   2.441   6.043 -0.4183  1.4256 -0.6913
10033TIP3   OH251513   4.176   3.028  13.234 -0.3960 -0.2279  0.5718
10033TIP3    H151514   4.161   3.112  13.277 -2.5063 -0.1662 -0.1765
10033TIP3    H251515   4.123   3.032  13.154  2.8839 -0.5582 -1.8320
10034TIP3   OH251516   4.355   2.351   5.881  0.3957  0.3721  0.1322
10034TIP3    H151517   4.367   2.342   5.787 -0.1074  0.3387  0.0735
10034TIP3    H251518   4.433   2.399   5.910  0.8798 -0.1863 -0.2008
10035TIP3   OH251519   2.437   4.215   3.438 -0.1855 -0.3779 -0.0871
10035TIP3    H151520   2.449   4.124   3.463  0.1446  0.0204  1.2842
10035TIP3    H251521   2.431   4.262   3.521 -0.3579  0.8497 -0.7716
10036TIP3   OH251522   3.814   1.851  14.080  0.4603  0.7447  0.1022
10036TIP3    H151523   3.805   1.772  14.027  0.9080  1.4825 -1.1322
10036TIP3    H251524   3.728   1.864  14.120 -0.7431  1.5221 -2.4904
10037TIP3   OH251525   5.979   5.345  10.569  0.3471 -0.1481  0.6002
10037TIP3    H151526   5.988   5.263  10.520  0.5731 -0.0228  0.4295
10037TIP3    H251527   5.885   5.360  10.573  0.3500  0.2698 -0.5260
10038TIP3   OH251528   4.084   0.074   2.764 -0.3449 -0.0333  0.5298
10038TIP3    H151529   4.095   0.166   2.738 -0.1305  1.1494  4.1306
10038TIP3    H251530   4.173   0.045   2.785 -0.5704 -0.5743  0.7420
10039TIP3   OH251531   0.290   4.843   5.515 -0.1506  0.1986 -0.7276
10039TIP3    H151532   0.215   4.903   5.513  0.5145  1.1642  0.7949
10039TIP3    H251533   0.339   4.864   5.435  0.2535  1.9869 -0.0507
10040TIP3   OH251534   1.068   5.490  13.912  0.1123 -0.2493 -0.0051
10040TIP3    H151535   1.023   5.519  13.833 -1.8919 -0.7557  0.8637
10040TIP3    H251536   1.158   5.519  13.901 -0.7800  2.4529 -1.0934
10041TIP3   OH251537   6.357   4.286   6.626 -0.0589 -0.2491 -0.1561
10041TIP3    H151538   6.406   4.214   6.587  3.4751  1.5251  0.5565
10041TIP3    H251539   6.395   4.296   6.714  0.4387  3.1254 -0.6398
10042TIP3   OH251540   6.257   2.237   2.260  0.0763  0.4134  0.6421
10042TIP3    H151541   6.180   2.192   2.226  0.2627 -0.1854  0.9933
10042TIP3    H251542   6.251   2.325   2.223 -0.2122  0.0633 -0.1889
10043TIP3   OH251543   5.504   4.160  12.442 -0.0889 -0.1179  0.1900
10043TIP3    H151544   5.506   4.213  12.362  0.4551  0.0513  0.3087
10043TIP3    H251545   5.414   4.131  12.450 -0.1273 -0.2156 -0.5410
10044TIP3   OH251546   3.035   2.905  12.108  0.5548  0.5084 -0.5287
10044TIP3    H151547   3.038   2.993  12.070  1.7324  0.7887  0.1694
10044TIP3    H251548   3.124   2.891  12.142 -0.3723  0.2117  1.9743
10045TIP3   OH251549   0.258   1.336   3.750  0.1206 -0.0465  0.1557
10045TIP3    H151550   0.329   1.289   3.707 -0.8156  0.0794 -1.6331
10045TIP3    H251551   0.190   1.271   3.763  0.0354  0.1265  0.5804
10046TIP3   OH251552   3.344   4.788  15.394  0.0818  0.0359  0.6331
10046TIP3    H151553   3.340   4.763  15.487  1.2277  0.3853  0.7844
10046TIP3    H251554   3.309   4.711  15.348 -0.4719 -0.1582  1.3382
10047TIP3   OH251555   6.710   2.165   1.386  0.2113  0.0642 -0.7167
10047TIP3    H151556   6.644   2.097   1.372  0.9292 -0.9034  0.3917
10047TIP3    H251557   6.680   2.239   1.333 -1.5377 -0.4830 -0.5497
10048TIP3   OH251558   0.666   0.901   2.209 -0.6718  0.0241  0.0459
10048TIP3    H151559   0.676   0.836   2.279  1.3375 -1.6223 -1.6252
10048TIP3    H251560   0.608   0.859   2.145 -0.4101  0.4073 -0.4522
10049TIP3   OH251561   4.703   1.330  13.271  0.4381  0.0179  0.0245
10049TIP3    H151562   4.729   1.267  13.204  0.4573 -0.0859  0.1291
10049TIP3    H251563   4.609   1.344  13.255  0.4259 -0.0639  0.0238
10050TIP3   OH251564   2.153   4.121  11.936 -0.4554  0.0291  0.1065
10050TIP3    H151565   2.094   4.182  11.892 -4.0937 -1.9885  1.6871
10050TIP3    H251566   2.122   4.034  11.909  1.7197 -1.1777  1.2299
10051TIP3   OH251567   0.971   0.879   0.616 -0.3369 -0.6827  0.1065
10051TIP3    H151568   1.033   0.827   0.667  0.0197 -0.0278  0.3474
10051TIP3    H251569   0.898   0.819   0.598  0.3084 -1.4266 -0.0802
10052TIP3   OH251570   5.298   6.705   5.754  0.5205  0.1839 -0.3846
10052TIP3    H151571   5.393   6.711   5.756  0.5876 -0.8523  0.7448
10052TIP3    H251572   5.278   6.623   5.798 -0.9068  0.3673 -0.6248
10053TIP3   OH251573   1.452   3.708  13.051  0.0626 -0.1888  0.4311
10053TIP3    H151574   1.364   3.675  13.073 -1.2929  1.3498 -2.1952
10053TIP3    H251575   1.491   3.638  12.998  0.0094 -0.4671  0.7582
10054TIP3   OH251576   5.799   4.266   4.917 -0.3177  0.5233 -0.3186
10054TIP3    H151577   5.795   4.215   4.836  0.8250 -1.2357  0.6710
10054TIP3    H251578   5.782   4.356   4.890 -1.7668 -0.2651 -2.2363
10055TIP3   OH251579   6.340   0.933   3.625 -0.0457 -0.1559  0.1272
10055TIP3    H151580   6.313   0.860   3.680  0.0506 -0.2273  0.0796
10055TIP3    H251581   6.423   0.905   3.586 -1.0314 -0.8835 -1.5473
10056TIP3   OH251582   5.553   3.358  15.611  0.0155  0.1062  0.1667
10056TIP3    H151583   5.514   3.326  15.529 -0.0652  0.9683 -0.1460
10056TIP3    H251584   5.624   3.297  15.629 -0.4517 -0.5337 -0.1387
10057TIP3   OH251585   1.200   2.236  16.496 -0.5254 -0.5467  0.1899
10057TIP3    H151586   1.221   2.147  16.467  0.2061  0.0117 -1.0853
10057TIP3    H251587   1.285   2.279  16.505 -0.9296  0.6788 -1.4588
10058TIP3   OH251588   3.613   2.633  10.616  0.1292 -0.2047 -0.1735
10058TIP3    H151589   3.615   2.724  10.587  0.9959 -0.5517 -1.2610
10058TIP3    H251590   3.705   2.611  10.633 -0.0899 -0.8285  0.2617
10059TIP3   OH251591   3.624   0.524  15.893  0.3591  0.0666  0.6332
10059TIP3    H151592   3.598   0.433  15.878 -0.6423  0.2350  1.2771
10059TIP3    H251593   3.632   0.561  15.805 -0.4597 -0.3061  0.3927
10060TIP3   OH251594   6.253   0.174  14.318  0.0932  0.1546  0.0854
10060TIP3    H151595   6.263   0.265  14.343 -0.4790  0.0136  0.8596
10060TIP3    H251596   6.226   0.178  14.226 -3.2896  0.9691  0.9625
10061TIP3   OH251597   0.880   1.177  13.312 -0.0764 -0.2912 -0.5256
10061TIP3    H151598   0.892   1.093  13.356 -0.5620 -1.0788 -1.8661
10061TIP3    H251599   0.910   1.163  13.222 -0.1106  0.9878 -0.7649
10062TIP3   OH251600   5.409   3.004  15.367 -0.4399  0.3485  0.5354
10062TIP3    H151601   5.375   3.085  15.331 -1.7959 -0.2029  0.5192
10062TIP3    H251602   5.446   2.958  15.292  1.0502  1.2601  0.6680
10063TIP3   OH251603   1.518   2.358   1.306  0.5248 -0.3560 -0.5391
10063TIP3    H151604   1.485   2.447   1.317  1.2516 -0.1488  0.0158
10063TIP3    H251605   1.611   2.364   1.326  1.4661 -0.5105 -4.2015
10064TIP3   OH251606   1.563   6.095   2.085  0.3496  0.0847 -0.4603
10064TIP3    H151607   1.629   6.025   2.085  0.7336  0.4414 -0.1769
10064TIP3    H251608   1.572   6.135   1.998  1.0562  0.6387 -0.1372
10065TIP3   OH251609   3.751   2.051   0.648  0.4669 -0.0581  0.0066
10065TIP3    H151610   3.805   2.035   0.725 -0.0934 -0.1489  0.3847
10065TIP3    H251611   3.691   2.121   0.674 -0.6663 -1.0452  0.1342
10066TIP3   OH251612   0.297   0.713  12.479  0.6293 -0.0050  0.5195
10066TIP3    H151613   0.212   0.670  12.492 -0.1945  0.4148 -2.5563
10066TIP3    H251614   0.275   0.805  12.466  1.2720 -0.1312 -1.9846
10067TIP3   OH251615   0.927   2.671   5.768  0.4763  0.2547 -0.2728
10067TIP3    H151616   0.978   2.707   5.841 -0.1043  1.7166 -0.5541
10067TIP3    H251617   0.960   2.718   5.691 -1.4095  1.3974 -0.4271
10068TIP3   OH251618   1.318   1.714   6.688 -0.2744  0.1517  0.8423
10068TIP3    H151619   1.275   1.728   6.604  0.3441 -0.4783  0.4072
10068TIP3    H251620   1.382   1.785   6.695 -0.4196  0.2815  0.8412
10069TIP3   OH251621   0.930   3.290  14.138 -0.3658 -0.9007  0.0289
10069TIP3    H151622   1.013   3.308  14.092  0.5017 -1.1745  1.4491
10069TIP3    H251623   0.896   3.377  14.159 -1.2319 -0.7229 -1.8311
10070TIP3   OH251624   4.233   1.721   3.164 -0.1307 -0.2190 -0.4273
10070TIP3    H151625   4.324   1.700   3.146  1.2999  1.5386  3.6244
10070TIP3    H251626   4.196   1.639   3.197  0.6991 -0.3555  0.1808
10071TIP3   OH251627   5.562   4.166   5.682  0.5358  0.4658 -0.4742
10071TIP3    H151628   5.609   4.086   5.705 -1.3812 -0.6981 -0.4129
10071TIP3    H251629   5.628   4.236   5.691  2.7637 -1.2627 -2.2924
10072TIP3   OH251630   3.038   2.408   4.556 -0.3791  0.2073  0.1109
10072TIP3    H151631   3.070   2.493   4.526 -1.4864  0.4982 -0.3271
10072TIP3    H251632   2.959   2.429   4.607 -0.5043 -0.5334  0.2346
10073TIP3   OH251633   4.317   4.971  15.773  1.3218 -0.3496  0.0581
10073TIP3    H151634   4.273   5.052  15.748  3.1847  0.1427 -1.8286
10073TIP3    H251635   4.387   4.998  15.832  1.0722 -0.7790  0.5652
10074TIP3   OH251636   1.078   6.120  15.252  0.4105 -0.4803  0.7806
10074TIP3    H151637   1.067   6.167  15.335  2.4256  0.2762  0.6892
10074TIP3    H251638   1.031   6.173  15.188 -0.5516 -0.6754  1.3155
10075TIP3   OH251639   6.009   0.327   4.959 -0.3112  0.0033  0.3912
10075TIP3    H151640   6.008   0.422   4.973  1.7758  0.3635 -1.3357
10075TIP3    H251641   5.921   0.306   4.926 -1.2782  1.0458  2.1601
10076TIP3   OH251642   1.300   4.888  12.702 -0.2009 -0.3584 -0.2863
10076TIP3    H151643   1.211   4.868  12.673 -0.3372  0.5084 -0.4948
10076TIP3    H251644   1.355   4.870  12.626 -0.4280  0.8668 -0.7560
10077TIP3   OH251645   4.115   6.194  13.055 -0.6094 -0.0065  0.2749
10077TIP3    H151646   4.063   6.247  13.115 -1.5751 -0.3718 -0.2112
10077TIP3    H251647   4.112   6.241  12.972 -0.5880 -0.2893  0.1118
10078TIP3   OH251648   2.688   3.180   4.768 -0.2522  0.5120 -0.6467
10078TIP3    H151649   2.748   3.161   4.696  1.2155  3.2235 -0.2592
10078TIP3    H251650   2.737   3.155   4.847 -0.2054  1.3136 -0.4097
10079TIP3   OH251651   0.128   3.221   5.669 -0.0534 -0.0180 -0.2687
10079TIP3    H151652   0.131   3.131   5.702 -0.5936  0.2602  0.5626
10079TIP3    H251653   0.041   3.252   5.693  0.5758  1.1473  0.5644
10080TIP3   OH251654   3.441   0.302  15.640  0.1795  0.2343 -0.2314
10080TIP3    H151655   3.347   0.294  15.624 -0.3896  0.1077  2.6386
10080TIP3    H251656   3.465   0.387  15.603 -1.0816  0.3284 -0.8947
10081TIP3   OH251657   3.698   5.386  13.045 -0.0401  0.1395 -0.2618
10081TIP3    H151658   3.733   5.385  13.134  1.7323 -0.0033 -0.9060
10081TIP3    H251659   3.606   5.410  13.055 -0.1272 -0.7993  1.6750
10082TIP3   OH251660   3.195   2.975  12.578  0.0072  0.1685  0.3544
10082TIP3    H151661   3.218   3.065  12.599 -3.4269  1.8808 -2.2140
10082TIP3    H251662   3.249   2.953  12.502  0.0343  0.4929  0.2791
10083TIP3   OH251663   3.235   0.540   2.725 -0.2591  0.5353 -0.0623
10083TIP3    H151664   3.301   0.545   2.657 -1.4713 -0.1443 -1.3505
10083TIP3    H251665   3.156   0.578   2.686 -1.3266 -0.9729  0.4945
10084TIP3   OH251666   6.209   1.075   5.862  0.1411 -0.4423 -0.3605
10084TIP3    H151667   6.116   1.075   5.840  0.1264  0.1994 -0.3086
10084TIP3    H251668   6.229   1.166   5.884  0.3308 -0.8952  1.5023
10085TIP3   OH251669   5.051   2.560  12.738  0.0649 -0.9654  0.1289
10085TIP3    H151670   5.108   2.491  12.704  1.9815 -0.1526  1.4972
10085TIP3    H251671   5.111   2.627  12.770 -1.6057 -0.5336  2.6636
10086TIP3   OH251672   5.803   4.344  12.111  0.4433  0.0242  0.2351
10086TIP3    H151673   5.783   4.427  12.069  2.2756 -0.0154 -0.8188
10086TIP3    H251674   5.843   4.368  12.194  0.5579  0.1840  0.1341
10087TIP3   OH251675   0.900   6.129  14.316  0.3322  0.2244  0.1637
10087TIP3    H151676   0.919   6.135  14.222 -0.7035 -1.0997 -0.1609
10087TIP3    H251677   0.881   6.219  14.342  3.0931  1.0333 -0.2893
10088TIP3   OH251678   3.981   1.702  11.462 -0.0551 -0.5272  0.1539
10088TIP3    H151679   4.052   1.640  11.481  1.2860  0.7606 -0.4830
10088TIP3    H251680   3.965   1.691  11.368  0.9588  0.8152 -0.2052
10089TIP3   OH251681   4.638   3.691  13.637  0.3545  0.2885  0.4306
10089TIP3    H151682   4.717   3.668  13.687 -0.6169 -0.9406  1.4383
10089TIP3    H251683   4.643   3.638  13.558  0.1044 -0.4473  0.9055
10090TIP3   OH251684   2.687   5.548   2.145  0.3510  0.1854 -0.3452
10090TIP3    H151685   2.729   5.549   2.231  0.5346  0.6370 -0.4357
10090TIP3    H251686   2.609   5.494   2.156 -0.3336  1.3131  0.4395
10091TIP3   OH251687   5.581   6.000  13.764 -0.5111 -0.0676  0.7115
10091TIP3    H151688   5.494   6.006  13.804 -0.8114 -1.8015  0.4214
10091TIP3    H251689   5.572   5.931  13.698  0.7784  0.5800 -0.1720
10092TIP3   OH251690   0.908   3.647   2.169  0.3951  0.3232  0.2834
10092TIP3    H151691   0.882   3.659   2.260  0.4807  1.7760  0.1437
10092TIP3    H251692   0.828   3.620   2.124  0.4657 -0.9226  0.8532
10093TIP3   OH251693   0.555   0.688  17.123  0.1278 -0.0118  0.5559
10093TIP3    H151694   0.516   0.633  17.056  0.4545 -0.7431  0.9567
10093TIP3    H251695   0.598   0.758  17.075 -0.1771 -0.1806  0.0358
10094TIP3   OH251696   6.557   5.510  10.648 -0.5417 -1.0369 -0.4320
10094TIP3    H151697   6.472   5.553  10.655 -0.7328 -1.5293  0.4208
10094TIP3    H251698   6.592   5.539  10.563 -1.0066  0.1595 -0.2350
10095TIP3   OH251699   1.818   4.664   4.214 -0.5890 -0.4235  0.5738
10095TIP3    H151700   1.828   4.614   4.133 -0.0260 -0.8847  0.9155
10095TIP3    H251701   1.906   4.694   4.235 -0.9861  1.0769  0.1684
10096TIP3   OH251702   4.434   5.697   0.124  0.4487  0.1856 -0.3398
10096TIP3    H151703   4.480   5.613   0.125  0.1217  0.0016  0.8747
10096TIP3    H251704   4.435   5.723   0.032 -0.2052 -1.5664 -0.8937
10097TIP3   OH251705   1.068   6.242  10.820  0.8823  0.2853  0.5666
10097TIP3    H151706   1.081   6.231  10.726 -0.2111 -0.4174  0.4796
10097TIP3    H251707   1.139   6.300  10.848  3.0211 -1.8817 -0.1299
10098TIP3   OH251708   1.162   5.755  17.150  0.0388  0.1000 -0.0343
10098TIP3    H151709   1.179   5.840  17.109 -0.3185 -0.0292 -0.4639
10098TIP3    H251710   1.070   5.738  17.132  0.2276 -0.6018 -0.3758
10099TIP3   OH251711   3.462   2.649  15.611 -0.0727  0.0785 -0.4333
10099TIP3    H151712   3.374   2.652  15.574  0.3233 -1.1151 -1.5480
10099TIP3    H251713   3.470   2.562  15.648  1.0079 -0.2391 -1.3460
10100TIP3   OH251714   2.145   6.618   2.980 -0.2541  0.2221 -0.2189
10100TIP3    H151715   2.082   6.688   2.998  0.4411  0.4315  1.5517
10100TIP3    H251716   2.108   6.541   3.023 -0.2141 -0.1303 -0.7980
10101TIP3   OH251717   6.232   4.099   6.012  0.2387 -0.7058  0.4017
10101TIP3    H151718   6.151   4.066   5.974 -0.1897 -0.4041  1.0237
10101TIP3    H251719   6.281   4.134   5.938 -0.2128 -0.8722  0.0190
10102TIP3   OH251720   1.270   2.173  11.305  0.0585  0.5141 -0.2103
10102TIP3    H151721   1.361   2.144  11.310 -0.3559 -0.8591 -0.1160
10102TIP3    H251722   1.272   2.265  11.330  1.3631  0.3919  0.1917
10103TIP3   OH251723   3.724   6.038  16.578 -0.0352  0.2134  0.6185
10103TIP3    H151724   3.792   6.080  16.524  0.3593  1.9624  2.3370
10103TIP3    H251725   3.667   6.110  16.604 -1.6728 -0.9953  0.4988
10104TIP3   OH251726   6.088   3.677  12.252 -0.2710 -0.2134  0.2644
10104TIP3    H151727   6.119   3.657  12.164 -1.7882  1.3745 -0.6751
10104TIP3    H251728   6.105   3.596  12.302  2.0743 -0.6030 -1.0219
10105TIP3   OH251729   4.785   6.705   1.460  0.2256 -0.3632 -0.0690
10105TIP3    H151730   4.879   6.716   1.468  0.0459  0.8408  0.7799
10105TIP3    H251731   4.750   6.793   1.475 -0.9182 -0.3435 -2.5093
10106TIP3   OH251732   3.381   2.690  13.251 -0.3056  0.6222 -0.0887
10106TIP3    H151733   3.335   2.694  13.167 -0.6322  2.4042  0.1274
10106TIP3    H251734   3.350   2.609  13.292  0.9924 -1.1033 -2.2847
10107TIP3   OH251735   3.652   2.745   3.217 -1.0899  0.0180 -0.0462
10107TIP3    H151736   3.631   2.656   3.189  0.0570 -0.4392  0.4574
10107TIP3    H251737   3.685   2.788   3.139  0.9030 -0.8582  0.2551
10108TIP3   OH251738   4.996   4.826   3.839 -0.6857 -0.2387  0.3040
10108TIP3    H151739   4.981   4.751   3.898 -3.1032 -0.5721 -0.6165
10108TIP3    H251740   4.967   4.902   3.890 -0.2159 -0.1730  0.4820
10109TIP3   OH251741   4.991   6.297   0.640 -0.0673 -0.4458 -0.4195
10109TIP3    H151742   5.016   6.246   0.564 -2.2933 -0.3143 -1.3164
10109TIP3    H251743   5.002   6.238   0.714 -1.9658 -2.1024 -1.3590
10110TIP3   OH251744   4.920   3.450   3.439  1.0210  0.5634 -0.3371
10110TIP3    H151745   4.867   3.518   3.481 -2.0436 -1.9311  0.2297
10110TIP3    H251746   4.973   3.498   3.375  0.1301  3.6127  1.0099
10111TIP3   OH251747   1.145   4.706  12.305  0.5545  0.5966  0.1286
10111TIP3    H151748   1.206   4.637  12.333  0.5098 -0.3499 -1.9700
10111TIP3    H251749   1.060   4.662  12.299  0.6806  0.5382 -2.0658
10112TIP3   OH251750   2.335   5.463  14.365 -0.0016  0.3696 -0.6441
10112TIP3    H151751   2.397   5.531  14.339  1.5839  0.0162  1.8264
10112TIP3    H251752   2.275   5.506  14.425  0.2885 -0.1187  0.0151
10113TIP3   OH251753   0.056   2.489   0.355  0.4497  0.5136  0.0258
10113TIP3    H151754   0.056   2.538   0.273  0.4495 -1.9463 -1.5409
10113TIP3    H251755  -0.032   2.450   0.359  1.3706 -1.7485 -0.3783
10114TIP3   OH251756   2.909   4.439  14.805  0.2615  0.0776  0.1130
10114TIP3    H151757   2.960   4.520  14.808  0.3443  0.0322 -0.0328
10114TIP3    H251758   2.893   4.417  14.897 -0.9220  0.9835  0.1445
10115TIP3   OH251759   4.006   3.470   0.721 -0.0300 -0.3660 -0.2496
10115TIP3    H151760   4.036   3.418   0.795 -0.8092  2.1117  1.9387
10115TIP3    H251761   4.074   3.459   0.655  1.6763 -1.1582  1.5334
10116TIP3   OH251762   5.167   2.300  15.423  0.0406  0.0116 -0.0166
10116TIP3    H151763   5.156   2.294  15.328  0.2170 -0.3543 -0.0158
10116TIP3    H251764   5.195   2.390  15.438  0.8795 -0.1713 -0.4005
10117TIP3   OH251765   4.051   4.100  14.540  0.3497 -0.1923  0.2140
10117TIP3    H151766   4.088   4.014  14.556 -0.9064 -0.6209  0.9759
10117TIP3    H251767   4.122   4.161  14.559  0.8560 -1.0060  1.0050
10118TIP3   OH251768   2.995   4.062   0.996  0.0589  0.0903  0.2437
10118TIP3    H151769   2.922   4.117   1.025  0.0124 -0.2091  0.7135
10118TIP3    H251770   3.049   4.050   1.074  0.5937  0.2725 -0.0904
10119TIP3   OH251771   5.900   5.537   1.393  0.2831  0.4605  0.3035
10119TIP3    H151772   5.843   5.566   1.321 -0.5009  0.4822  0.9115
10119TIP3    H251773   5.889   5.442   1.395 -2.2786  0.6625  2.3961
10120TIP3   OH251774   3.250   5.408  12.009 -0.6022  0.4040  0.0611
10120TIP3    H151775   3.172   5.357  12.032 -0.6479  0.1378 -0.6305
10120TIP3    H251776   3.240   5.490  12.056 -1.3546  0.4097 -0.0884
10121TIP3   OH251777   3.768   2.674   5.134  0.3782 -0.1036 -0.3026
10121TIP3    H151778   3.786   2.668   5.228  0.2840  0.2005 -0.2644
10121TIP3    H251779   3.673   2.671   5.127  0.3153  1.3165 -0.2741
10122TIP3   OH251780   2.948   5.948  12.395  0.2396  0.5994  1.0312
10122TIP3    H151781   3.024   5.966  12.451  1.2420  0.0672 -0.1072
10122TIP3    H251782   2.947   6.021  12.333  0.6227 -0.0523  0.2383
10123TIP3   OH251783   5.850   3.225  16.251  0.4086 -0.4271  0.1784
10123TIP3    H151784   5.892   3.144  16.222  2.1185  0.3994  0.2011
10123TIP3    H251785   5.923   3.281  16.279 -0.8530  0.4255  1.9675
10124TIP3   OH251786   1.679   2.475   2.042  0.0619  0.1632 -0.1672
10124TIP3    H151787   1.655   2.412   1.974  0.8516  0.5223 -0.7928
10124TIP3    H251788   1.694   2.557   1.995  0.8605  0.3627  0.4097
10125TIP3   OH251789   0.709   4.095   2.868 -0.2336 -0.1634  0.7614
10125TIP3    H151790   0.736   4.022   2.813 -1.8111 -0.6011  0.5137
10125TIP3    H251791   0.662   4.054   2.941 -1.0690  0.5873  0.6622
10126TIP3   OH251792   3.311   6.405   1.990 -0.5649 -0.2968  0.0365
10126TIP3    H151793   3.402   6.379   2.004 -0.7905 -0.2190  1.9069
10126TIP3    H251794   3.290   6.373   1.902  1.8463  1.4158 -1.3043
10127TIP3   OH251795   5.063   4.292  12.809 -0.2254 -0.7506 -0.1958
10127TIP3    H151796   4.978   4.320  12.842 -0.1458  1.2581 -1.5060
10127TIP3    H251797   5.112   4.374  12.798  1.0793 -1.6722 -1.5576
10128TIP3   OH251798   1.686   2.719   3.394  0.1492 -0.3358  0.3269
10128TIP3    H151799   1.683   2.753   3.483 -2.5963  1.8210 -0.4411
10128TIP3    H251800   1.638   2.636   3.398  1.2281 -0.9461  1.0567
10129TIP3   OH251801   4.267   3.359  13.553 -0.0076 -0.4412 -0.0072
10129TIP3    H151802   4.275   3.304  13.630 -0.1144  0.2595  0.5111
10129TIP3    H251803   4.283   3.448  13.585 -0.0899 -0.1388 -0.7814
10130TIP3   OH251804   0.184   4.411  12.407  0.0756  0.2130 -0.3289
10130TIP3    H151805   0.245   4.386  12.338 -0.6105  2.3555 -1.8185
10130TIP3    H251806   0.112   4.349  12.401  1.0576 -0.9960  0.0074
10131TIP3   OH251807   2.754   4.044   1.319 -0.8019 -0.2525 -0.3833
10131TIP3    H151808   2.696   4.033   1.393  0.7105 -1.9585  0.6198
10131TIP3    H251809   2.724   3.980   1.254 -0.5346 -0.5786 -0.1865
10132TIP3   OH251810   1.569   1.538  16.250 -0.4584 -0.1854 -0.2229
10132TIP3    H151811   1.568   1.504  16.161  2.1088 -0.1286 -0.3245
10132TIP3    H251812   1.541   1.629  16.242 -0.2902 -0.1968 -0.9400
10133TIP3   OH251813   3.391   5.922   2.752  0.0779  0.0036  0.5401
10133TIP3    H151814   3.338   5.994   2.718  0.3036  0.6574  1.5238
10133TIP3    H251815   3.480   5.940   2.720 -0.1692 -0.7685 -0.6143
10134TIP3   OH251816   1.373   0.697  11.332  0.5901  0.3057  0.5797
10134TIP3    H151817   1.329   0.774  11.296  0.8208 -0.3284 -1.1402
10134TIP3    H251818   1.306   0.629  11.333  1.3401 -0.5846 -1.7899
10135TIP3   OH251819   0.303   1.962   1.219 -0.0723 -0.6479  0.1126
10135TIP3    H151820   0.253   2.003   1.148  1.2263  0.9614  0.0586
10135TIP3    H251821   0.394   1.967   1.189  0.1868 -4.0079 -0.0593
10136TIP3   OH251822   5.822   1.997   0.718  0.7964 -0.6501  0.3688
10136TIP3    H151823   5.789   2.025   0.803  0.3769  1.3885 -0.3846
10136TIP3    H251824   5.752   2.020   0.656  1.7356 -0.5748 -0.6996
10137TIP3   OH251825   4.813   2.777  14.167  0.8521  0.1267  0.1371
10137TIP3    H151826   4.856   2.820  14.093  2.0640 -2.5121 -0.8294
10137TIP3    H251827   4.882   2.765  14.232  0.2135  0.7894  0.9598
10138TIP3   OH251828   4.719   2.903  11.988 -0.6635 -0.0359 -1.0812
10138TIP3    H151829   4.783   2.947  11.932  0.8662 -1.3578 -0.4334
10138TIP3    H251830   4.722   2.952  12.071 -0.1611 -0.3558 -0.9067
10139TIP3   OH251831   1.335   4.193   1.890 -0.0136 -0.0389  0.1114
10139TIP3    H151832   1.274   4.141   1.837 -0.1425  1.3795 -1.2132
10139TIP3    H251833   1.279   4.256   1.935  0.3719  0.8481 -0.6101
10140TIP3   OH251834   2.462   0.644  11.385  0.2333  0.1248 -0.6019
10140TIP3    H151835   2.546   0.648  11.432 -0.2230 -0.0039  0.2489
10140TIP3    H251836   2.459   0.556  11.347  0.2172 -0.0881 -0.1149
10141TIP3   OH251837   1.425   0.766  15.458  0.3296  0.5479 -0.3005
10141TIP3    H151838   1.420   0.861  15.453 -1.1711  0.4567 -1.2851
10141TIP3    H251839   1.345   0.736  15.414  0.6444 -1.1591  0.2308
10142TIP3   OH251840   5.916   5.226  11.179  0.2953  1.0263  0.1504
10142TIP3    H151841   5.839   5.230  11.236 -0.2655 -0.4710 -0.4376
10142TIP3    H251842   5.888   5.266  11.097 -0.4316 -0.8923 -0.6073
10143TIP3   OH251843   6.226   0.902  12.681  0.0243 -0.3552  0.2961
10143TIP3    H151844   6.299   0.963  12.679 -0.2464  0.0016 -1.9373
10143TIP3    H251845   6.264   0.818  12.705  0.7156  0.2776  1.5260
10144TIP3   OH251846   1.147   4.176  12.298 -0.3149 -0.2301 -0.2338
10144TIP3    H151847   1.116   4.093  12.335  0.3313  0.0998  1.1325
10144TIP3    H251848   1.240   4.179  12.322 -0.3224  0.8594 -0.3060
10145TIP3   OH251849   6.642   5.388   3.062 -0.2318  0.3479 -0.4122
10145TIP3    H151850   6.628   5.320   3.127 -0.7213  0.3796 -0.4803
10145TIP3    H251851   6.709   5.445   3.100  0.5875 -0.4799 -0.5998
10146TIP3   OH251852   2.223   3.550   3.998  0.4851  0.2459 -0.2414
10146TIP3    H151853   2.291   3.586   3.942  1.0796 -1.6861 -0.8438
10146TIP3    H251854   2.271   3.509   4.070  0.0426 -1.6676 -0.9904
10147TIP3   OH251855   4.092   6.399  12.855  0.1905  0.0661  0.3791
10147TIP3    H151856   4.073   6.408  12.762  2.4380 -0.9552 -0.2510
10147TIP3    H251857   4.089   6.488  12.889  0.4274  0.5964 -0.9320
10148TIP3   OH251858   3.301   0.007  13.757  0.8527  0.0416 -0.3206
10148TIP3    H151859   3.307   0.007  13.853 -2.0126  1.2532 -0.0289
10148TIP3    H251860   3.338   0.091  13.731 -1.0753  1.0777  0.0797
10149TIP3   OH251861   5.983   3.825  12.987 -0.1213  1.2213  0.2542
10149TIP3    H151862   6.050   3.888  13.017  0.0315  1.7662 -1.1545
10149TIP3    H251863   5.964   3.852  12.897  0.6622 -1.3568 -0.7554
10150TIP3   OH251864   0.211   3.231  12.378 -0.0097 -0.1948 -0.5012
10150TIP3    H151865   0.197   3.249  12.471 -0.6649 -0.0792 -0.6223
10150TIP3    H251866   0.288   3.284  12.355 -0.1851  0.2165 -0.1590
10151TIP3   OH251867   6.397   1.153  14.305  0.7724  0.2306  0.0224
10151TIP3    H151868   6.463   1.218  14.330  0.1699  0.8320  0.0610
10151TIP3    H251869   6.352   1.133  14.387  0.3909  0.3964 -0.1486
10152TIP3   OH251870   4.861   2.358   5.673  0.1639  0.0440  0.2700
10152TIP3    H151871   4.888   2.428   5.734 -0.7120  1.3970 -0.8297
10152TIP3    H251872   4.835   2.405   5.593 -0.9855 -1.5180 -0.3169
10153TIP3   OH251873   0.081   5.195   1.722  0.5914 -0.2432 -0.3952
10153TIP3    H151874   0.058   5.155   1.639  0.6923 -0.1341 -0.4771
10153TIP3    H251875   0.088   5.289   1.703  0.9165 -0.2514 -0.3346
10154TIP3   OH251876   3.086   3.276  15.227 -0.3723 -0.2654 -0.2074
10154TIP3    H151877   3.000   3.236  15.244 -0.0346 -0.9196  0.0162
10154TIP3    H251878   3.135   3.262  15.308  0.7991 -2.1897 -1.1758
10155TIP3   OH251879   0.179   1.768   1.359  0.1992  0.2437 -0.0920
10155TIP3    H151880   0.245   1.822   1.317  0.1498 -0.1735 -0.7371
10155TIP3    H251881   0.095   1.804   1.328  0.1667 -0.1900 -0.5296
10156TIP3   OH251882   3.054   5.686  15.445  0.0285  0.4704 -0.5196
10156TIP3    H151883   2.977   5.741  15.431 -0.7618 -0.8504 -1.5391
10156TIP3    H251884   3.055   5.669  15.539 -2.4075 -1.4967 -0.7511
10157TIP3   OH251885   4.371   3.149   0.344 -0.1023 -0.0445  0.0982
10157TIP3    H151886   4.446   3.209   0.350  0.3963 -0.7713  2.2765
10157TIP3    H251887   4.310   3.193   0.285  0.3127  2.5541  1.4370
10158TIP3   OH251888   4.974   1.660   4.772  0.0493  0.1315  0.1376
10158TIP3    H151889   5.005   1.604   4.700 -2.1923 -0.6069 -0.3238
10158TIP3    H251890   4.889   1.624   4.796 -0.8699  2.5121  0.7724
10159TIP3   OH251891   5.929   1.256   0.430  0.2565 -0.0338  0.3861
10159TIP3    H151892   6.020   1.229   0.419 -0.2772 -1.5169 -0.8526
10159TIP3    H251893   5.886   1.227   0.349 -1.0591  1.8254  0.3521
10160TIP3   OH251894   0.556   0.922   5.499  0.1408  0.6791 -0.3017
10160TIP3    H151895   0.581   0.843   5.546 -1.9876  0.5085  0.6666
10160TIP3    H251896   0.637   0.972   5.491  1.2910 -1.0528  0.1219
10161TIP3   OH251897   3.228   4.848  15.813 -0.2208 -0.1030  0.0221
10161TIP3    H151898   3.299   4.799  15.771  0.5034  1.3614 -0.5079
10161TIP3    H251899   3.266   4.881  15.895 -0.3298  0.5672 -0.1952
10162TIP3   OH251900   2.911   5.916  14.037  0.1461  0.1388  0.1878
10162TIP3    H151901   2.942   6.005  14.054 -0.5017  0.1826  1.2268
10162TIP3    H251902   2.820   5.917  14.065  0.3096 -1.0213  0.8093
10163TIP3   OH251903   1.522   0.863   4.807  0.1749 -0.0243 -0.3308
10163TIP3    H151904   1.515   0.811   4.887  0.3825  0.1607 -0.1907
10163TIP3    H251905   1.444   0.919   4.806  0.8753  1.0077  0.4858
10164TIP3   OH251906   2.276   1.416   3.321  0.5531 -0.5005  0.0738
10164TIP3    H151907   2.204   1.443   3.378  0.2474 -0.0658 -0.5050
10164TIP3    H251908   2.339   1.374   3.379 -0.2733 -1.0924  0.5501
10165TIP3   OH251909   3.891   3.102  15.878  0.3303  0.1903 -0.3867
10165TIP3    H151910   3.847   3.082  15.961  1.1047 -2.6720 -0.5370
10165TIP3    H251911   3.847   3.179  15.845 -0.5434  0.9590  2.2939
10166TIP3   OH251912   2.771   5.235  14.482 -0.0839  0.1782  0.4811
10166TIP3    H151913   2.740   5.318  14.447 -0.0270  0.1005  0.2430
10166TIP3    H251914   2.861   5.228  14.451 -0.6713 -0.8741 -1.1480
10167TIP3   OH251915   1.889   1.106  11.958 -0.3668  0.4570 -0.2806
10167TIP3    H151916   1.866   1.029  12.011 -0.8988  0.3318 -0.6872
10167TIP3    H251917   1.831   1.100  11.882 -1.2733  1.9135  0.2595
10168TIP3   OH251918   5.375   5.598  17.094  0.0458  0.7386  0.5164
10168TIP3    H151919   5.361   5.676  17.040  0.2875  0.3385 -0.1423
10168TIP3    H251920   5.359   5.525  17.034  1.8328  0.2654  0.5616
10169TIP3   OH251921   1.406   3.562  16.136  0.0483 -0.2927  0.1739
10169TIP3    H151922   1.496   3.537  16.114 -0.3780 -0.8451 -1.0708
10169TIP3    H251923   1.362   3.479  16.154  0.1877  0.0922  2.5922
10170TIP3   OH251924   5.899   5.605   2.772 -0.2071  0.3656  0.2117
10170TIP3    H151925   5.936   5.518   2.759  1.5004  1.1855 -0.8102
10170TIP3    H251926   5.888   5.640   2.683  0.4821  1.6927  0.6162
10171TIP3   OH251927   5.447   3.602   0.796 -0.2083  0.2994 -0.3009
10171TIP3    H151928   5.526   3.645   0.828 -0.7610  2.1365 -1.2912
10171TIP3    H251929   5.376   3.647   0.840 -0.7656 -1.8850  1.2280
10172TIP3   OH251930   6.748   6.442  13.037 -0.1251 -0.1294 -0.6148
10172TIP3    H151931   6.809   6.371  13.019 -0.1158  0.1314 -1.6699
10172TIP3    H251932   6.723   6.475  12.951 -2.9646 -1.2295 -0.3390
10173TIP3   OH251933   5.063   0.242   4.924  0.5989  0.6065  0.3316
10173TIP3    H151934   4.992   0.299   4.894  0.8894  0.2261 -1.1165
10173TIP3    H251935   5.019   0.178   4.980 -0.1004  0.7900  0.0098
10174TIP3   OH251936   4.002   2.753  14.860  0.5334  0.0515  0.1066
10174TIP3    H151937   3.998   2.680  14.798  1.8148  0.5802 -0.6406
10174TIP3    H251938   3.933   2.734  14.923  0.7143 -1.7169 -0.1640
10175TIP3   OH251939   1.783   2.887  10.611 -0.1763  0.0202  0.5942
10175TIP3    H151940   1.690   2.864  10.613  0.1233 -1.2653  2.6180
10175TIP3    H251941   1.823   2.821  10.554 -0.2806 -0.4103  1.0165
10176TIP3   OH251942   0.749   0.700  12.392 -0.5843  1.0597 -0.5017
10176TIP3    H151943   0.698   0.781  12.395 -0.0680  1.3611  0.3966
10176TIP3    H251944   0.685   0.631  12.410 -1.7895  0.8242 -4.6343
10177TIP3   OH251945   6.005   0.362  14.996 -0.1085 -0.4710  0.3669
10177TIP3    H151946   5.989   0.285  14.942 -2.9348  0.3846 -0.2037
10177TIP3    H251947   5.992   0.331  15.086 -0.7230 -0.7895  0.1756
10178TIP3   OH251948   5.692   0.564  14.271 -0.2507 -0.2868  0.4184
10178TIP3    H151949   5.650   0.607  14.346 -1.1672  0.2472 -0.3833
10178TIP3    H251950   5.619   0.538  14.215  0.4443  2.9600 -2.2963
10179TIP3   OH251951   2.896   1.957   4.563 -0.4080  0.3985 -0.1873
10179TIP3    H151952   2.948   2.010   4.502  0.3766  0.3440  0.4175
10179TIP3    H251953   2.808   1.995   4.558  0.1230  1.7478  0.1896
10180TIP3   OH251954   4.588   5.851   6.105  0.3249  0.1359  0.1349
10180TIP3    H151955   4.581   5.843   6.200  0.5975 -1.0320  0.0723
10180TIP3    H251956   4.682   5.854   6.088  0.2975 -0.4442 -0.1439
10181TIP3   OH251957   6.240   0.729   5.803  0.5428  0.3239 -0.1363
10181TIP3    H151958   6.172   0.744   5.870  1.7692  0.4382  1.1330
10181TIP3    H251959   6.262   0.636   5.812  1.3460  0.5440  0.2531
10182TIP3   OH251960   6.400   2.328   3.084 -0.2156  0.5945 -0.3054
10182TIP3    H151961   6.307   2.346   3.070 -0.1529 -1.0388 -3.9117
10182TIP3    H251962   6.408   2.233   3.074  1.8406  0.6908 -0.0064
10183TIP3   OH251963   2.360   5.839  13.853 -0.1504 -0.2820 -0.2997
10183TIP3    H151964   2.414   5.879  13.921  0.1444 -0.3343 -0.4986
10183TIP3    H251965   2.385   5.747  13.854  0.5185 -0.1218 -1.0807
10184TIP3   OH251966   5.411   1.012   2.115  0.0561  0.4476  0.4654
10184TIP3    H151967   5.498   0.990   2.081 -0.2944  0.6417 -0.5719
10184TIP3    H251968   5.426   1.087   2.172  0.5288  0.6496  0.0806
10185TIP3   OH251969   2.360   2.508   3.117 -0.7736 -0.1098 -0.3747
10185TIP3    H151970   2.372   2.570   3.046 -2.2726  0.3331 -0.2626
10185TIP3    H251971   2.424   2.535   3.183 -0.1373  0.1466 -1.0797
10186TIP3   OH251972   3.835   5.597   2.935 -0.5583 -0.1033 -0.2799
10186TIP3    H151973   3.897   5.643   2.879 -0.4463 -0.4229 -0.4164
10186TIP3    H251974   3.870   5.606   3.023 -1.2533  1.2800 -0.1117
10187TIP3   OH251975   3.424   6.018  11.866  0.1223 -0.2746 -0.3457
10187TIP3    H151976   3.489   6.034  11.935  0.0059  0.3722 -0.3758
10187TIP3    H251977   3.470   6.036  11.785 -0.3853  1.3396 -0.3215
10188TIP3   OH251978   1.730   4.159  12.293  0.2087 -0.7601  0.0489
10188TIP3    H151979   1.724   4.216  12.370 -0.9750  1.6425 -1.6748
10188TIP3    H251980   1.761   4.217  12.223 -2.7647 -1.7067 -2.2458
10189TIP3   OH251981   5.862   5.641  11.611 -0.1620  0.2181  0.0381
10189TIP3    H151982   5.808   5.588  11.552  1.2083  1.0514 -2.0922
10189TIP3    H251983   5.934   5.582  11.635 -1.5799 -0.6900  2.3836
10190TIP3   OH251984   2.578   5.150   3.649 -0.2220 -0.1600  0.6179
10190TIP3    H151985   2.642   5.080   3.637 -0.5925 -0.7246  1.7981
10190TIP3    H251986   2.528   5.150   3.567  0.8722 -0.1134 -0.0707
10191TIP3   OH251987   4.434   4.371   2.558  0.0296  0.0332 -1.5604
10191TIP3    H151988   4.465   4.335   2.641  0.2510  2.9115 -0.2657
10191TIP3    H251989   4.486   4.450   2.545 -1.4911  0.8273 -3.3006
10192TIP3   OH251990   1.915   3.296   0.854  0.2289  0.1235  0.1316
10192TIP3    H151991   1.996   3.246   0.845 -0.5941 -1.2252 -0.1119
10192TIP3    H251992   1.878   3.266   0.937  0.2430  1.1388  0.5094
10193TIP3   OH251993   0.350   2.347  11.611 -0.0719  0.2162  0.5174
10193TIP3    H151994   0.347   2.326  11.704  1.1259  0.2321  0.5790
10193TIP3    H251995   0.437   2.318  11.583 -1.0359 -1.3481 -0.9953
10194TIP3   OH251996   6.715   3.700   1.758 -0.6340  0.2959 -0.4129
10194TIP3    H151997   6.766   3.760   1.704 -1.4436 -0.3729 -1.9839
10194TIP3    H251998   6.626   3.707   1.724 -0.9029 -1.1675 -0.0666
10195TIP3   OH251999   1.440   0.154  12.353  0.0414  0.3372  0.1976
10195TIP3    H152000   1.405   0.066  12.357  1.1657 -0.1124  0.6433
10195TIP3    H252001   1.492   0.156  12.272  0.0370  0.5798  0.1987
10196TIP3   OH252002   4.281   2.638   4.359 -0.3199 -0.4085 -0.1181
10196TIP3    H152003   4.377   2.637   4.360 -0.2544 -0.5296 -2.2182
10196TIP3    H252004   4.258   2.686   4.280 -2.0299  0.5119  0.8836
10197TIP3   OH252005   4.997   3.622   5.542  0.0654  0.5536 -0.5420
10197TIP3    H152006   4.992   3.589   5.452 -1.0729 -1.9089  0.3410
10197TIP3    H252007   5.088   3.650   5.553  0.4132  0.1856 -2.2119
10198TIP3   OH252008   4.749   2.001  16.112  0.2310 -0.2007 -0.9187
10198TIP3    H152009   4.666   2.027  16.151  0.6201 -1.9490  1.2178
10198TIP3    H252010   4.728   1.923  16.061  0.3680  0.0430 -1.3561
10199TIP3   OH252011   6.544   3.714  16.137 -0.1716  0.1187 -1.0176
10199TIP3    H152012   6.510   3.780  16.077  0.4718  0.8682 -0.5796
10199TIP3    H252013   6.629   3.690  16.100 -1.1364 -1.7955 -2.1500
10200TIP3   OH252014   5.416   6.543  15.961 -0.4636  0.0282  0.2722
10200TIP3    H152015   5.351   6.613  15.957 -1.3000 -0.7825 -0.7092
10200TIP3    H252016   5.402   6.502  16.046 -0.9370  0.1289  0.2426
10201TIP3   OH252017   4.613   5.270  12.151  0.0068  0.2588 -0.0274
10201TIP3    H152018   4.603   5.309  12.064  1.2288  0.1846 -0.2170
10201TIP3    H252019   4.679   5.323  12.194 -0.7359  0.4132  0.9489
10202TIP3   OH252020   4.192   6.085   5.928 -0.9125  0.0653  0.3941
10202TIP3    H152021   4.170   6.132   6.009 -0.4510 -0.6992  0.9738
10202TIP3    H252022   4.148   6.135   5.859  1.1014  2.5099  0.7140
10203TIP3   OH252023   0.082   0.236   3.964  0.0344  0.1320  0.6164
10203TIP3    H152024   0.054   0.202   3.879  2.2303  0.0368 -0.1345
10203TIP3    H252025   0.039   0.178   4.027 -0.8150 -0.4558 -0.4508
10204TIP3   OH252026   3.826   4.726   1.335 -0.8294 -0.0199  0.2459
10204TIP3    H152027   3.812   4.663   1.406 -1.7739  0.2755  0.3359
10204TIP3    H252028   3.834   4.811   1.379  0.7486 -0.0895  0.1499
10205TIP3   OH252029   4.239   5.917  15.767  0.0347 -0.0615  0.3114
10205TIP3    H152030   4.198   5.835  15.793 -0.1763 -0.0167  0.1223
10205TIP3    H252031   4.330   5.894  15.747  0.1586 -0.1278  0.9248
10206TIP3   OH252032   0.484   6.332  12.211 -0.3544 -0.2801 -0.1484
10206TIP3    H152033   0.568   6.357  12.173  0.7188 -1.6648  1.1677
10206TIP3    H252034   0.422   6.334  12.138 -0.0720  4.3153 -0.5332
10207TIP3   OH252035   4.411   0.948  15.844  0.7999 -0.3993  0.0200
10207TIP3    H152036   4.378   0.893  15.773  1.4465 -0.4978 -0.2143
10207TIP3    H252037   4.354   1.025  15.843 -0.3038 -1.1834  0.5416
10208TIP3   OH252038   6.277   4.382   3.508 -0.6334  0.6001 -0.2729
10208TIP3    H152039   6.372   4.366   3.508 -0.4803  1.4446 -0.7567
10208TIP3    H252040   6.238   4.297   3.489 -0.0229 -0.0020  1.0658
10209TIP3   OH252041   1.508   1.425  14.584  0.0168 -0.1119  0.2185
10209TIP3    H152042   1.480   1.353  14.529 -1.3592  1.7338 -1.6398
10209TIP3    H252043   1.443   1.430  14.654 -0.4171 -0.0990 -0.1859
10210TIP3   OH252044   0.972   4.392  13.019  0.1357  0.0443  0.3399
10210TIP3    H152045   0.991   4.329  12.950 -0.2609  0.2026  0.0813
10210TIP3    H252046   0.876   4.397  13.021  0.1677  1.1479 -0.1183
10211TIP3   OH252047   4.033   4.223   3.964 -0.1863  0.2781  0.4853
10211TIP3    H152048   3.950   4.239   3.918 -0.2098 -1.1623 -0.0512
10211TIP3    H252049   4.017   4.143   4.014  0.8373  0.0456  0.4677
10212TIP3   OH252050   4.588   1.449  12.896 -0.4148 -0.5282  0.2229
10212TIP3    H152051   4.559   1.530  12.939  1.4384  0.3148  0.0069
10212TIP3    H252052   4.683   1.447  12.910  0.6572  0.5577 -4.8047
10213TIP3   OH252053   5.244   4.587  16.615 -0.0947 -0.3272  0.2039
10213TIP3    H152054   5.181   4.537  16.667  0.6915 -1.0276  0.5071
10213TIP3    H252055   5.279   4.524  16.552 -1.1199  0.5354 -1.2993
10214TIP3   OH252056   5.256   1.900  13.427 -1.0399  0.2440  0.6674
10214TIP3    H152057   5.172   1.870  13.392 -0.6907  0.1250 -0.0844
10214TIP3    H252058   5.273   1.983  13.382 -0.3788 -0.1193  0.2313
10215TIP3   OH252059   6.350   6.037  16.905 -0.3415  0.1487 -0.0188
10215TIP3    H152060   6.297   6.093  16.961 -0.6667  1.8725 -1.9399
10215TIP3    H252061   6.315   5.949  16.920 -0.8901  0.6248  1.8740
10216TIP3   OH252062   5.282   6.392   4.485 -0.3799 -0.0451  0.0602
10216TIP3    H152063   5.207   6.448   4.510 -0.1798 -0.1291  0.8670
10216TIP3    H252064   5.263   6.307   4.524  0.6130  0.2045  1.1352
10217TIP3   OH252065   1.075   2.956   5.640  0.1133 -0.0493  0.1772
10217TIP3    H152066   1.008   3.025   5.644 -0.5525 -0.6179 -0.7045
10217TIP3    H252067   1.123   2.964   5.723  0.9574  2.3545 -0.4656
10218TIP3   OH252068   2.839   1.850   3.436  0.4710 -0.4193 -0.2717
10218TIP3    H152069   2.820   1.872   3.345  0.4933 -0.2098 -0.2256
10218TIP3    H252070   2.787   1.771   3.453  0.2570 -0.3046 -0.3857
10219TIP3   OH252071   6.439   2.459  16.024  0.2218  0.0024 -0.4310
10219TIP3    H152072   6.357   2.476  15.977 -1.3348  0.3002  2.2315
10219TIP3    H252073   6.474   2.545  16.044  0.2623 -0.1064 -0.0264
10220TIP3   OH252074   0.839   2.785  13.381  0.2646  0.0421 -0.3586
10220TIP3    H152075   0.845   2.843  13.457  1.7920  0.7426 -0.9850
10220TIP3    H252076   0.765   2.818  13.331 -0.9302 -0.5789  0.9171
10221TIP3   OH252077   1.462   3.240  15.860  0.0159  0.4808 -0.6420
10221TIP3    H152078   1.552   3.271  15.855  0.4741 -0.7602 -0.5317
10221TIP3    H252079   1.422   3.270  15.778  0.4956  1.1174 -0.6499
10222TIP3   OH252080   6.072   5.001   2.347  0.4928  0.7196 -0.0371
10222TIP3    H152081   6.027   4.918   2.330  0.3534  0.9761 -0.9651
10222TIP3    H252082   6.029   5.035   2.426 -1.6436  1.3972 -1.3880
10223TIP3   OH252083   3.944   2.759  12.926 -0.4645  0.1132 -0.0373
10223TIP3    H152084   3.952   2.666  12.947  3.5646  0.0117 -1.2493
10223TIP3    H252085   3.882   2.761  12.853 -0.8778 -1.5618  0.2125
10224TIP3   OH252086   5.550   3.483  13.011  0.2466 -0.4077  0.1650
10224TIP3    H152087   5.553   3.449  12.922 -0.8360 -0.4002  0.1047
10224TIP3    H252088   5.602   3.421  13.062  2.5275  0.6380 -0.7555
10225TIP3   OH252089   5.734   1.006  14.204 -0.0393 -0.1643 -0.2597
10225TIP3    H152090   5.764   0.980  14.117 -1.0208 -0.3741 -0.5472
10225TIP3    H252091   5.740   1.102  14.203 -0.8896 -0.0997 -0.8940
10226TIP3   OH252092   6.294   0.683  16.663 -0.0022  0.1808 -0.0608
10226TIP3    H152093   6.200   0.700  16.657  0.0947  0.8520  0.2138
10226TIP3    H252094   6.301   0.588  16.673 -0.4891 -0.5599 -4.4606
10227TIP3   OH252095   5.022   3.330   1.712 -0.2850  0.0253 -0.3036
10227TIP3    H152096   5.100   3.278   1.732  0.2874  0.5886 -0.9694
10227TIP3    H252097   4.969   3.273   1.657  0.6754  0.3630 -1.6391
10228TIP3   OH252098   1.765   6.341   2.808 -0.1886  0.3562  0.2723
10228TIP3    H152099   1.738   6.354   2.899 -2.5114 -0.3363 -0.2517
10228TIP3    H252100   1.683   6.341   2.758  0.7777 -1.8187 -1.5001
10229TIP3   OH252101   2.313   0.376  14.427 -0.5513  0.6305  0.3460
10229TIP3    H152102   2.280   0.327  14.503  0.2040 -1.0596 -0.3721
10229TIP3    H252103   2.390   0.422  14.460  0.3595 -0.8757  0.4025
10230TIP3   OH252104   5.639   0.502   3.759  0.3072  0.3373 -0.3370
10230TIP3    H152105   5.666   0.495   3.668  0.2869  0.7456 -0.3747
10230TIP3    H252106   5.549   0.534   3.755  0.2510  0.1996 -0.1787
10231TIP3   OH252107   0.352   6.704   4.299  0.1639  0.0473 -0.1270
10231TIP3    H152108   0.295   6.683   4.225  1.0822 -0.0810 -0.8096
10231TIP3    H252109   0.358   6.623   4.349 -0.1644  0.0309 -0.1148
10232TIP3   OH252110   4.537   4.503  16.343  0.0895 -0.0559 -0.3616
10232TIP3    H152111   4.540   4.409  16.364 -0.1747  0.0624  0.2128
10232TIP3    H252112   4.499   4.544  16.421 -0.3038  0.4691 -0.8237
10233TIP3   OH252113   0.161   3.016   3.543 -0.0180  0.1060  0.5371
10233TIP3    H152114   0.166   3.067   3.623  0.6505 -0.2715  0.7424
10233TIP3    H252115   0.123   2.932   3.570  2.5433 -0.9892  0.9713
10234TIP3   OH252116   4.751   5.044  12.295  0.4280  0.0422 -0.0638
10234TIP3    H152117   4.700   5.112  12.251  2.0305  0.7776 -0.8606
10234TIP3    H252118   4.707   5.032  12.379  0.4137  2.4993  0.3598
10235TIP3   OH252119   4.332   0.153   6.027  0.4119 -0.2176 -0.0076
10235TIP3    H152120   4.335   0.234   5.976  0.1831 -0.5957 -0.6337
10235TIP3    H252121   4.424   0.132   6.045  0.4910 -0.0686 -0.2370
10236TIP3   OH252122   5.284   5.850  16.134 -0.4358 -0.4430 -0.2996
10236TIP3    H152123   5.332   5.818  16.058  0.0656  1.5024 -0.8732
10236TIP3    H252124   5.263   5.941  16.112  0.1249  0.3426  2.0725
10237TIP3   OH252125   3.394   4.237  12.581  0.2398  0.9055  0.5660
10237TIP3    H152126   3.398   4.275  12.493 -1.7664 -1.3611 -0.6141
10237TIP3    H252127   3.347   4.155  12.570  0.0098  0.4689  3.7833
10238TIP3   OH252128   5.626   4.352   2.921 -0.1669  0.0778 -0.0576
10238TIP3    H152129   5.683   4.344   2.845 -0.4315  0.2861 -0.2799
10238TIP3    H252130   5.605   4.446   2.926 -3.5134 -0.3966 -2.2238
10239TIP3   OH252131   5.665   2.740   2.641  0.1452 -0.4072 -0.6218
10239TIP3    H152132   5.577   2.734   2.603  0.7245 -1.1100 -1.9376
10239TIP3    H252133   5.708   2.658   2.615  1.1599 -0.1169  0.0755
10240TIP3   OH252134   2.004   3.242  16.157 -0.1306  0.1258 -0.1712
10240TIP3    H152135   2.038   3.163  16.114 -1.0305  0.1468 -0.9417
10240TIP3    H252136   1.946   3.282  16.092 -1.5306  0.1672  1.0555
10241TIP3   OH252137   4.766   5.119  11.659 -1.4445  0.1847 -0.2703
10241TIP3    H152138   4.833   5.152  11.599 -2.2668  0.5034 -1.0235
10241TIP3    H252139   4.812   5.111  11.743  0.0206 -1.3089 -1.1524
10242TIP3   OH252140   1.129   1.972   6.642 -0.2152  0.4942 -0.2298
10242TIP3    H152141   1.159   1.982   6.732  1.9047  2.5226 -1.0787
10242TIP3    H252142   1.177   1.896   6.609  0.9087  1.2256 -0.3339
10243TIP3   OH252143   3.306   6.175  16.855 -0.0137 -0.0603 -0.2981
10243TIP3    H152144   3.390   6.193  16.813 -0.5297 -0.9080 -1.7698
10243TIP3    H252145   3.317   6.087  16.892 -0.0314  0.1157  0.1326
10244TIP3   OH252146   3.618   6.698  12.062 -0.3940  0.1518  0.5321
10244TIP3    H152147   3.701   6.674  12.022 -1.4313  0.1906 -1.7551
10244TIP3    H252148   3.630   6.788  12.092  0.1433  0.4450 -0.5293
10245TIP3   OH252149   3.390   0.531  13.065  0.4600  0.0306  0.2701
10245TIP3    H152150   3.400   0.580  12.984  2.0704 -0.7272 -0.0446
10245TIP3    H252151   3.428   0.587  13.132  3.3253 -1.0737 -0.2520
10246TIP3   OH252152   1.480   0.932  13.412 -0.0583  0.2574 -0.0152
10246TIP3    H152153   1.450   0.942  13.503  0.1500 -0.3151  0.1210
10246TIP3    H252154   1.454   1.014  13.369 -0.0588  0.5817  0.5879
10247TIP3   OH252155   5.827   1.911   1.759  0.5603  0.4887  0.1989
10247TIP3    H152156   5.916   1.935   1.786 -0.3939  3.6660  0.9661
10247TIP3    H252157   5.818   1.945   1.670  0.2199 -0.1937 -0.0364
10248TIP3   OH252158   5.751   3.373  12.770  0.4358  0.2383  0.2384
10248TIP3    H152159   5.753   3.400  12.679  0.8529  0.6480  0.3623
10248TIP3    H252160   5.799   3.442  12.817 -1.4597  1.0736  1.0415
10249TIP3   OH252161   5.565   6.476  14.550  0.1342 -0.1353  0.0432
10249TIP3    H152162   5.565   6.510  14.461  3.0384  0.5868  0.2324
10249TIP3    H252163   5.619   6.397  14.546 -2.6087 -2.1935  0.5551
10250TIP3   OH252164   3.102   0.655  13.050 -0.4707  0.0217 -0.1302
10250TIP3    H152165   3.121   0.627  13.140 -0.0278 -0.3076 -0.3253
10250TIP3    H252166   3.150   0.593  12.995  0.0095  0.7786 -0.5780
10251TIP3   OH252167   1.635   2.438   3.522  0.2081 -0.0847 -0.2315
10251TIP3    H152168   1.566   2.378   3.495  0.3819 -0.7688  0.7694
10251TIP3    H252169   1.716   2.395   3.496  0.4013 -0.9763  1.6817
10252TIP3   OH252170   3.898   3.321   1.787 -0.3238  0.7740 -0.7346
10252TIP3    H152171   3.927   3.291   1.873 -1.6770  0.3619 -0.3900
10252TIP3    H252172   3.979   3.341   1.740  0.4366  1.4128  0.7646
10253TIP3   OH252173   6.084   6.510  14.754 -0.1623 -0.4827 -0.8304
10253TIP3    H152174   6.073   6.498  14.848  0.7701 -0.6513 -0.7356
10253TIP3    H252175   6.004   6.554  14.726 -0.1116  0.2835  0.1757
10254TIP3   OH252176   6.641   4.075   0.294 -0.4114  0.2323 -0.0074
10254TIP3    H152177   6.629   4.001   0.352 -1.6615 -2.0525 -2.9302
10254TIP3    H252178   6.552   4.109   0.280 -0.1477  0.6898 -0.6151
10255TIP3   OH252179   3.542   1.863   0.965 -0.2933 -0.5942  0.4397
10255TIP3    H152180   3.576   1.815   0.889  0.3554 -0.8813  0.9006
10255TIP3    H252181   3.607   1.931   0.982 -2.7346  2.7571 -2.2494
10256TIP3   OH252182   1.636   4.674  12.665 -0.3761 -0.0436 -0.0251
10256TIP3    H152183   1.632   4.587  12.704 -1.2688 -0.3335 -0.7185
10256TIP3    H252184   1.644   4.658  12.571 -0.5235  0.6162 -0.1540
10257TIP3   OH252185   2.436   1.539   5.131  0.2817 -0.2689  0.4240
10257TIP3    H152186   2.383   1.577   5.061 -0.5031 -0.7868  0.7333
10257TIP3    H252187   2.393   1.568   5.212  0.1627 -1.1285  0.6710
10258TIP3   OH252188   2.924   2.009  11.863  0.4451 -0.0371  0.0965
10258TIP3    H152189   2.877   1.952  11.802 -2.2842  1.2226  0.8446
10258TIP3    H252190   3.014   2.009  11.832  0.0833 -2.8540 -1.2964
10259TIP3   OH252191   4.973   2.168  12.795 -0.3153 -0.0978 -0.1779
10259TIP3    H152192   4.919   2.088  12.798 -0.0404 -0.2731  2.5097
10259TIP3    H252193   4.925   2.231  12.848  1.8526 -0.1495  2.0372
10260TIP3   OH252194   6.392   5.561  11.649  0.1381  0.7601  0.3099
10260TIP3    H152195   6.359   5.641  11.608 -0.0341  0.2311 -0.6040
10260TIP3    H252196   6.392   5.497  11.579  0.7926  0.0981  0.9085
10261TIP3   OH252197   2.494   2.561  12.037 -0.2837 -0.5982  0.1127
10261TIP3    H152198   2.560   2.621  12.002 -0.1623 -0.9027 -0.1891
10261TIP3    H252199   2.489   2.582  12.130 -0.8406  0.4478 -0.1391
10262TIP3   OH252200   3.343   1.811   4.606  0.2026  0.9543 -0.4277
10262TIP3    H152201   3.275   1.796   4.672  1.6262 -1.7479  0.5679
10262TIP3    H252202   3.298   1.800   4.523 -0.2977 -3.0322  0.1966
10263TIP3   OH252203   3.482   5.196  13.607  0.3124 -0.1530  0.1913
10263TIP3    H152204   3.540   5.241  13.546  0.9239  0.3513  1.1140
10263TIP3    H252205   3.537   5.178  13.683 -0.3986 -0.8794  0.5456
10264TIP3   OH252206   1.075   2.125   5.250 -0.1948  0.1603 -0.3080
10264TIP3    H152207   1.093   2.035   5.221  1.6268  0.2058  0.5547
10264TIP3    H252208   1.010   2.115   5.320 -0.5741 -0.4213 -0.7405
10265TIP3   OH252209   6.197   2.099  12.360  0.4192  0.3257  0.0134
10265TIP3    H152210   6.251   2.087  12.282  1.8608  0.1673  1.0025
10265TIP3    H252211   6.118   2.144  12.329  0.4575 -0.7354 -1.7058
10266TIP3   OH252212   1.534   0.390  11.715  0.5348  0.7002 -0.1671
10266TIP3    H152213   1.558   0.301  11.690 -2.0687 -0.0442 -0.3071
10266TIP3    H252214   1.545   0.441  11.635 -0.6805 -0.1383 -0.9154
10267TIP3   OH252215   6.781   5.476   5.247  0.0787 -0.0864 -0.0973
10267TIP3    H152216   6.775   5.449   5.156 -0.2054  1.5176 -0.5819
10267TIP3    H252217   6.874   5.493   5.261 -0.1770  2.2295 -0.9057
10268TIP3   OH252218   0.203   3.414  16.976 -0.3103  0.2577 -0.1985
10268TIP3    H152219   0.250   3.464  16.910  0.1589 -1.1121 -0.9461
10268TIP3    H252220   0.272   3.367  17.024 -0.7401  0.2509  0.4316
10269TIP3   OH252221   3.413   0.843   0.903  0.2242 -0.3613  0.4811
10269TIP3    H152222   3.330   0.854   0.857 -0.7320 -0.3080  2.1209
10269TIP3    H252223   3.387   0.815   0.991  1.9154  0.4175  1.2623
10270TIP3   OH252224   0.348   3.175   3.066  0.4417 -0.3890 -0.2155
10270TIP3    H152225   0.279   3.161   3.001 -0.3646 -0.7930  0.6952
10270TIP3    H252226   0.312   3.139   3.147  2.6935 -3.0387 -0.2252
10271TIP3   OH252227   4.229   0.242   1.378  0.1634  0.5481  0.2411
10271TIP3    H152228   4.185   0.191   1.310  2.7944 -1.0130 -0.4308
10271TIP3    H252229   4.290   0.298   1.330  0.8880  0.6303  1.2367
10272TIP3   OH252230   2.525   2.223  11.414  0.2698  0.4518  0.3506
10272TIP3    H152231   2.564   2.310  11.405  0.3674  0.4261  0.5172
10272TIP3    H252232   2.588   2.174  11.467  1.0518 -0.2392 -1.1276
10273TIP3   OH252233   4.497   2.080  15.550  0.2574 -0.1855  0.4930
10273TIP3    H152234   4.424   2.070  15.488 -0.9038 -0.2703  1.8085
10273TIP3    H252235   4.477   2.160  15.598  0.3101 -0.9067  1.7668
10274TIP3   OH252236   0.287   6.472   4.475  0.0840  0.0292  0.2397
10274TIP3    H152237   0.242   6.389   4.460 -0.7816  0.6729 -0.9390
10274TIP3    H252238   0.376   6.448   4.500 -0.3167 -1.2519  0.4629
10275TIP3   OH252239   5.769   1.940  10.961 -0.2174 -0.3612  0.0080
10275TIP3    H152240   5.821   1.942  10.880  1.0977 -1.2791  0.7815
10275TIP3    H252241   5.721   2.022  10.961  1.6365  0.7750 -0.5169
10276TIP3   OH252242   3.266   0.177   5.399 -0.5811  0.2644 -0.5128
10276TIP3    H152243   3.317   0.149   5.323  0.7743 -0.1097  0.4990
10276TIP3    H252244   3.278   0.107   5.464 -1.2648  0.8277  0.2470
10277TIP3   OH252245   0.046   6.065  15.246 -0.3465  0.3707 -0.0178
10277TIP3    H152246   0.050   6.096  15.336 -0.2083 -2.2900  1.0002
10277TIP3    H252247   0.138   6.063  15.217  0.4450 -4.1473  1.9708
10278TIP3   OH252248   5.474   1.726   1.371  0.4033 -0.6002  0.0871
10278TIP3    H152249   5.485   1.636   1.340 -2.4063 -1.5249  1.4485
10278TIP3    H252250   5.437   1.717   1.458  0.6278  1.9019  0.5145
10279TIP3   OH252251   3.854   6.625  15.567  0.0058 -0.3811 -0.3694
10279TIP3    H152252   3.794   6.699  15.553 -2.2694 -1.9729  0.3037
10279TIP3    H252253   3.940   6.659  15.543 -0.9502  2.4187 -0.2519
10280TIP3   OH252254   5.764   6.580  13.353 -0.2346 -0.1394  0.1413
10280TIP3    H152255   5.673   6.589  13.327 -0.4189  0.6200  1.0010
10280TIP3    H252256   5.809   6.649  13.303 -0.4203  0.6153  0.9814
10281TIP3   OH252257   3.019   2.763  15.403 -0.0231 -0.1534  0.1537
10281TIP3    H152258   2.946   2.723  15.450  0.7282 -0.2510  1.2767
10281TIP3    H252259   3.042   2.840  15.455 -1.3027  1.6778 -1.8501
10282TIP3   OH252260   3.579   6.186  12.607 -0.6766 -0.0318  0.2396
10282TIP3    H152261   3.658   6.240  12.595 -0.6971 -0.3984 -2.0094
10282TIP3    H252262   3.518   6.219  12.542 -2.1104 -0.3038  1.4059
10283TIP3   OH252263   1.514   5.910   5.633 -0.8068 -0.3435  0.2173
10283TIP3    H152264   1.485   6.001   5.627 -0.1641 -0.1100  0.5256
10283TIP3    H252265   1.576   5.900   5.560  2.8747  0.9260  2.8523
10284TIP3   OH252266   6.266   1.194  15.965  0.3148  0.1952 -0.1074
10284TIP3    H152267   6.214   1.274  15.957 -1.0084 -0.5421  0.7918
10284TIP3    H252268   6.222   1.131  15.909 -0.2542 -0.6687  1.2727
10285TIP3   OH252269   0.395   2.812   6.829 -0.6932 -0.5894  0.0723
10285TIP3    H152270   0.352   2.897   6.830 -0.7516 -0.6247  0.5258
10285TIP3    H252271   0.362   2.769   6.750  1.0721  0.6887 -1.4425
10286TIP3   OH252272   1.664   0.506   1.604 -0.0182  0.7358 -0.4145
10286TIP3    H152273   1.663   0.421   1.648 -0.2645  0.2935 -1.2392
10286TIP3    H252274   1.652   0.570   1.674 -1.1155  0.0138  0.0877
10287TIP3   OH252275   3.575   6.434  13.635 -0.3454  0.1825  0.2097
10287TIP3    H152276   3.584   6.411  13.727 -1.2263 -2.5345 -0.2861
10287TIP3    H252277   3.664   6.452  13.605  0.1065 -0.1725  1.3062
10288TIP3   OH252278   1.098   0.465  11.611  0.2116  0.1107 -0.1957
10288TIP3    H152279   1.055   0.444  11.694 -1.6385  0.0228 -1.1151
10288TIP3    H252280   1.123   0.379  11.575  0.2778  0.0882 -0.0960
10289TIP3   OH252281   4.544   1.196   4.759 -0.0215 -0.0577  0.1491
10289TIP3    H152282   4.565   1.242   4.677 -0.7372  0.8301  0.4490
10289TIP3    H252283   4.526   1.106   4.732  0.5560  0.0266 -0.5600
10290TIP3   OH252284   2.092   2.967  12.449 -0.4555 -0.3079  0.2583
10290TIP3    H152285   2.024   3.030  12.473 -0.7925 -1.3585  2.3586
10290TIP3    H252286   2.061   2.884  12.485  1.7635 -0.8806  1.0325
10291TIP3   OH252287   1.228   3.487  14.012 -0.3414  0.9863 -0.2825
10291TIP3    H152288   1.248   3.486  13.918  0.9505  1.9266 -0.0492
10291TIP3    H252289   1.171   3.563  14.023  0.0128  1.2461 -0.2228
10292TIP3   OH252290   5.584   4.773  16.659 -0.3826  0.2916  0.0768
10292TIP3    H152291   5.641   4.849  16.671  0.4439 -0.3623  0.3896
10292TIP3    H252292   5.504   4.795  16.707 -0.0936  0.9002  0.2903
10293TIP3   OH252293   5.631   0.384  12.387  0.4357 -0.2529  0.2474
10293TIP3    H152294   5.536   0.381  12.395  0.4685 -1.2245  0.3510
10293TIP3    H252295   5.660   0.432  12.465  0.0169  0.2996  0.0659
10294TIP3   OH252296   5.798   0.764   4.368 -0.0138  0.2607 -0.3395
10294TIP3    H152297   5.835   0.771   4.280  1.5607  1.3292  0.3596
10294TIP3    H252298   5.874   0.753   4.425 -0.8784  1.1046  1.0402
10295TIP3   OH252299   3.802   1.018   0.839 -0.2290  0.6434 -0.1736
10295TIP3    H152300   3.897   1.022   0.851 -0.3092 -1.0873  1.6422
10295TIP3    H252301   3.773   0.950   0.901 -2.3657 -0.5429 -2.3011
10296TIP3   OH252302   0.274   6.297  13.406 -0.3561  0.0283 -0.2263
10296TIP3    H152303   0.359   6.316  13.444 -0.7342 -0.1619  0.7324
10296TIP3    H252304   0.230   6.381  13.400  0.1342  0.2298 -1.3596
10297TIP3   OH252305   1.261   3.267  15.401  0.2012  0.2214  0.6098
10297TIP3    H152306   1.196   3.334  15.377  0.3727  0.1836  0.0153
10297TIP3    H252307   1.333   3.281  15.340  1.0893  0.7439  1.7339
10298TIP3   OH252308   1.763   4.592   5.442  0.1312  0.3401  0.1760
10298TIP3    H152309   1.792   4.662   5.500 -0.0130  0.2229  0.3908
10298TIP3    H252310   1.778   4.626   5.354 -1.0007  1.0921  0.2524
10299TIP3   OH252311   0.529   6.067  15.217  0.1776  0.5344 -0.0735
10299TIP3    H152312   0.519   6.113  15.301 -0.0124  0.8172 -0.2521
10299TIP3    H252313   0.567   5.982  15.241 -2.8558 -0.7533  0.7057
10300TIP3   OH252314   4.510   2.883   0.053  0.3435  0.0950 -0.0527
10300TIP3    H152315   4.576   2.847  -0.006 -1.5104 -1.5718 -1.2457
10300TIP3    H252316   4.559   2.938   0.113  2.6475 -0.1468 -1.5899
10301TIP3   OH252317   5.203   4.904  11.112  0.5894  0.1117 -0.3026
10301TIP3    H152318   5.299   4.904  11.116  0.5935  0.5777 -0.4294
10301TIP3    H252319   5.181   4.981  11.060  0.1004  0.7303  0.7780
10302TIP3   OH252320   1.730   1.780   0.953 -0.2513 -0.7007 -0.1784
10302TIP3    H152321   1.706   1.702   1.003 -1.7339  0.3302  0.7689
10302TIP3    H252322   1.674   1.776   0.875 -1.0489 -0.0936  0.3504
10303TIP3   OH252323   2.340   6.134   6.115  0.2958 -0.6785 -0.2913
10303TIP3    H152324   2.319   6.054   6.163  0.8781 -0.3783  0.5074
10303TIP3    H252325   2.257   6.181   6.108  0.0281 -1.1647 -0.4119
10304TIP3   OH252326   4.279   1.084  14.836  0.4304 -0.3823  0.6095
10304TIP3    H152327   4.362   1.093  14.884  0.7690  0.8615 -0.1756
10304TIP3    H252328   4.213   1.075  14.905  1.1346 -0.7374  1.2629
10305TIP3   OH252329   2.069   1.501   2.995  0.3487  0.8231  0.2783
10305TIP3    H152330   2.152   1.541   3.019  0.5163 -0.9138  2.9458
10305TIP3    H252331   2.056   1.526   2.903  3.6974  1.2559 -0.1800
10306TIP3   OH252332   2.700   5.986   5.408 -0.1158  0.2007 -0.7771
10306TIP3    H152333   2.677   6.047   5.338 -2.7845  1.0444  0.7142
10306TIP3    H252334   2.685   5.899   5.370 -1.9378  0.6505 -1.1844
10307TIP3   OH252335   0.406   1.416   2.978  0.1641  0.0123  0.0556
10307TIP3    H152336   0.470   1.357   3.018 -1.3582 -2.4026 -0.8698
10307TIP3    H252337   0.456   1.465   2.913  1.7767  0.8713  1.8586
10308TIP3   OH252338   0.985   4.422  13.653  0.0093 -0.4014 -0.0693
10308TIP3    H152339   1.080   4.413  13.651  0.0890  0.3464 -0.1771
10308TIP3    H252340   0.961   4.410  13.745  0.1232 -1.2926 -0.1497
10309TIP3   OH252341   4.180   4.051   4.818  0.5375 -0.2905  0.0464
10309TIP3    H152342   4.133   4.042   4.901 -0.2460 -1.7173 -0.5082
10309TIP3    H252343   4.117   4.020   4.752  1.3768  0.2011 -1.0056
10310TIP3   OH252344   6.291   3.101  10.730  0.8528  0.2539 -0.4103
10310TIP3    H152345   6.290   3.196  10.717 -0.7648  0.4343  0.6685
10310TIP3    H252346   6.343   3.088  10.809  0.1373  0.3552  0.0808
10311TIP3   OH252347   4.252   6.649   5.536 -0.2574 -0.6519  0.4828
10311TIP3    H152348   4.256   6.560   5.570 -0.8129 -0.4069  1.2133
10311TIP3    H252349   4.175   6.688   5.578  0.3924  0.3976  0.7409
10312TIP3   OH252350   4.023   5.710  15.806 -0.4358  0.2491 -0.1715
10312TIP3    H152351   3.986   5.725  15.719  1.2354  0.1972 -0.9189
10312TIP3    H252352   3.969   5.640  15.844 -1.0961  0.1801 -1.2153
10313TIP3   OH252353   3.287   5.378   1.065  0.3712  0.2590 -0.1436
10313TIP3    H152354   3.361   5.376   1.005 -1.3607  1.3816 -2.4836
10313TIP3    H252355   3.287   5.466   1.102  0.8635 -0.1259  0.8302
10314TIP3   OH252356   1.332   4.105  16.531 -0.1875  0.2442 -0.2131
10314TIP3    H152357   1.251   4.155  16.540 -0.0387  0.1945  2.0055
10314TIP3    H252358   1.364   4.094  16.621  0.7531 -2.2462 -0.7459
10315TIP3   OH252359   1.495   3.575  15.472  0.0226  0.1514 -0.2815
10315TIP3    H152360   1.402   3.566  15.454 -0.0599  0.0327  0.2085
10315TIP3    H252361   1.521   3.492  15.511  0.5214 -0.1367 -1.2060
10316TIP3   OH252362   0.540   1.339  17.150 -0.3438 -0.2187  0.5519
10316TIP3    H152363   0.477   1.369  17.215  0.3623 -0.6079  1.4440
10316TIP3    H252364   0.489   1.325  17.071 -1.1503  0.6670  0.9008
10317TIP3   OH252365   0.289   1.162  12.206 -0.0638 -0.1569 -0.5244
10317TIP3    H152366   0.375   1.158  12.166 -0.1120  3.1941 -1.2493
10317TIP3    H252367   0.228   1.153  12.133 -0.1972  2.0001 -0.7379
10318TIP3   OH252368   3.540   1.406   1.950 -0.2149 -0.8376 -0.1390
10318TIP3    H152369   3.589   1.326   1.971 -1.2755 -0.7732  3.3296
10318TIP3    H252370   3.450   1.377   1.939 -0.3522 -0.2952 -0.4934
10319TIP3   OH252371   5.059   5.941  11.286  0.3383  0.2837  0.0439
10319TIP3    H152372   5.104   5.899  11.213  2.6181 -2.3516  2.7121
10319TIP3    H252373   5.121   6.007  11.317 -0.1695  0.6718  0.2388
10320TIP3   OH252374   5.040   6.609  13.081 -0.2025 -0.0388 -0.2686
10320TIP3    H152375   5.075   6.567  13.002 -1.2903  0.9629 -1.3192
10320TIP3    H252376   4.945   6.601  13.072 -0.3395 -1.3551  1.7819
10321TIP3   OH252377   2.550   0.342  15.886  0.3939  0.0343  0.1312
10321TIP3    H152378   2.542   0.376  15.796  0.3193  3.4239  1.2682
10321TIP3    H252379   2.462   0.312  15.908 -0.0670  1.0326 -0.2974
10322TIP3   OH252380   2.540   4.964   5.413  0.0469 -0.1277 -0.0223
10322TIP3    H152381   2.501   5.039   5.458  1.8682  1.1145 -0.3885
10322TIP3    H252382   2.563   4.903   5.483  1.1274  0.9411  0.5992
10323TIP3   OH252383   0.679   0.493   1.846 -0.3842 -0.3361  0.4854
10323TIP3    H152384   0.727   0.426   1.894 -1.2777 -1.6736 -0.4293
10323TIP3    H252385   0.748   0.546   1.804  0.3311 -1.0130  0.7813
10324TIP3   OH252386   3.008   5.390   1.617  0.6570  0.0277  0.6163
10324TIP3    H152387   3.050   5.327   1.676 -0.0681  0.2103  1.3538
10324TIP3    H252388   2.948   5.438   1.674  1.6337  1.8052  0.1863
10325TIP3   OH252389   2.283   4.673   2.656 -0.3874  0.3917  0.2954
10325TIP3    H152390   2.361   4.676   2.712 -0.2384  0.9193  0.0647
10325TIP3    H252391   2.251   4.763   2.653  0.5459  0.7199 -1.7571
10326TIP3   OH252392   1.142   6.757  16.315 -0.0776  0.3457  0.1552
10326TIP3    H152393   1.200   6.696  16.267  1.3796  2.4322 -0.8836
10326TIP3    H252394   1.065   6.765  16.259 -0.3544 -0.6009  0.3694
10327TIP3   OH252395   0.889   5.315   3.058 -0.3871  0.6192 -0.2247
10327TIP3    H152396   0.880   5.225   3.026 -2.7757  0.8726 -0.4976
10327TIP3    H252397   0.968   5.347   3.016  1.4839 -1.8208  1.1722
10328TIP3   OH252398   2.966   1.698  13.785 -0.1012  0.3802  0.6562
10328TIP3    H152399   2.899   1.765  13.796  0.6674  1.3072 -0.0758
10328TIP3    H252400   2.918   1.619  13.760 -0.9299  0.9494  0.4221
10329TIP3   OH252401   1.770   4.149   3.554  0.1788 -0.3248 -0.6465
10329TIP3    H152402   1.726   4.217   3.502  0.7403 -0.3945 -1.2238
10329TIP3    H252403   1.752   4.068   3.507  0.9124 -0.3555 -0.8727
10330TIP3   OH252404   4.146   2.299   4.200  0.0764  0.7912 -0.1122
10330TIP3    H152405   4.101   2.220   4.168 -0.2688  0.1743  1.7707
10330TIP3    H252406   4.238   2.275   4.203 -0.2378 -0.4463  2.6530
10331TIP3   OH252407   3.129   4.212   1.222 -0.2661 -0.1935 -0.4501
10331TIP3    H152408   3.170   4.145   1.167  1.4512 -0.4761  1.0488
10331TIP3    H252409   3.088   4.161   1.292 -1.3605  0.2122 -0.7893
10332TIP3   OH252410   6.587   2.781   1.933 -0.8400 -0.5470  0.2646
10332TIP3    H152411   6.644   2.792   2.009 -0.6281 -0.8118  0.1468
10332TIP3    H252412   6.616   2.849   1.872  0.0052 -1.2958 -0.1856
10333TIP3   OH252413   6.320   3.668  13.390 -0.4120 -0.7158 -0.3478
10333TIP3    H152414   6.411   3.679  13.364 -0.2095 -1.0578  0.2062
10333TIP3    H252415   6.288   3.758  13.405 -0.9895 -0.3618 -3.2049
10334TIP3   OH252416   2.848   5.829  13.271  0.3704  0.5698  0.5425
10334TIP3    H152417   2.891   5.876  13.342  0.7241 -0.4746  1.0466
10334TIP3    H252418   2.826   5.744  13.309  2.1717 -0.7134 -1.0508
10335TIP3   OH252419   1.421   6.278   4.220 -0.8127  0.1185 -0.1710
10335TIP3    H152420   1.476   6.224   4.277  0.8316  0.7647 -1.0654
10335TIP3    H252421   1.376   6.215   4.164  0.8542 -0.3910 -1.0070
10336TIP3   OH252422   5.600   6.286   0.991 -0.3797 -0.3932 -0.1995
10336TIP3    H152423   5.611   6.202   1.035 -1.5193 -0.2055  0.5008
10336TIP3    H252424   5.689   6.318   0.977  0.0308 -0.7986  1.3154
10337TIP3   OH252425   0.605   4.477  11.995  0.2686  0.8216  0.3974
10337TIP3    H152426   0.526   4.453  12.042 -1.1104  1.9963 -1.1999
10337TIP3    H252427   0.628   4.564  12.029 -1.2999  2.1203 -1.6436
10338TIP3   OH252428   4.117   6.695  15.186 -0.0011 -0.3656 -0.1846
10338TIP3    H152429   4.128   6.631  15.115 -1.7341 -1.8625  0.8094
10338TIP3    H252430   4.030   6.731  15.173 -0.2422 -0.4659  0.9987
10339TIP3   OH252431   3.098   5.209   0.365 -0.0833 -0.0386  0.7663
10339TIP3    H152432   3.067   5.188   0.277  1.1312  0.1479  0.2755
10339TIP3    H252433   3.118   5.124   0.404  0.4891 -0.0661  0.4279
10340TIP3   OH252434   2.565   0.802  16.755 -0.1028  0.3657  0.6563
10340TIP3    H152435   2.661   0.809  16.753 -0.1202  0.6848 -0.7025
10340TIP3    H252436   2.535   0.890  16.731 -0.7639  0.5331  2.0556
10341TIP3   OH252437   6.560   0.302  11.984  0.1896  0.3743  0.4440
10341TIP3    H152438   6.558   0.301  12.080  1.2740  2.1651  0.5298
10341TIP3    H252439   6.478   0.344  11.959  0.2315  0.5587  0.6171
10342TIP3   OH252440   3.103   3.601   4.094 -0.1456 -0.6816  0.2151
10342TIP3    H152441   3.049   3.524   4.075  0.2470 -0.5839 -1.4682
10342TIP3    H252442   3.164   3.571   4.162  0.0404 -1.8956 -0.4546
10343TIP3   OH252443   2.345   2.882  12.339 -0.4787  0.0174 -0.6447
10343TIP3    H152444   2.279   2.936  12.382  0.4045 -0.2144  1.0785
10343TIP3    H252445   2.320   2.792  12.358  0.7907 -0.0661  0.8519
10344TIP3   OH252446   2.938   5.067   4.249  0.5508 -0.7247  0.1435
10344TIP3    H152447   3.021   5.025   4.272  1.2766  0.8564  0.5295
10344TIP3    H252448   2.963   5.138   4.190 -0.5743 -0.4094  0.0305
10345TIP3   OH252449   5.160   6.255   0.167 -0.1200 -0.3551 -0.2051
10345TIP3    H152450   5.092   6.251   0.100  0.9371 -1.6533 -1.2568
10345TIP3    H252451   5.140   6.182   0.226 -0.8138  0.5345  0.6754
10346TIP3   OH252452   6.413   2.957   1.677  0.0646 -0.2186 -0.0298
10346TIP3    H152453   6.399   2.863   1.682 -1.3026 -0.0455 -0.1869
10346TIP3    H252454   6.325   2.995   1.684  0.3968  0.9701 -1.5806
10347TIP3   OH252455   0.227   5.764   1.110  0.0052  0.5669 -0.2922
10347TIP3    H152456   0.280   5.831   1.153  1.8054 -0.4306 -0.8891
10347TIP3    H252457   0.212   5.798   1.022  1.8645 -0.2594 -0.9633
10348TIP3   OH252458   2.699   3.835  15.261 -0.2308 -0.3558 -0.1260
10348TIP3    H152459   2.722   3.817  15.170 -0.1371 -0.2843 -0.1167
10348TIP3    H252460   2.726   3.756  15.308  2.6833  0.7747  0.3399
10349TIP3   OH252461   2.721   5.900   3.824 -0.3687 -0.0761 -0.1886
10349TIP3    H152462   2.804   5.878   3.782 -0.5039  0.8034 -0.9188
10349TIP3    H252463   2.654   5.868   3.764 -0.5650  1.5581 -0.8904
10350TIP3   OH252464   2.483   3.294   5.720  0.2177  0.0040 -0.0156
10350TIP3    H152465   2.528   3.378   5.716 -2.2838  1.4537  0.0438
10350TIP3    H252466   2.420   3.297   5.647 -0.9119 -1.1931  0.8590
10351TIP3   OH252467   5.623   0.896  16.064  0.0001  1.1672 -0.1494
10351TIP3    H152468   5.719   0.897  16.061  0.1904  1.0299  2.6157
10351TIP3    H252469   5.600   0.975  16.113 -1.2396  0.7663 -0.0608
10352TIP3   OH252470   0.180   0.172   2.147  0.2022  0.3949  0.0893
10352TIP3    H152471   0.141   0.085   2.138  0.3997  0.4070 -0.9531
10352TIP3    H252472   0.155   0.200   2.236 -2.1126  0.3828 -0.4946
10353TIP3   OH252473   0.944   3.229  11.640  0.7789 -0.0601 -0.3179
10353TIP3    H152474   0.926   3.169  11.712  0.7578  1.1283  0.7008
10353TIP3    H252475   0.860   3.271  11.622  0.8378 -0.1747 -0.8926
10354TIP3   OH252476   1.574   6.420  13.974  1.0838 -0.0856 -0.0714
10354TIP3    H152477   1.500   6.406  13.915  2.7877  1.7473 -2.8529
10354TIP3    H252478   1.624   6.338  13.970  0.9128 -0.1598 -0.7688
10355TIP3   OH252479   5.744   6.135  16.646 -0.4434 -0.5602 -0.4234
10355TIP3    H152480   5.707   6.170  16.727  0.2624 -1.5993  0.3716
10355TIP3    H252481   5.704   6.188  16.577 -1.0546  0.3510  0.5937
10356TIP3   OH252482   4.632   6.381   0.031 -0.0899  0.4288  0.5405
10356TIP3    H152483   4.548   6.365   0.072 -0.5940 -0.7370 -0.8721
10356TIP3    H252484   4.696   6.351   0.096 -0.8174 -0.3990  0.8990
10357TIP3   OH252485   1.101   4.812  13.808 -0.6443  0.3425 -0.4298
10357TIP3    H152486   1.097   4.748  13.879 -1.2812  2.7031  1.7920
10357TIP3    H252487   1.194   4.830  13.797 -0.5540  0.1621  0.0151
10358TIP3   OH252488   3.043   5.582  14.980 -0.7079 -0.0041 -0.3186
10358TIP3    H152489   3.063   5.578  15.073 -0.5310 -0.6395 -0.3816
10358TIP3    H252490   3.116   5.536  14.937  0.1220  1.7750 -0.9098
10359TIP3   OH252491   2.309   6.196   3.775 -0.0612  0.7916  0.0638
10359TIP3    H152492   2.258   6.163   3.849  1.3146  1.8600  1.5731
10359TIP3    H252493   2.400   6.190   3.805  0.6426  0.1158 -2.0445
10360TIP3   OH252494   5.670   1.248  12.822  0.4395  0.2407 -0.0673
10360TIP3    H152495   5.745   1.302  12.795  1.2500 -0.8618 -0.0903
10360TIP3    H252496   5.683   1.235  12.916 -0.2985  0.8892  0.1352
10361TIP3   OH252497   1.863   6.102   0.761  0.4320  0.6114 -0.3511
10361TIP3    H152498   1.926   6.039   0.726  1.5975  1.1101  0.7841
10361TIP3    H252499   1.799   6.113   0.690  2.6810  1.6134 -2.3613
10362TIP3   OH252500   3.059   1.322   2.682  0.2912 -0.4902 -0.3893
10362TIP3    H152501   3.051   1.234   2.717  1.6234 -1.2187 -1.7954
10362TIP3    H252502   3.152   1.332   2.662  0.1178  1.1216 -0.5518
10363TIP3   OH252503   6.681   0.175   2.832  0.6545 -0.5215  0.3671
10363TIP3    H152504   6.588   0.186   2.811  0.4617  0.2831  1.5042
10363TIP3    H252505   6.727   0.230   2.769  0.5652 -2.6521 -1.6656
10364TIP3   OH252506   4.768   0.781   5.137  0.5996  0.0409 -0.1261
10364TIP3    H152507   4.820   0.712   5.178 -0.3616 -0.6150  0.0217
10364TIP3    H252508   4.684   0.779   5.183 -0.1028  0.0426 -1.3616
10365TIP3   OH252509   0.185   1.334   2.636 -0.1467  0.3741  0.4630
10365TIP3    H152510   0.181   1.247   2.676  2.1170  0.0759  0.1314
10365TIP3    H252511   0.117   1.332   2.568  0.2265 -1.3454  0.0913
10366TIP3   OH252512   1.402   2.882   3.726 -0.0271  0.2036 -0.4608
10366TIP3    H152513   1.416   2.947   3.657  0.9767  1.0307  0.4929
10366TIP3    H252514   1.412   2.798   3.681  0.0457  0.7153 -1.4317
10367TIP3   OH252515   1.322   6.236  13.659  0.5638 -0.7540  0.0698
10367TIP3    H152516   1.410   6.274  13.652  0.3020  0.4072  2.2229
10367TIP3    H252517   1.264   6.306  13.630  0.1204  0.4633  3.4358
10368TIP3   OH252518   6.595   5.992  15.200 -0.3803 -0.0367  0.7128
10368TIP3    H152519   6.683   6.010  15.232 -1.2220 -0.0445  3.2425
10368TIP3    H252520   6.580   5.900  15.220 -1.1894  0.1379  0.9539
10369TIP3   OH252521   0.466   5.038  14.069  0.2195 -0.1637  0.7827
10369TIP3    H152522   0.514   5.055  13.989 -0.9329 -0.5062 -0.0027
10369TIP3    H252523   0.521   4.975  14.117 -0.0540 -1.5848 -0.6988
10370TIP3   OH252524   6.152   2.242  16.284 -0.2152  0.2821  0.2491
10370TIP3    H152525   6.157   2.337  16.271  1.6009  0.1418 -0.4135
10370TIP3    H252526   6.137   2.231  16.377  1.0138  1.2379  0.5895
10371TIP3   OH252527   3.244   3.160   4.568 -0.3029  0.2924  0.0077
10371TIP3    H152528   3.225   3.071   4.599 -0.5205  0.5131  0.5231
10371TIP3    H252529   3.294   3.199   4.640 -1.7341  1.1697  0.5527
10372TIP3   OH252530   6.346   5.449  10.949 -0.2586  0.2485 -0.2208
10372TIP3    H152531   6.264   5.432  10.903 -0.9118 -2.0271  1.5671
10372TIP3    H252532   6.332   5.534  10.992 -1.6539 -0.0298 -0.0554
10373TIP3   OH252533   4.429   0.071   5.388  0.2614 -0.0216 -0.2810
10373TIP3    H152534   4.460   0.132   5.455 -1.8941  0.9821 -0.1005
10373TIP3    H252535   4.368   0.013   5.435 -0.4081 -0.0341 -1.1510
10374TIP3   OH252536   3.191   4.849   1.727  0.1498  0.0753  0.0285
10374TIP3    H152537   3.191   4.929   1.674 -0.5843 -0.4876 -0.8534
10374TIP3    H252538   3.124   4.864   1.793  0.3329  0.3680  0.1493
10375TIP3   OH252539   2.537   4.349   5.723 -0.0661 -0.1866 -0.8511
10375TIP3    H152540   2.618   4.380   5.762 -1.0820 -0.5288  1.7544
10375TIP3    H252541   2.518   4.267   5.769 -3.3037  1.3074  0.8143
10376TIP3   OH252542   6.235   5.955  12.610  0.1583 -0.2148 -0.0136
10376TIP3    H152543   6.157   5.915  12.570 -0.5814  0.6645  0.5139
10376TIP3    H252544   6.282   5.994  12.537 -0.0894 -0.4165 -0.2870
10377TIP3   OH252545   0.267   6.401   2.782 -0.0654  0.5981  0.5543
10377TIP3    H152546   0.273   6.452   2.863  1.7445  1.1861  0.1047
10377TIP3    H252547   0.208   6.329   2.804 -2.6472  2.7817  1.2255
10378TIP3   OH252548   0.852   0.976   0.201 -0.2983 -0.1382  0.2564
10378TIP3    H152549   0.843   0.885   0.173 -0.3253 -0.5992  1.6983
10378TIP3    H252550   0.908   1.016   0.135  0.1841 -1.3454 -0.0795
10379TIP3   OH252551   4.326   2.839   3.618  0.2173 -0.3542 -0.1342
10379TIP3    H152552   4.388   2.801   3.680  0.2777  0.1390  0.1071
10379TIP3    H252553   4.241   2.833   3.662 -0.0395 -1.7265 -0.7697
10380TIP3   OH252554   4.150   5.878  16.899  0.1654 -0.3419 -0.5398
10380TIP3    H152555   4.161   5.891  16.993 -0.0718 -1.3223 -0.3595
10380TIP3    H252556   4.234   5.845  16.869 -0.5388 -2.6549 -0.1470
10381TIP3   OH252557   0.470   1.909  13.518  0.0683 -0.5442  0.5960
10381TIP3    H152558   0.500   1.937  13.605 -0.3216 -0.3117  0.6634
10381TIP3    H252559   0.543   1.927  13.460 -0.4164  1.3480  0.5100
10382TIP3   OH252560   2.048   1.072   2.255 -0.2676  0.0333  1.1161
10382TIP3    H152561   2.130   1.027   2.235 -1.1803 -1.2275  0.0539
10382TIP3    H252562   2.002   1.013   2.315 -0.9713  0.0997  0.6474
10383TIP3   OH252563   3.075   2.907  14.379 -0.0347  0.4651 -0.4257
10383TIP3    H152564   3.002   2.899  14.318  1.7141  0.7421 -2.6641
10383TIP3    H252565   3.098   3.000  14.376  1.5665  0.0646 -1.1901
10384TIP3   OH252566   1.206   5.437   6.239  0.3793 -0.0320  0.5250
10384TIP3    H152567   1.263   5.453   6.315 -1.6717  3.0265  1.6371
10384TIP3    H252568   1.236   5.500   6.174 -1.1355  1.0806  0.8479
10385TIP3   OH252569   5.794   4.603   6.471 -0.2446  0.2324 -0.2543
10385TIP3    H152570   5.787   4.684   6.420 -2.4321 -0.7162 -1.6309
10385TIP3    H252571   5.706   4.592   6.508  0.2378 -1.1463  0.5225
10386TIP3   OH252572   3.682   3.948   1.334  0.1050 -0.7008  0.0022
10386TIP3    H152573   3.776   3.946   1.355  0.0864 -0.2326  0.1460
10386TIP3    H252574   3.679   3.950   1.239  0.2979  1.0086 -0.0012
10387TIP3   OH252575   2.640   3.516   6.311  0.1953 -0.6729 -0.6032
10387TIP3    H152576   2.570   3.575   6.341  0.1811 -1.5424  1.2215
10387TIP3    H252577   2.678   3.560   6.235 -2.0986 -0.0252 -1.4320
10388TIP3   OH252578   5.300   2.943   2.019  0.2540 -0.1053 -0.3183
10388TIP3    H152579   5.361   3.014   1.997 -0.9983  1.0655 -0.1149
10388TIP3    H252580   5.214   2.984   2.021 -0.7631 -1.9593 -1.8915
10389TIP3   OH252581   1.434   0.267   6.068 -0.2535  0.0250  0.3395
10389TIP3    H152582   1.350   0.311   6.077  0.6364  1.8648  0.0926
10389TIP3    H252583   1.497   0.327   6.108  1.5033  0.7157 -3.0639
10390TIP3   OH252584   1.616   5.787  16.050  0.0571  0.0882  0.0007
10390TIP3    H152585   1.550   5.805  16.117 -0.6941 -1.5221 -0.2719
10390TIP3    H252586   1.588   5.706  16.009  0.8113  0.7399 -1.9138
10391TIP3   OH252587   6.313   3.079  11.815  0.1448  0.8691 -0.0189
10391TIP3    H152588   6.248   3.073  11.886 -0.7259 -2.4482 -0.9368
10391TIP3    H252589   6.260   3.095  11.736  0.2844 -2.0685 -0.8080
10392TIP3   OH252590   0.627   0.040   5.502 -0.1446 -0.1177  0.7505
10392TIP3    H152591   0.675   0.097   5.443  1.1441 -0.3493  1.5258
10392TIP3    H252592   0.646  -0.049   5.472 -3.0715 -0.2188 -1.1676
10393TIP3   OH252593   4.015   6.332   2.784 -0.6351 -0.2789  0.0006
10393TIP3    H152594   3.982   6.419   2.758  1.4770  0.5561 -0.1181
10393TIP3    H252595   3.947   6.271   2.754 -3.3670  1.4155  2.1819
10394TIP3   OH252596   6.407   5.499  13.441  0.2671  0.2153 -0.3028
10394TIP3    H152597   6.432   5.525  13.530 -1.0568  0.5645 -0.0051
10394TIP3    H252598   6.358   5.417  13.454 -0.7518  0.7597 -0.5838
10395TIP3   OH252599   3.958   5.551  13.798 -0.3826  0.5518  0.4280
10395TIP3    H152600   3.930   5.461  13.781  3.1668 -0.9387  1.5592
10395TIP3    H252601   4.020   5.570  13.728  0.3377  1.3843  1.2716
10396TIP3   OH252602   5.575   1.963  11.480  0.6898 -0.7453 -0.7454
10396TIP3    H152603   5.624   1.985  11.402 -1.0018  0.4520 -1.5209
10396TIP3    H252604   5.580   2.041  11.535  0.3565 -0.9097 -0.4753
10397TIP3   OH252605   2.726   4.244   0.890  0.2634  0.4514  0.6270
10397TIP3    H152606   2.789   4.191   0.841  0.6486  1.8153 -0.4063
10397TIP3    H252607   2.746   4.334   0.865 -1.1166  1.0117  1.4582
10398TIP3   OH252608   3.135   3.524  16.948 -0.3097 -0.9627  0.4169
10398TIP3    H152609   3.130   3.436  16.910  2.2950  0.0030 -2.6501
10398TIP3    H252610   3.229   3.539  16.960 -0.7847  0.9227  2.2224
10399TIP3   OH252611   4.921   6.609  11.617  0.5593 -0.1265 -0.3193
10399TIP3    H152612   4.940   6.695  11.578 -0.2955 -0.6097 -1.9389
10399TIP3    H252613   4.903   6.628  11.709 -1.8806  1.8410 -1.0611
10400TIP3   OH252614   1.794   3.791   0.282  0.1745  0.2301 -0.5634
10400TIP3    H152615   1.712   3.742   0.279  1.1372 -1.4254 -1.0519
10400TIP3    H252616   1.852   3.737   0.335  1.3529  0.7038 -1.3407
10401TIP3   OH252617   5.153   0.922   3.386 -0.8417 -0.1371  0.0204
10401TIP3    H152618   5.081   0.977   3.416 -0.0662  0.5485  0.6634
10401TIP3    H252619   5.178   0.959   3.302 -1.9202 -1.0394 -0.7360
10402TIP3   OH252620   2.742   2.144   3.087  0.4025 -0.2090 -0.3774
10402TIP3    H152621   2.658   2.159   3.043 -0.3160 -3.0691 -0.1495
10402TIP3    H252622   2.807   2.174   3.024 -0.7321  0.0537 -1.4712
10403TIP3   OH252623   0.931   0.084   1.540  0.0213  0.3458  0.3803
10403TIP3    H152624   0.923   0.138   1.619 -0.7045 -1.5123  1.6415
10403TIP3    H252625   1.002   0.125   1.490 -0.8249  2.7481  0.9934
10404TIP3   OH252626   5.367   2.086  14.149  0.2327  0.6644  0.6941
10404TIP3    H152627   5.413   2.131  14.220  0.0084 -0.5418  1.6316
10404TIP3    H252628   5.438   2.053  14.093  0.4615  0.3934  1.1366
10405TIP3   OH252629   3.891   4.477  12.592 -0.3552  0.3808  0.5311
10405TIP3    H152630   3.903   4.497  12.500 -0.6657 -2.0684 -0.1229
10405TIP3    H252631   3.797   4.462  12.602 -0.2077 -0.2959  1.0099
10406TIP3   OH252632   0.129   4.136  14.523  0.2755  0.2981 -0.3195
10406TIP3    H152633   0.070   4.081  14.575  0.6827 -1.0437 -1.2146
10406TIP3    H252634   0.163   4.200  14.585 -2.6252  1.6199  0.1001
10407TIP3   OH252635   5.711   0.375  11.816  0.0940  0.0492  0.4654
10407TIP3    H152636   5.630   0.337  11.782  0.6193  0.5676 -1.5146
10407TIP3    H252637   5.779   0.346  11.755  0.6004  3.6912 -0.9604
10408TIP3   OH252638   2.723   6.404  14.443  0.4158 -0.3032 -0.8084
10408TIP3    H152639   2.807   6.364  14.465  0.7038  0.7886  0.1869
10408TIP3    H252640   2.745   6.477  14.384 -0.2685 -2.6107 -4.1949
10409TIP3   OH252641   0.095   0.751   3.777  0.6567  0.3152  0.4874
10409TIP3    H152642   0.071   0.716   3.691  1.0117  0.2779  0.4031
10409TIP3    H252643   0.149   0.683   3.817  1.4280  0.7948  0.2878
10410TIP3   OH252644   5.663   0.201  13.631 -0.3354 -0.0363 -0.1866
10410TIP3    H152645   5.578   0.226  13.596 -0.7696 -0.9892  0.1702
10410TIP3    H252646   5.656   0.108  13.651  0.2137  0.2250  1.4594
10411TIP3   OH252647   2.313   3.136   3.531 -0.7240 -0.5627  0.5448
10411TIP3    H152648   2.285   3.216   3.577 -0.6600 -0.8946  1.1703
10411TIP3    H252649   2.398   3.159   3.494 -0.3033 -0.6029  1.4567
10412TIP3   OH252650   0.114   3.723   5.025 -0.4489  0.0782 -0.2860
10412TIP3    H152651   0.045   3.741   5.088 -1.2579 -1.2921 -0.7406
10412TIP3    H252652   0.173   3.662   5.070  0.2579  0.9196 -0.0459
10413TIP3   OH252653   3.832   3.915  12.975  0.3897 -0.4143  0.2174
10413TIP3    H152654   3.741   3.925  13.003 -0.1033 -2.4065 -0.5163
10413TIP3    H252655   3.873   3.865  13.044  1.0678  0.7843  0.7174
10414TIP3   OH252656   0.614   3.969   3.089 -0.3341 -0.3090  0.2597
10414TIP3    H152657   0.540   3.922   3.127  0.1393 -0.7865  0.5988
10414TIP3    H252658   0.683   3.903   3.079 -0.3680 -0.1489 -1.2392
10415TIP3   OH252659   2.940   6.186  11.142 -0.2359  0.0542  0.3984
10415TIP3    H152660   2.894   6.268  11.156 -2.1079 -0.8663 -0.0866
10415TIP3    H252661   3.005   6.183  11.213 -0.9587  1.3703  1.1568
10416TIP3   OH252662   4.948   4.031   0.696 -0.0012  0.0092 -0.3084
10416TIP3    H152663   4.862   4.070   0.681 -0.5434 -0.8632  0.3909
10416TIP3    H252664   4.986   4.022   0.608 -1.1734 -0.7746 -0.7682
10417TIP3   OH252665   0.867   1.886   5.684 -0.3489  0.0102 -0.3975
10417TIP3    H152666   0.839   1.933   5.763 -0.3842  1.0196 -0.9825
10417TIP3    H252667   0.796   1.900   5.622 -0.9846 -1.9861 -0.1846
10418TIP3   OH252668   5.177   4.380   0.428  0.3558 -0.1057 -0.7564
10418TIP3    H152669   5.131   4.400   0.510  1.3082 -0.0103 -0.2242
10418TIP3    H252670   5.224   4.461   0.407 -0.3736  0.0795 -1.7510
10419TIP3   OH252671   0.630   2.758  14.826 -0.4747  0.0837  0.3667
10419TIP3    H152672   0.583   2.691  14.776  0.7122 -0.1359 -0.4941
10419TIP3    H252673   0.605   2.841  14.784  0.0794 -0.0513 -0.2364
10420TIP3   OH252674   2.959   3.029   3.942  0.5314  0.4963  0.3395
10420TIP3    H152675   2.937   2.954   3.887  2.2360 -1.5454  2.2427
10420TIP3    H252676   2.928   3.105   3.892 -1.9833 -1.4487 -1.3544
10421TIP3   OH252677   0.910   4.292  11.677 -0.1247  0.4104 -0.2485
10421TIP3    H152678   0.931   4.276  11.585  2.0204 -1.2845  0.4570
10421TIP3    H252679   0.977   4.353  11.707  0.5490 -0.7417  0.6833
10422TIP3   OH252680   0.828   4.067   4.657  0.5045  0.2195  0.0399
10422TIP3    H152681   0.733   4.062   4.663  0.4372  0.4347 -0.8386
10422TIP3    H252682   0.858   4.038   4.744 -0.3774  0.9962  0.6269
10423TIP3   OH252683   0.250   2.674  16.178  0.3168  0.3181  0.6570
10423TIP3    H152684   0.334   2.687  16.134  0.6448 -0.5449  1.0217
10423TIP3    H252685   0.185   2.707  16.115  0.9299  1.2580  0.4928
10424TIP3   OH252686   5.419   3.589  11.820 -0.4914 -0.6286 -0.6897
10424TIP3    H152687   5.401   3.532  11.895  2.5837 -0.2226  0.5185
10424TIP3    H252688   5.361   3.664  11.832 -0.8042 -1.0632  0.7381
10425TIP3   OH252689   4.873   0.784   6.175 -0.2522 -0.2378  0.1214
10425TIP3    H152690   4.816   0.755   6.246 -0.0807 -1.8176 -0.3480
10425TIP3    H252691   4.937   0.714   6.165 -0.3262 -0.1159 -1.6450
10426TIP3   OH252692   3.098   5.562  12.683  0.0482 -0.0617  0.6381
10426TIP3    H152693   3.171   5.623  12.689 -0.7193  1.2634 -1.9442
10426TIP3    H252694   3.022   5.617  12.661 -0.6086 -1.8575 -2.2073
10427TIP3   OH252695   0.094   2.076   5.988 -0.5807 -0.0241  0.3978
10427TIP3    H152696   0.043   1.995   5.989 -0.6045 -0.0022  1.4059
10427TIP3    H252697   0.030   2.145   6.001 -0.6363  0.2182 -1.0348
10428TIP3   OH252698   2.484   0.245  13.094  0.7190 -1.0211  0.5354
10428TIP3    H152699   2.405   0.298  13.085  2.0483  0.7557 -1.5340
10428TIP3    H252700   2.545   0.301  13.142  1.4614 -1.5159  0.1804
10429TIP3   OH252701   6.279   4.536  12.626 -0.5351  0.0868  0.2249
10429TIP3    H152702   6.317   4.481  12.557  1.1926 -0.4918  1.5587
10429TIP3    H252703   6.281   4.624  12.590 -1.9631 -0.4890 -1.3835
10430TIP3   OH252704   2.158   2.199   5.094  0.2025  0.3702  0.0577
10430TIP3    H152705   2.229   2.144   5.127  0.7607 -0.8877 -2.9389
10430TIP3    H252706   2.079   2.165   5.137  0.9910 -0.3737  0.9555
10431TIP3   OH252707   4.889   0.131  12.373 -0.2827  0.1008  0.3161
10431TIP3    H152708   4.798   0.127  12.404 -0.5555  0.8016 -0.3549
10431TIP3    H252709   4.936   0.070  12.429 -1.0034  0.3801  1.2461
10432TIP3   OH252710   4.238   4.107  10.600  0.1104 -0.6897  0.3905
10432TIP3    H152711   4.292   4.184  10.581 -0.4800 -0.8433 -2.4482
10432TIP3    H252712   4.200   4.124  10.686  0.9681  1.6298  0.3742
10433TIP3   OH252713   3.663   5.014   2.822 -0.2868  0.0552 -0.0331
10433TIP3    H152714   3.653   5.104   2.851  0.0229  0.8108 -2.1618
10433TIP3    H252715   3.655   5.017   2.727  1.7669 -1.8721 -0.3565
10434TIP3   OH252716   3.897   3.727  10.993 -0.3906  0.2107 -0.1422
10434TIP3    H152717   3.818   3.713  10.942  0.8199 -0.7273 -1.8594
10434TIP3    H252718   3.942   3.799  10.949  0.1675  0.1168  0.2528
10435TIP3   OH252719   5.510   6.390   5.024 -0.0834 -0.2571  0.5672
10435TIP3    H152720   5.511   6.458   5.091  1.8829 -1.9587  2.4565
10435TIP3    H252721   5.421   6.354   5.027 -0.6655  1.1619  0.6634
10436TIP3   OH252722   2.004   2.495   2.444 -0.4792 -0.2002  0.2781
10436TIP3    H152723   1.972   2.523   2.358  0.2663  1.7993  0.6120
10436TIP3    H252724   2.026   2.576   2.489  0.0995 -1.2696  2.0013
10437TIP3   OH252725   3.106   2.059   5.587 -0.0471  0.4098  0.2646
10437TIP3    H152726   3.187   2.033   5.631  0.9354 -1.3149 -2.2846
10437TIP3    H252727   3.118   2.153   5.569  0.6279  0.5547  1.3734
10438TIP3   OH252728   3.400   3.088  15.421  0.2391  0.1827  0.1329
10438TIP3    H152729   3.410   3.131  15.336 -0.6533  0.2501  0.0496
10438TIP3    H252730   3.352   3.007  15.401  0.4208 -0.0210  0.5102
10439TIP3   OH252731   5.812   4.798  13.578  0.2453  0.3820 -0.6355
10439TIP3    H152732   5.865   4.761  13.649 -2.0974 -0.5741  0.7530
10439TIP3    H252733   5.774   4.721  13.534  0.9679  0.9996 -2.3806
10440TIP3   OH252734   5.206   0.009   4.840  0.2639 -0.1519 -0.5955
10440TIP3    H152735   5.139   0.077   4.832  0.8031  0.3498 -1.0468
10440TIP3    H252736   5.194  -0.028   4.927 -0.3780  0.1663 -0.5462
10441TIP3   OH252737   2.092   2.145  10.699  0.1520 -0.1689  0.3563
10441TIP3    H152738   2.003   2.119  10.721 -0.0384  0.5234  0.4467
10441TIP3    H252739   2.085   2.182  10.611  0.2387  0.3725  0.5666
10442TIP3   OH252740   0.643   6.053  12.306  0.5432 -0.2173 -0.0658
10442TIP3    H152741   0.613   6.001  12.381 -1.7078  0.7931 -0.1688
10442TIP3    H252742   0.601   6.138  12.318  0.7409  0.2083 -2.0824
10443TIP3   OH252743   4.245   2.476  13.107  0.1570 -0.3118  0.2997
10443TIP3    H152744   4.307   2.499  13.177  0.1162 -0.1728  0.2901
10443TIP3    H252745   4.212   2.560  13.075  0.4596 -0.3550 -0.1411
10444TIP3   OH252746   0.310   5.261  13.462  0.2124 -0.1699 -0.4935
10444TIP3    H152747   0.320   5.342  13.512 -0.8143  0.2472 -0.9575
10444TIP3    H252748   0.370   5.271  13.388  0.1840  0.1076 -0.4803
10445TIP3   OH252749   4.897   4.868   4.204 -0.3931  0.2209 -0.6101
10445TIP3    H152750   4.837   4.827   4.266  0.8055  2.0167  1.9333
10445TIP3    H252751   4.981   4.825   4.220  0.0917  1.2087 -0.3699
10446TIP3   OH252752   0.757   4.298   4.957 -0.3035 -0.3783 -0.1440
10446TIP3    H152753   0.669   4.307   4.921 -0.7776  0.8030  1.2298
10446TIP3    H252754   0.775   4.204   4.954 -0.9275 -0.4887 -1.9439
10447TIP3   OH252755   3.958   1.600  12.716  0.0527 -0.3009 -0.1163
10447TIP3    H152756   3.872   1.558  12.713 -0.1355  0.0804 -0.1102
10447TIP3    H252757   3.942   1.684  12.760  0.6596 -0.7958  1.0943
10448TIP3   OH252758   3.450   3.326   2.860 -0.2932  0.4678 -0.2238
10448TIP3    H152759   3.544   3.307   2.864 -0.5318 -1.0970 -1.0898
10448TIP3    H252760   3.437   3.399   2.921  1.6924  1.6525 -1.1289
10449TIP3   OH252761   3.996   6.426   2.229  0.3073 -0.3671 -0.2538
10449TIP3    H152762   3.926   6.394   2.172 -1.2382 -0.2230  1.4776
10449TIP3    H252763   4.071   6.370   2.208 -1.2366 -2.7300  0.0450
10450TIP3   OH252764   5.008   6.685   1.907 -0.8382 -0.2945  0.6320
10450TIP3    H152765   5.087   6.697   1.855 -0.6214 -1.1481  0.7534
10450TIP3    H252766   4.989   6.591   1.901 -1.6767 -0.1489  0.8416
10451TIP3   OH252767   1.472   3.970  13.657 -0.2456 -0.3211  0.6749
10451TIP3    H152768   1.426   4.017  13.727 -1.7604 -0.2925 -0.2937
10451TIP3    H252769   1.564   3.976  13.681 -0.3692  2.9110  0.7865
10452TIP3   OH252770   3.002   5.006  16.441  0.5213 -0.1599 -0.3023
10452TIP3    H152771   2.935   4.955  16.486  0.5205  0.3951  0.3404
10452TIP3    H252772   3.076   4.946  16.431  0.7075 -0.1449  0.8890
10453TIP3   OH252773   4.939   3.118  15.655  0.0327  0.0154 -0.3882
10453TIP3    H152774   4.907   3.197  15.699 -0.3197 -1.7551  2.8920
10453TIP3    H252775   4.861   3.079  15.616  0.2480  1.2975 -2.2455
10454TIP3   OH252776   5.352   2.232  11.343 -0.0666 -0.1416  0.1301
10454TIP3    H152777   5.404   2.213  11.265 -1.1690 -1.0901 -0.4118
10454TIP3    H252778   5.263   2.246  11.310 -0.0787  2.1048  0.9611
10455TIP3   OH252779   4.805   6.691  17.141 -0.0591  0.0482  0.2630
10455TIP3    H152780   4.741   6.762  17.140 -1.0448 -0.6059  3.5961
10455TIP3    H252781   4.836   6.689  17.232  1.1830 -2.7012 -0.1427
10456TIP3   OH252782   0.863   0.430   5.301 -0.1653 -0.0068  0.1747
10456TIP3    H152783   0.892   0.521   5.300 -3.0002  1.0389 -2.6159
10456TIP3    H252784   0.831   0.416   5.390 -3.1015  3.0389 -0.2059
10457TIP3   OH252785   1.050   6.474   2.111  0.4002  0.3414 -0.0580
10457TIP3    H152786   0.985   6.508   2.172  0.7237  3.6925 -1.3610
10457TIP3    H252787   1.134   6.494   2.151  0.6357 -0.0683 -0.3371
10458TIP3   OH252788   2.522   5.662  12.259  0.1542 -0.4424 -0.0999
10458TIP3    H152789   2.615   5.655  12.283  0.0676 -0.1143  0.3379
10458TIP3    H252790   2.520   5.727  12.189 -0.0108  1.4196  1.5506
10459TIP3   OH252791   1.391   2.921   2.026  0.2137  0.1269 -0.0788
10459TIP3    H152792   1.435   2.858   1.969 -0.3344  2.1536 -2.9662
10459TIP3    H252793   1.298   2.897   2.019 -0.0170  1.2811 -1.3466
10460TIP3   OH252794   3.203   6.243  11.902  0.4475  0.3129  0.0137
10460TIP3    H152795   3.197   6.256  11.807 -0.3758 -0.2997 -0.0297
10460TIP3    H252796   3.202   6.148  11.914  1.2060  0.3660  0.6092
10461TIP3   OH252797   1.131   0.312   3.059 -0.0847  0.1889 -0.2407
10461TIP3    H152798   1.092   0.382   3.006 -0.0540  0.7380  0.4506
10461TIP3    H252799   1.072   0.238   3.048  0.1922  0.1318 -1.4440
10462TIP3   OH252800   1.139   2.375  13.590  0.3475  0.2890  0.0607
10462TIP3    H152801   1.197   2.405  13.659  0.2992 -1.6698  1.0102
10462TIP3    H252802   1.061   2.344  13.635 -0.1781  0.0693 -0.9540
10463TIP3   OH252803   6.598   5.762   4.980 -0.0811  0.4415  0.4288
10463TIP3    H152804   6.552   5.828   4.928 -1.2300 -0.8000 -0.1948
10463TIP3    H252805   6.681   5.803   5.002  0.8411  0.7943 -3.0515
10464TIP3   OH252806   0.279   1.025   4.768 -0.1049  0.1601  0.4990
10464TIP3    H152807   0.261   0.984   4.683 -0.9047  0.4763  0.5097
10464TIP3    H252808   0.292   0.952   4.828 -0.1884 -0.0673  0.2414
10465TIP3   OH252809   4.928   6.378  16.277  0.4237  0.8972 -0.4454
10465TIP3    H152810   4.915   6.297  16.228 -1.0938  0.2013  1.0064
10465TIP3    H252811   5.017   6.405  16.255  0.8701 -1.0051 -1.2003
10466TIP3   OH252812   3.413   5.240   4.778  0.1865  0.1067 -0.1933
10466TIP3    H152813   3.358   5.168   4.810  1.1467 -0.4604  0.2334
10466TIP3    H252814   3.486   5.196   4.734  0.8403  0.8217  0.1556
10467TIP3   OH252815   3.809   1.887  15.521 -0.1571 -0.6543  0.3542
10467TIP3    H152816   3.841   1.949  15.586 -1.0227  0.9912 -0.6864
10467TIP3    H252817   3.714   1.887  15.532 -0.2939 -0.5848 -0.6808
10468TIP3   OH252818   0.890   5.693  11.304 -0.5048  0.4061  0.2556
10468TIP3    H152819   0.821   5.642  11.262  1.1729 -0.4654 -1.6542
10468TIP3    H252820   0.866   5.696  11.397 -2.1914 -1.3306 -0.0790
10469TIP3   OH252821   1.572   5.237  13.601  0.2900 -0.0076 -0.0857
10469TIP3    H152822   1.656   5.195  13.583 -1.5509 -4.6299  0.6471
10469TIP3    H252823   1.532   5.182  13.669 -2.4763  3.2434  1.1984
10470TIP3   OH252824   3.407   2.184  14.035  0.3766 -0.2278 -0.0856
10470TIP3    H152825   3.466   2.223  14.100  1.2040 -2.8772  0.9280
10470TIP3    H252826   3.322   2.224  14.052  0.9355  0.3667  1.5375
10471TIP3   OH252827   5.035   1.003   2.745 -1.0102  0.6291 -0.2620
10471TIP3    H152828   5.021   0.935   2.679  0.0721  0.1366 -0.0110
10471TIP3    H252829   5.039   1.085   2.695 -1.0489  0.3608 -0.7048
10472TIP3   OH252830   4.894   3.102  12.774  0.2658 -0.5316  0.3938
10472TIP3    H152831   4.835   3.123  12.701  1.4669 -0.1352 -0.4993
10472TIP3    H252832   4.964   3.052  12.734  0.9957 -0.2258  1.2646
10473TIP3   OH252833   2.410   4.068  14.563  0.1132 -0.2772  0.5631
10473TIP3    H152834   2.461   3.997  14.524  0.6414 -0.1077  0.9462
10473TIP3    H252835   2.332   4.075  14.507  1.2512  0.5302 -0.9992
10474TIP3   OH252836   6.769   1.929   5.638  0.4761 -0.2610  0.2704
10474TIP3    H152837   6.823   1.901   5.564  1.4577  1.0667  0.4495
10474TIP3    H252838   6.773   1.855   5.700 -0.5575 -1.4866 -1.0676
10475TIP3   OH252839   1.210   1.153   5.447 -0.0103 -0.0390 -0.2506
10475TIP3    H152840   1.210   1.232   5.501 -1.1579 -0.8267  0.9717
10475TIP3    H252841   1.297   1.116   5.460  0.5169  0.9635 -0.7778
10476TIP3   OH252842   5.795   5.631   2.243  0.2964  0.2643 -0.0691
10476TIP3    H152843   5.784   5.653   2.335 -2.1760 -2.5255  0.4706
10476TIP3    H252844   5.739   5.693   2.197  1.1615  1.3571  0.3037
10477TIP3   OH252845   1.747   6.085  15.957 -0.3779  0.3317 -0.1336
10477TIP3    H152846   1.796   6.165  15.936  0.9726 -0.1534  1.0780
10477TIP3    H252847   1.689   6.110  16.029 -1.3388  0.6819 -1.0022
10478TIP3   OH252848   2.991   1.436  15.629 -0.2377 -0.1044 -0.1576
10478TIP3    H152849   3.078   1.415  15.596 -0.1441 -1.3369  0.8053
10478TIP3    H252850   2.931   1.392  15.570 -0.0727 -2.2698  1.1624
10479TIP3   OH252851   6.365   5.982  13.371 -0.2120 -0.1061  0.1977
10479TIP3    H152852   6.364   6.019  13.459 -0.0399 -0.8672  0.5284
10479TIP3    H252853   6.418   5.903  13.379 -1.7513 -1.2239 -0.1549
10480TIP3   OH252854   4.798   1.782  15.337 -0.2217 -0.1659 -0.0538
10480TIP3    H152855   4.865   1.792  15.405  0.8047 -0.3204 -0.9975
10480TIP3    H252856   4.717   1.766  15.384  0.2126  1.0794  1.1578
10481TIP3   OH252857   5.856   1.414  13.660  0.1502 -1.0195  0.8551
10481TIP3    H152858   5.940   1.411  13.706 -0.6548 -1.6879  2.3897
10481TIP3    H252859   5.832   1.507  13.660  1.2088 -0.7285 -0.2528
10482TIP3   OH252860   4.474   0.139   1.743  0.4585  0.8718 -0.1948
10482TIP3    H152861   4.399   0.081   1.758  0.7291  0.2312 -1.2412
10482TIP3    H252862   4.550   0.088   1.769  0.6230  1.1417 -0.1413
10483TIP3   OH252863   3.715   5.759  14.163  0.0948 -0.1416  0.0025
10483TIP3    H152864   3.788   5.785  14.220  0.3161 -0.8435  0.0519
10483TIP3    H252865   3.654   5.715  14.222  0.1926 -0.6197 -0.2485
10484TIP3   OH252866   3.817   3.064  12.653  0.4584  0.0441  0.1326
10484TIP3    H152867   3.812   2.970  12.637 -1.7767  0.3393 -1.3916
10484TIP3    H252868   3.908   3.086  12.635  0.7223 -1.6253 -0.8650
10485TIP3   OH252869   3.017   0.494  11.039  0.4133  0.3602 -0.0593
10485TIP3    H152870   3.046   0.403  11.029  2.5469  0.8940  0.6522
10485TIP3    H252871   2.923   0.491  11.023  0.3034 -2.0803  0.5647
10486TIP3   OH252872   3.797   2.539   1.361 -0.1894  0.0735 -0.5282
10486TIP3    H152873   3.731   2.545   1.429  0.8678  0.9780  0.4650
10486TIP3    H252874   3.822   2.447   1.359 -1.8319 -0.3866 -1.3025
10487TIP3   OH252875   3.049   5.969  12.112 -0.1231  0.2861  0.9174
10487TIP3    H152876   3.004   5.974  12.028  0.4121  1.5669  0.6809
10487TIP3    H252877   3.117   5.903  12.099  0.9555  1.5531 -0.1862
10488TIP3   OH252878   2.936   3.524   1.918  0.5024  0.5216  0.1634
10488TIP3    H152879   2.860   3.497   1.866 -1.2085  1.7013  1.9140
10488TIP3    H252880   3.001   3.551   1.853 -1.6044  2.1370 -1.4135
10489TIP3   OH252881   2.810   0.276  11.752 -0.1932 -0.4751  0.5220
10489TIP3    H152882   2.731   0.328  11.764  0.9681  1.1826  1.3180
10489TIP3    H252883   2.805   0.245  11.662 -0.8550  1.1644 -0.0457
10490TIP3   OH252884   3.784   1.391   5.732 -0.1339  0.0697  0.3402
10490TIP3    H152885   3.863   1.430   5.692  1.3684 -1.5223  1.6192
10490TIP3    H252886   3.793   1.297   5.716 -2.4019 -0.0562 -0.4777
10491TIP3   OH252887   4.652   3.471  11.741 -0.2038  0.2518 -0.5990
10491TIP3    H152888   4.602   3.530  11.797 -0.5994  0.7561 -1.4664
10491TIP3    H252889   4.643   3.385  11.783 -1.2721  0.4465 -0.3924
10492TIP3   OH252890   1.410   3.145  12.203  0.2893  0.0566  0.2803
10492TIP3    H152891   1.485   3.094  12.171 -0.1364 -0.4832  0.1283
10492TIP3    H252892   1.427   3.157  12.296 -0.3917 -1.8039  0.6933
10493TIP3   OH252893   2.140   5.803   4.871 -0.4603  0.5287 -0.0197
10493TIP3    H152894   2.118   5.763   4.955 -0.5785  3.2138  1.3234
10493TIP3    H252895   2.232   5.779   4.857 -0.7848 -0.9674  0.1961
10494TIP3   OH252896   4.246   2.640  12.694  0.4480 -0.3137 -0.0359
10494TIP3    H152897   4.193   2.600  12.624  2.3798  0.5807 -2.1370
10494TIP3    H252898   4.317   2.578  12.709  0.4437 -0.1652  0.6466
10495TIP3   OH252899   4.562   1.732  16.059 -0.0112 -0.4026 -0.1036
10495TIP3    H152900   4.527   1.741  15.970  2.5157 -0.1191 -1.1602
10495TIP3    H252901   4.593   1.642  16.063  0.3568 -0.2620  0.2915
10496TIP3   OH252902   2.395   5.231   6.181  0.5393 -0.1656  0.1222
10496TIP3    H152903   2.410   5.310   6.234  0.0405 -0.7855  1.2164
10496TIP3    H252904   2.323   5.186   6.225  0.4598 -0.9727 -0.8042
10497TIP3   OH252905   0.779   3.473  14.280 -0.0751  0.4071  0.7350
10497TIP3    H152906   0.750   3.461  14.189 -0.3957  1.9653  0.5993
10497TIP3    H252907   0.699   3.472  14.331  0.0454  0.2275  0.9220
10498TIP3   OH252908   2.789   1.313   2.874  0.3642  1.2223  0.3590
10498TIP3    H152909   2.828   1.251   2.813  0.0285  1.6095 -0.2609
10498TIP3    H252910   2.828   1.397   2.851  0.4026  1.3331  0.8260
10499TIP3   OH252911   2.136   6.326  11.056 -0.0006  0.7809  0.0773
10499TIP3    H152912   2.082   6.270  11.000  0.1817 -0.4671  1.1009
10499TIP3    H252913   2.153   6.404  11.003  1.0622 -0.7770 -2.0144
10500TIP3   OH252914   6.448   4.938   2.281  0.2071 -0.2664  0.2846
10500TIP3    H152915   6.490   5.001   2.222  0.5723 -1.2118 -0.4981
10500TIP3    H252916   6.392   4.886   2.225 -0.8079 -0.0633  1.0785
10501TIP3   OH252917   6.712   2.536  13.373  0.0575 -0.1455 -0.2797
10501TIP3    H152918   6.764   2.616  13.374 -0.3422  0.1226  1.5793
10501TIP3    H252919   6.733   2.492  13.455  0.2575 -1.9770 -1.2402
10502TIP3   OH252920   5.030   5.881  11.691 -0.0703  0.1372 -0.0474
10502TIP3    H152921   4.944   5.855  11.658 -0.3882  0.1089  0.7757
10502TIP3    H252922   5.052   5.959  11.641 -0.5660  0.1299 -0.2826
10503TIP3   OH252923   2.255   3.866  13.483  0.5235 -0.7424  0.1274
10503TIP3    H152924   2.267   3.924  13.558  4.1176 -2.3313  0.9507
10503TIP3    H252925   2.258   3.926  13.407  1.7648  0.4399  1.0504
10504TIP3   OH252926   6.456   2.056   1.289  0.0587 -0.2711  0.0291
10504TIP3    H152927   6.503   2.021   1.213  0.7368 -0.0387  0.3348
10504TIP3    H252928   6.377   2.095   1.251 -0.0887 -1.0076 -0.4480
10505TIP3   OH252929   3.063   3.486   5.831 -0.1979  0.8317 -0.1214
10505TIP3    H152930   3.103   3.532   5.757  0.1047 -0.4213 -0.7700
10505TIP3    H252931   3.131   3.484   5.898  0.7947 -1.0097 -1.1020
10506TIP3   OH252932   1.823   2.067   1.128 -0.8471  0.1131 -0.2046
10506TIP3    H152933   1.736   2.063   1.087 -1.4829  1.9424  0.8621
10506TIP3    H252934   1.867   2.140   1.083 -0.0513 -0.4626 -0.3741
10507TIP3   OH252935   5.643   4.425  12.725  0.6586  0.0732  0.4363
10507TIP3    H152936   5.659   4.518  12.707  1.2160 -0.1314 -0.1486
10507TIP3    H252937   5.675   4.380  12.647 -0.8644 -0.5260  0.1284
10508TIP3   OH252938   5.089   1.872  15.202  0.4806 -0.2578  0.0360
10508TIP3    H152939   5.123   1.878  15.291  0.7368  1.2598 -0.1240
10508TIP3    H252940   5.009   1.926  15.203  0.2228 -0.6157 -0.5353
10509TIP3   OH252941   4.470   2.271   4.316  0.4874  0.0789  0.5553
10509TIP3    H152942   4.508   2.189   4.287 -0.9473 -0.6480  0.6276
10509TIP3    H252943   4.430   2.250   4.401 -0.1542  0.7591  0.4328
10510TIP3   OH252944   1.576   2.105  12.811 -0.0644  0.5174  0.7025
10510TIP3    H152945   1.664   2.123  12.778 -0.3110  2.3100  0.8992
10510TIP3    H252946   1.517   2.134  12.741 -0.5230  1.0107  1.2783
10511TIP3   OH252947   2.190   0.829   1.290  0.0136  0.3190 -0.0591
10511TIP3    H152948   2.176   0.906   1.345  0.7854  0.6756 -0.3508
10511TIP3    H252949   2.106   0.816   1.245 -0.6145  0.0371  1.1716
10512TIP3   OH252950   2.479   4.239   4.499 -0.0614 -0.1833 -0.8578
10512TIP3    H152951   2.477   4.145   4.483 -0.1374 -0.4914  0.8181
10512TIP3    H252952   2.533   4.249   4.578  0.1139  1.1967 -1.1264
10513TIP3   OH252953   1.677   4.168  12.873  0.3770 -0.0747  0.4020
10513TIP3    H152954   1.612   4.115  12.919  0.1682 -0.8851 -0.7795
10513TIP3    H252955   1.760   4.146  12.916  0.2333 -1.0602  0.2030
10514TIP3   OH252956   2.093   0.582   1.431 -0.5942 -0.0008 -0.5227
10514TIP3    H152957   2.157   0.633   1.382  0.5783 -0.0922  0.8463
10514TIP3    H252958   2.086   0.627   1.515 -2.2752 -0.0560 -0.5892
10515TIP3   OH252959   4.458   0.063  11.899  0.1118 -0.1762  0.0385
10515TIP3    H152960   4.543   0.022  11.879  0.8788  1.0624  0.6258
10515TIP3    H252961   4.475   0.118  11.975 -1.0454  0.6565 -0.2728
10516TIP3   OH252962   0.539   4.613  12.828  0.1820 -0.3152  0.2022
10516TIP3    H152963   0.545   4.674  12.754  2.7322 -3.4020 -2.4549
10516TIP3    H252964   0.628   4.609  12.862 -0.7247  0.1801  2.8287
10517TIP3   OH252965   2.044   2.050   2.302  0.0081 -0.0676 -0.1244
10517TIP3    H152966   2.099   2.041   2.379 -0.8179  2.2815  0.8428
10517TIP3    H252967   1.983   2.121   2.324 -0.3585  0.5973 -2.8793
10518TIP3   OH252968   5.228   6.626  14.552 -1.1383  0.9551  0.2195
10518TIP3    H152969   5.313   6.598  14.519 -0.3930  1.7172  1.4102
10518TIP3    H252970   5.165   6.600  14.484 -0.1389 -0.8565 -0.0583
10519TIP3   OH252971   0.841   6.749   1.885 -0.0947 -0.6660 -0.2574
10519TIP3    H152972   0.779   6.822   1.884  0.3702 -0.2727 -0.9000
10519TIP3    H252973   0.785   6.671   1.884 -0.5846 -0.3217 -1.4634
10520TIP3   OH252974   0.827   0.020  16.425  0.2527  0.0593 -0.3863
10520TIP3    H152975   0.857   0.003  16.335  0.5148  0.6466 -0.4151
10520TIP3    H252976   0.807   0.113  16.426 -0.2837 -0.0546  0.0197
10521TIP3   OH252977   3.191   5.386   5.255 -0.0800 -0.0891 -0.1731
10521TIP3    H152978   3.180   5.374   5.160  0.1923 -1.8149 -0.0230
10521TIP3    H252979   3.140   5.464   5.275 -0.7500 -0.1098 -1.6349
10522TIP3   OH252980   6.150   6.582   3.762 -0.0592  0.0085  0.5900
10522TIP3    H152981   6.239   6.598   3.730  0.1905 -1.5113  0.4382
10522TIP3    H252982   6.149   6.489   3.783 -1.4468  0.1342  1.1673
10523TIP3   OH252983   4.400   4.287   4.969 -0.8922 -0.7332 -0.2716
10523TIP3    H152984   4.460   4.234   4.917  1.3949  1.5765 -0.1933
10523TIP3    H252985   4.327   4.306   4.910 -0.6793 -2.0539 -1.0011
10524TIP3   OH252986   1.313   5.240  15.062 -0.1637 -0.1886  0.1715
10524TIP3    H152987   1.348   5.201  15.142  1.0040  2.2930  0.9447
10524TIP3    H252988   1.390   5.259  15.008 -0.6269  1.3134 -0.0128
10525TIP3   OH252989   4.177   6.736  15.910 -0.7666  0.7944  0.4290
10525TIP3    H152990   4.217   6.770  15.991 -0.9230 -0.6533  1.1465
10525TIP3    H252991   4.189   6.641  15.916 -3.8097  0.3281  0.4060
10526TIP3   OH252992   0.937   3.424   0.112  0.0663  0.4524 -1.0000
10526TIP3    H152993   0.910   3.488   0.047 -2.1538  2.5438  1.7577
10526TIP3    H252994   0.867   3.359   0.112  0.4324  0.0514 -1.1806
10527TIP3   OH252995   5.010   1.239  17.212  0.2826 -0.4773  0.1673
10527TIP3    H152996   5.011   1.265  17.304 -0.4011  1.2313 -0.2670
10527TIP3    H252997   5.071   1.166  17.207 -1.0611 -1.8844  2.3344
10528TIP3   OH252998   4.854   1.850  11.861 -0.4629 -0.0467 -0.3674
10528TIP3    H152999   4.785   1.818  11.920  0.5343  1.0373  1.4494
10528TIP3    H253000   4.879   1.773  11.811 -2.6349 -0.5859 -0.7423
10529TIP3   OH253001   1.034   5.606   3.012 -0.0114  0.3199 -0.0256
10529TIP3    H153002   1.080   5.532   2.973 -1.9094 -0.8578 -0.1916
10529TIP3    H253003   1.059   5.604   3.105  0.5052 -0.0799 -0.1684
10530TIP3   OH253004   4.738   2.256   0.412 -0.0551  0.2028 -0.3965
10530TIP3    H153005   4.784   2.338   0.429 -0.0061  0.0101  0.4288
10530TIP3    H253006   4.646   2.277   0.426  0.1345 -0.5613  2.8984
10531TIP3   OH253007   6.370   2.141  11.378  0.8468 -0.2080 -0.1394
10531TIP3    H153008   6.355   2.168  11.468  1.2405 -0.0404 -0.1191
10531TIP3    H253009   6.381   2.224  11.330  0.1229 -0.2804 -0.4352
10532TIP3   OH253010   1.994   6.476   0.530 -0.7881  0.0489  0.2046
10532TIP3    H153011   2.021   6.565   0.554  0.7013  0.3115 -2.0600
10532TIP3    H253012   1.923   6.489   0.467  0.6651 -0.2224 -1.5614
10533TIP3   OH253013   3.639   5.233  15.607  0.4991 -0.2067  0.5136
10533TIP3    H153014   3.669   5.268  15.691  1.5941 -0.8820  0.4288
10533TIP3    H253015   3.716   5.239  15.550  0.0131 -0.5386 -0.1931
10534TIP3   OH253016   6.005   6.553  15.309  0.5699 -0.1220 -0.0060
10534TIP3    H153017   6.088   6.517  15.278  0.6542 -0.0299  0.1096
10534TIP3    H253018   6.021   6.648  15.315 -0.5916  0.4150 -3.3011
10535TIP3   OH253019   4.567   0.194   4.312  0.0690  0.7988  0.2856
10535TIP3    H153020   4.620   0.248   4.370  1.0398  0.7321 -0.5115
10535TIP3    H253021   4.629   0.133   4.272 -0.9453 -0.7043  0.9134
10536TIP3   OH253022   2.773   0.134  11.466  0.1792  0.0754  0.1415
10536TIP3    H153023   2.716   0.061  11.441 -0.8728  1.3302 -1.3926
10536TIP3    H253024   2.856   0.094  11.491 -0.4317 -1.6400 -0.4816
10537TIP3   OH253025   6.406   6.453   1.499 -0.3434 -0.4774  0.7656
10537TIP3    H153026   6.424   6.405   1.419 -2.6744  0.3380 -0.3561
10537TIP3    H253027   6.343   6.399   1.546 -0.4528 -0.0581  1.1092
10538TIP3   OH253028   5.195   2.764  13.897 -0.3280 -0.5321  0.7161
10538TIP3    H153029   5.112   2.721  13.879  0.6359 -1.6964 -1.2584
10538TIP3    H253030   5.184   2.854  13.865 -0.6830 -0.8048  0.0685
10539TIP3   OH253031   6.095   2.833   0.141  0.4875  0.3045 -0.0744
10539TIP3    H153032   6.142   2.899   0.090 -2.7929  2.2001 -0.9789
10539TIP3    H253033   6.040   2.787   0.077 -2.2867  1.4095  1.3251
10540TIP3   OH253034   0.890   2.791  11.543 -0.1966 -0.1069  0.3522
10540TIP3    H153035   0.798   2.787  11.569 -0.1966  3.4608  1.4276
10540TIP3    H253036   0.905   2.883  11.523  2.6820 -0.9116 -1.8325
10541TIP3   OH253037   2.935   4.197   2.404 -0.0688 -0.2859 -0.5327
10541TIP3    H153038   2.923   4.259   2.332  0.2382  1.3862  0.7909
10541TIP3    H253039   3.030   4.189   2.413 -0.0668  0.7110  0.6153
10542TIP3   OH253040   5.997   1.081  15.794 -0.1906  0.6691  0.1364
10542TIP3    H153041   5.910   1.116  15.810  0.1115  1.4660  0.1110
10542TIP3    H253042   6.026   1.126  15.715 -0.1536 -0.3488 -0.4398
10543TIP3   OH253043   3.740   0.104   1.134  0.4641 -0.2087  0.3816
10543TIP3    H153044   3.690   0.144   1.206  0.0557 -0.0335  0.0102
10543TIP3    H253045   3.828   0.093   1.169 -0.1809 -1.9988  1.6132
10544TIP3   OH253046   6.388   5.231  16.371 -0.2143  0.3379  0.3277
10544TIP3    H153047   6.428   5.176  16.303 -2.0219  0.1771 -0.6702
10544TIP3    H253048   6.422   5.196  16.453  1.0227 -0.2950 -0.4213
10545TIP3   OH253049   0.929   2.886  12.085 -0.6703 -0.0322  0.7434
10545TIP3    H153050   0.881   2.951  12.137  0.0573  0.9025  0.2834
10545TIP3    H253051   0.911   2.910  11.994  2.2981  1.6908  0.4986
10546TIP3   OH253052   2.055   5.512  12.767 -0.6285 -0.8116  0.3970
10546TIP3    H153053   2.083   5.421  12.774 -0.5981 -0.7671  0.8833
10546TIP3    H253054   2.106   5.547  12.694 -0.0936 -0.9880  0.6779
10547TIP3   OH253055   0.331   0.230  12.596  0.4681  0.1227 -0.2101
10547TIP3    H153056   0.259   0.177  12.630 -0.2924  2.1170  1.5529
10547TIP3    H253057   0.385   0.169  12.547 -2.2813 -1.5370 -1.4355
10548TIP3   OH253058   5.006   5.550  12.365 -0.4411  0.3587  0.3384
10548TIP3    H153059   4.956   5.589  12.436 -1.2822  0.6342 -0.3784
10548TIP3    H253060   5.081   5.608  12.353 -1.0309  1.0879  0.0901
10549TIP3   OH253061   0.622   5.696   5.349 -0.5736  0.2595  0.4004
10549TIP3    H153062   0.605   5.633   5.278  0.0951 -0.1682  0.6168
10549TIP3    H253063   0.543   5.750   5.351  0.4414  2.1357 -2.5577
10550TIP3   OH253064   0.963   4.598  11.426  0.5033  0.0887  0.6005
10550TIP3    H153065   0.894   4.640  11.478  0.6379  1.0704  0.0168
10550TIP3    H253066   1.033   4.581  11.488  0.6302  1.1727  0.7786
10551TIP3   OH253067   4.221   6.604  14.921  0.4101  0.1273 -0.1072
10551TIP3    H153068   4.286   6.597  14.851  1.6396  4.5826  0.2812
10551TIP3    H253069   4.145   6.642  14.879  0.4559  1.0198  0.6006
10552TIP3   OH253070   4.197   2.511   1.289  0.0846  0.1928  0.3630
10552TIP3    H153071   4.282   2.525   1.330  1.0310 -0.4753 -1.3071
10552TIP3    H253072   4.176   2.595   1.247  0.2103  0.1617  0.2395
10553TIP3   OH253073   5.547   5.682   0.707  0.0053 -0.1330 -0.2175
10553TIP3    H153074   5.523   5.757   0.653  1.6905 -0.1176 -1.0310
10553TIP3    H253075   5.465   5.650   0.743 -0.7347  2.2057  0.3046
10554TIP3   OH253076   0.667   1.148   3.308 -0.0228 -0.6735  0.2144
10554TIP3    H153077   0.681   1.123   3.400 -2.0464 -0.5763  0.6026
10554TIP3    H253078   0.593   1.209   3.311  0.1823 -0.2889 -1.4560
10555TIP3   OH253079   0.012   4.840  13.451 -0.5779  0.3961 -0.6835
10555TIP3    H153080   0.048   4.908  13.394 -0.8462 -0.3768 -1.8255
10555TIP3    H253081   0.073   4.766  13.442 -1.0322  0.0001 -0.5582
10556TIP3   OH253082   3.983   2.637  14.255  0.6237  0.1868 -0.2915
10556TIP3    H153083   4.005   2.693  14.330  2.2450  0.3709 -0.8720
10556TIP3    H253084   4.045   2.662  14.187  0.4977 -1.3736 -1.0244
10557TIP3   OH253085   5.674   3.323   2.496 -0.3658  0.1118 -0.4759
10557TIP3    H153086   5.599   3.353   2.547 -0.0574  0.7997 -0.4284
10557TIP3    H253087   5.748   3.373   2.530  0.1848 -0.8117 -0.2821
10558TIP3   OH253088   1.493   6.683  16.360  0.0987 -0.3902  0.3470
10558TIP3    H153089   1.588   6.672  16.351  0.0128 -0.2750 -0.8511
10558TIP3    H253090   1.458   6.594  16.353  0.0314 -0.2999 -0.6462
10559TIP3   OH253091   3.408   6.782   5.921 -0.2000 -0.1654  0.4538
10559TIP3    H153092   3.463   6.784   6.000  1.4674  0.1753 -0.6472
10559TIP3    H253093   3.469   6.801   5.849 -1.5974 -0.7956 -0.9635
10560TIP3   OH253094   5.958   1.552  12.288 -0.0643 -0.0463 -1.0224
10560TIP3    H153095   5.910   1.537  12.369 -0.4259 -0.2606 -1.2715
10560TIP3    H253096   5.913   1.626  12.247 -0.2215 -0.2852 -1.2842
10561TIP3   OH253097   0.136   2.339   1.171  0.2058 -0.4141  0.5300
10561TIP3    H153098   0.222   2.326   1.211  0.2779 -1.6984 -0.0021
10561TIP3    H253099   0.085   2.384   1.238  0.9093 -0.7836  1.3322
10562TIP3   OH253100   2.451   1.354  16.112  0.2577  0.6112 -0.2196
10562TIP3    H153101   2.466   1.278  16.168  1.9950 -0.4308 -1.9738
10562TIP3    H253102   2.356   1.353  16.097  0.3574 -2.0792 -1.2974
10563TIP3   OH253103   6.574   5.419   0.368  0.2039  0.2611 -0.5772
10563TIP3    H153104   6.563   5.334   0.412  0.6797  0.6426  0.3012
10563TIP3    H253105   6.607   5.397   0.281  0.8464 -0.4367 -0.1683
10564TIP3   OH253106   4.319   3.326   5.312  0.4396 -0.0847  0.2169
10564TIP3    H153107   4.347   3.268   5.383  1.3953 -0.1319 -0.1934
10564TIP3    H253108   4.358   3.411   5.334 -1.4982  0.6287  1.1749
10565TIP3   OH253109   0.370   4.628  12.497 -0.1541  0.0887 -0.2448
10565TIP3    H153110   0.309   4.557  12.476  1.1447 -1.0762 -0.1805
10565TIP3    H253111   0.455   4.586  12.503  0.9869  1.9744 -2.1449
10566TIP3   OH253112   6.382   5.029  11.031  0.3248  0.4881  0.3192
10566TIP3    H153113   6.314   5.094  11.049  0.0757 -0.2269  2.1611
10566TIP3    H253114   6.338   4.964  10.975  0.1934  1.2152 -0.4318
10567TIP3   OH253115   3.984   4.486   1.960 -0.4360  0.7668 -0.2232
10567TIP3    H153116   4.019   4.568   1.994  1.1911 -1.3062  3.8636
10567TIP3    H253117   3.895   4.482   1.994 -0.7029  1.0615 -0.8822
10568TIP3   OH253118   4.137   2.733  16.501  0.6776 -0.2568 -0.8138
10568TIP3    H153119   4.211   2.781  16.538  0.3264  0.6222 -1.1954
10568TIP3    H253120   4.106   2.677  16.571  0.0954  1.2777  0.2065
10569TIP3   OH253121   3.609   2.239  14.245 -0.0698 -0.4335 -0.1803
10569TIP3    H153122   3.666   2.174  14.286  0.9299  0.1898 -0.5400
10569TIP3    H253123   3.606   2.311  14.308  1.1904  0.3808 -1.0019
10570TIP3   OH253124   5.664   1.955   4.772  0.7418  0.2940 -0.0464
10570TIP3    H153125   5.724   2.000   4.712  0.6826  0.7019  0.2000
10570TIP3    H253126   5.660   2.011   4.849 -0.3088  0.4913 -0.2369
10571TIP3   OH253127   0.175   1.248  11.700 -0.2043 -0.1562  0.0638
10571TIP3    H153128   0.094   1.210  11.735  0.3228 -1.5239 -0.1629
10571TIP3    H253129   0.156   1.266  11.608 -0.4665  0.1949  0.1823
10572TIP3   OH253130   2.846   3.442   4.068  0.1823  0.0395 -0.0379
10572TIP3    H153131   2.850   3.382   4.142  1.4944  1.1498  0.8440
10572TIP3    H253132   2.766   3.493   4.083  0.3883  0.1934  0.5979
10573TIP3   OH253133   0.249   3.328  14.677 -0.4620  0.2022 -0.0016
10573TIP3    H153134   0.316   3.290  14.733 -2.1385  0.0336  2.0023
10573TIP3    H253135   0.172   3.274  14.692 -1.3494  0.9928 -1.4617
10574TIP3   OH253136   6.688   2.266   5.957 -0.0018  0.0897 -0.4699
10574TIP3    H153137   6.644   2.308   6.031  0.3413  0.6981 -0.6065
10574TIP3    H253138   6.618   2.219   5.911 -0.8742  2.3588 -1.6121
10575TIP3   OH253139   4.661   5.041   5.346 -0.0874  0.6469  0.2020
10575TIP3    H153140   4.644   5.090   5.426  0.8719  1.0731  0.1549
10575TIP3    H253141   4.627   5.098   5.276 -0.2983  0.5819  0.2496
10576TIP3   OH253142   4.693   0.786   1.090 -0.1156  0.5593  0.0973
10576TIP3    H153143   4.675   0.880   1.099 -1.1922  0.3464  0.2544
10576TIP3    H253144   4.779   0.782   1.048  0.0128  1.6153  0.2380
10577TIP3   OH253145   6.666   4.230   3.065 -0.2855  0.7345  0.1685
10577TIP3    H153146   6.668   4.260   2.975 -0.2313  0.1631 -0.0271
10577TIP3    H253147   6.659   4.135   3.058 -3.1177  0.8157  0.7242
10578TIP3   OH253148   6.000   2.869  15.903 -0.3023  0.1679  0.1983
10578TIP3    H153149   5.939   2.891  15.973 -0.0219 -0.9278  0.8056
10578TIP3    H253150   5.983   2.776  15.884  0.7838 -0.0063 -0.0078
10579TIP3   OH253151   0.318   1.697   0.435 -0.5428  0.3547  0.0917
10579TIP3    H153152   0.341   1.632   0.368  3.4364 -0.3465  1.8370
10579TIP3    H253153   0.259   1.651   0.494  0.4042 -0.9499  0.0738
10580TIP3   OH253154   4.081   2.762   1.272 -0.0956 -0.5932 -0.0054
10580TIP3    H153155   4.096   2.857   1.271  1.4294 -0.7466  1.8991
10580TIP3    H253156   4.040   2.745   1.357  1.4503 -1.8340  0.5395
10581TIP3   OH253157   2.511   3.725   4.533  0.3751  0.2907 -0.4804
10581TIP3    H153158   2.558   3.646   4.505 -1.4005 -0.2997 -2.0338
10581TIP3    H253159   2.439   3.733   4.470 -0.1491  2.5356  0.3246
10582TIP3   OH253160   3.740   2.510   1.661 -0.2637 -0.0636  0.0223
10582TIP3    H153161   3.746   2.597   1.622 -2.2320 -0.2362 -0.7567
10582TIP3    H253162   3.778   2.521   1.749  0.4185  1.3267 -0.4138
10583TIP3   OH253163   6.600   1.564  11.349 -0.1508  0.1506  0.1040
10583TIP3    H153164   6.553   1.511  11.413 -0.2940  0.3959  0.2076
10583TIP3    H253165   6.621   1.504  11.278 -1.9581  0.3494 -0.6506
10584TIP3   OH253166   0.679   3.289  13.392  0.0526 -0.0137 -0.1840
10584TIP3    H153167   0.667   3.358  13.327 -0.0345  1.0296  0.9027
10584TIP3    H253168   0.639   3.212  13.352 -1.7673  1.0644 -0.5944
10585TIP3   OH253169   1.894   5.349  12.999 -0.0512 -0.7663 -0.3757
10585TIP3    H153170   1.891   5.405  12.921 -1.2129  0.0561  0.2187
10585TIP3    H253171   1.974   5.373  13.044 -1.1656  1.4755  0.5682
10586TIP3   OH253172   1.700   2.780  16.958  0.3339 -0.0925 -0.1055
10586TIP3    H153173   1.687   2.736  16.874 -2.3006  1.3561 -0.5579
10586TIP3    H253174   1.667   2.718  17.023  1.7625 -0.9423 -0.1361
10587TIP3   OH253175   2.650   4.930  15.253 -0.1253  0.3425 -0.1582
10587TIP3    H153176   2.715   4.996  15.277  0.7330  0.1676 -1.8547
10587TIP3    H253177   2.566   4.970  15.276  0.4135  1.7733 -0.5630
10588TIP3   OH253178   3.927   0.763   6.637 -0.1783  0.2190  0.2915
10588TIP3    H153179   4.020   0.742   6.633 -0.3340 -0.7666  1.2402
10588TIP3    H253180   3.889   0.693   6.690 -1.1956  1.4447  1.2683
10589TIP3   OH253181   1.522   3.645   3.380  0.0367  0.4676  0.1388
10589TIP3    H153182   1.612   3.669   3.361  0.1140  0.2759  0.2531
10589TIP3    H253183   1.497   3.700   3.455 -0.0152  0.6767 -0.0313
10590TIP3   OH253184   5.559   2.904  13.331 -0.8314  0.3288 -0.5440
10590TIP3    H153185   5.464   2.917  13.341 -0.7387  1.2512 -0.7624
10590TIP3    H253186   5.598   2.952  13.405 -0.5216  0.3125 -0.6959
10591TIP3   OH253187   3.581   5.031   3.688 -0.0668 -0.0318 -0.3436
10591TIP3    H153188   3.526   4.957   3.662 -1.8163  0.3077  2.1305
10591TIP3    H253189   3.520   5.100   3.712  1.5071  1.4014 -0.2830
10592TIP3   OH253190   1.814   2.103  13.487  0.1602 -0.2760 -0.3193
10592TIP3    H153191   1.765   2.070  13.412  0.8514  2.0443 -1.9166
10592TIP3    H253192   1.748   2.117  13.555 -0.6583 -1.3548 -0.8597
10593TIP3   OH253193   1.430   5.839  11.066  0.8018  0.0698 -0.3797
10593TIP3    H153194   1.393   5.790  10.993 -0.6456  0.6632 -0.0922
10593TIP3    H253195   1.383   5.923  11.065  0.6540  0.0517  1.2789
10594TIP3   OH253196   4.211   3.110  15.384  0.5033 -0.0192 -0.3753
10594TIP3    H153197   4.205   3.088  15.291  0.0479 -0.0102 -0.3484
10594TIP3    H253198   4.278   3.179  15.388  0.6535 -0.1477 -0.6730
10595TIP3   OH253199   2.784   0.631  12.664  0.1306  0.5472  0.0502
10595TIP3    H153200   2.833   0.671  12.737 -4.5263 -0.5102  4.3276
10595TIP3    H253201   2.748   0.705  12.617  2.3212  1.2599 -0.6417
10596TIP3   OH253202   3.051   5.672  15.756  0.4900  0.3170 -0.5305
10596TIP3    H153203   3.084   5.582  15.758 -0.4623 -0.0419  1.5541
10596TIP3    H253204   3.116   5.723  15.806  0.2839  0.4938 -0.4401
10597TIP3   OH253205   0.981   0.315   3.343 -0.2084 -0.1825 -0.0618
10597TIP3    H153206   1.019   0.304   3.256  0.8459  0.5608  0.2820
10597TIP3    H253207   1.034   0.260   3.400 -2.2725 -2.4520 -0.1918
10598TIP3   OH253208   3.172   4.206  14.258  0.1573  0.0577  0.1893
10598TIP3    H153209   3.193   4.137  14.195 -2.1642 -0.5170 -0.0350
10598TIP3    H253210   3.172   4.162  14.343  1.9492  0.5426  0.4736
10599TIP3   OH253211   3.551   3.631  15.199  0.5220  0.0231 -0.6050
10599TIP3    H153212   3.583   3.548  15.165  1.4940  0.9972 -2.1842
10599TIP3    H253213   3.530   3.682  15.121 -0.7373  1.0170  0.3440
10600TIP3   OH253214   3.496   3.017  15.832  0.1102  0.4729  0.6504
10600TIP3    H153215   3.564   2.951  15.846  0.4572  0.6493 -0.1912
10600TIP3    H253216   3.415   2.973  15.858  0.5148  0.2093  1.5076
10601TIP3   OH253217   3.923   5.839   1.578 -0.1709 -0.1337  0.2307
10601TIP3    H153218   3.851   5.897   1.602  1.2090  1.4131  0.9037
10601TIP3    H253219   3.995   5.866   1.635  1.3330 -0.7106 -1.3045
10602TIP3   OH253220   0.407   6.095   5.619 -0.0830 -0.0091 -0.0282
10602TIP3    H153221   0.464   6.101   5.543  0.7760 -1.4599  0.4471
10602TIP3    H253222   0.437   6.016   5.665 -1.2937  0.2124  1.2180
10603TIP3   OH253223   4.055   2.365   5.417 -0.3381 -0.2823 -0.1245
10603TIP3    H153224   3.970   2.407   5.415 -0.1821  0.1230  0.9369
10603TIP3    H253225   4.061   2.327   5.505  0.5441 -0.3612 -0.2059
10604TIP3   OH253226   3.583   5.101  12.177 -0.2735  0.2526 -0.4102
10604TIP3    H153227   3.559   5.095  12.084 -1.6808 -0.4809 -0.0248
10604TIP3    H253228   3.501   5.124  12.221  0.0975 -0.6565  0.7943
10605TIP3   OH253229   5.984   4.633   0.908  0.2206  0.3325 -0.5312
10605TIP3    H153230   5.946   4.662   0.991 -0.2207  0.1279 -0.6573
10605TIP3    H253231   5.978   4.709   0.850  1.8148  0.9316  0.0311
10606TIP3   OH253232   1.120   0.963   3.049 -0.2614  0.2678  0.5277
10606TIP3    H153233   1.055   0.920   2.993 -1.3187  2.0487  0.3190
10606TIP3    H253234   1.201   0.957   2.999 -1.0264  1.1617 -0.8862
10607TIP3   OH253235   5.618   1.717   4.474  0.5369  0.5535  0.6135
10607TIP3    H153236   5.663   1.781   4.418 -0.0986  0.7016  0.2595
10607TIP3    H253237   5.536   1.761   4.499 -0.4543 -0.5401 -0.5758
10608TIP3   OH253238   2.252   3.293   6.155 -0.3430 -0.3158 -0.7548
10608TIP3    H153239   2.168   3.279   6.111 -0.1139 -1.4211 -0.8771
10608TIP3    H253240   2.235   3.272   6.247 -0.8196  1.9886 -0.2440
10609TIP3   OH253241   5.079   2.178   1.710 -0.2539 -0.4985 -0.4301
10609TIP3    H153242   5.046   2.225   1.787  0.0461 -0.2767 -0.4341
10609TIP3    H253243   5.164   2.218   1.692  0.7809 -2.1559  0.5420
10610TIP3   OH253244   5.664   0.749  11.950 -0.5437 -0.5609  0.0864
10610TIP3    H153245   5.682   0.836  11.916  0.1340 -0.8623 -0.3496
10610TIP3    H253246   5.601   0.763  12.020  0.2125  0.3654  0.6000
10611TIP3   OH253247   0.131   0.520   1.532  0.4322 -0.2425 -0.0721
10611TIP3    H153248   0.219   0.486   1.515  0.2137 -0.2133 -1.4243
10611TIP3    H253249   0.146   0.610   1.562  0.8967 -0.5605  0.6656
10612TIP3   OH253250   5.052   4.413   0.662 -0.5887  0.2368 -0.1945
10612TIP3    H153251   4.966   4.378   0.687  0.5217 -1.8946  0.9680
10612TIP3    H253252   5.038   4.507   0.654 -3.0692 -0.0627 -0.2625
10613TIP3   OH253253   1.576   6.402  14.311 -0.0900 -0.3775  0.3928
10613TIP3    H153254   1.484   6.425  14.293  0.8061  2.7392 -0.8481
10613TIP3    H253255   1.619   6.405  14.226  1.7594  1.5798  1.2990
10614TIP3   OH253256   6.302   5.989  13.977 -0.1636  0.3284 -0.4743
10614TIP3    H153257   6.371   5.936  14.017 -1.2270 -0.1080  0.8559
10614TIP3    H253258   6.291   5.951  13.889  1.4018  0.5394 -0.7945
10615TIP3   OH253259   5.307   4.590  13.552 -0.3165 -0.1594 -0.4507
10615TIP3    H153260   5.273   4.658  13.610 -2.0316 -1.6516  0.4149
10615TIP3    H253261   5.232   4.533  13.536  1.2259 -2.3273 -0.4047
10616TIP3   OH253262   3.735   1.308   4.010 -0.5073 -0.2238 -0.0187
10616TIP3    H153263   3.821   1.348   3.999 -1.0634  1.0199 -0.1186
10616TIP3    H253264   3.752   1.226   4.056  0.7493 -0.1233 -0.2664
10617TIP3   OH253265   2.798   5.343  10.787  0.1303  0.4350 -0.3553
10617TIP3    H153266   2.798   5.311  10.877 -0.0011 -1.0610 -0.8688
10617TIP3    H253267   2.748   5.278  10.738  2.7729 -0.4767 -2.0769
10618TIP3   OH253268   6.336   5.871  15.038 -0.0656 -0.0972 -0.2043
10618TIP3    H153269   6.317   5.961  15.010 -1.9518 -0.0025  1.2110
10618TIP3    H253270   6.322   5.872  15.132  0.4999 -1.7438 -0.0806
10619TIP3   OH253271   4.704   5.563   4.156  0.9482  0.0482  0.4475
10619TIP3    H153272   4.752   5.492   4.200 -0.2653  0.1080  1.9347
10619TIP3    H253273   4.613   5.535   4.158  0.9487 -1.4790 -4.8960
10620TIP3   OH253274   5.488   1.459  15.946 -0.2121  0.5894  0.2110
10620TIP3    H153275   5.508   1.495  16.032 -1.2354  0.3760  0.5466
10620TIP3    H253276   5.563   1.403  15.926  0.4733  1.3711  0.5331
10621TIP3   OH253277   2.083   5.863  13.865 -0.6403 -0.1865 -0.2365
10621TIP3    H153278   2.168   5.857  13.822  0.1739 -3.6758  1.5138
10621TIP3    H253279   2.094   5.930  13.932  0.5096 -0.1557 -0.4412
10622TIP3   OH253280   0.583   3.170  15.215 -0.2259  0.0191 -0.5540
10622TIP3    H153281   0.489   3.190  15.214  0.1742  2.1574 -0.4682
10622TIP3    H253282   0.592   3.102  15.282 -1.3988  1.8823  1.6688
10623TIP3   OH253283   1.471   1.252  13.645 -0.0312 -0.0090  0.0326
10623TIP3    H153284   1.461   1.270  13.739  0.0237 -0.7914  0.1889
10623TIP3    H253285   1.545   1.306  13.618  0.2719 -0.1670  0.5475
10624TIP3   OH253286   1.515   2.792  12.037 -0.1542  0.2079 -0.6074
10624TIP3    H153287   1.610   2.798  12.031 -0.0175  0.2747  1.0472
10624TIP3    H253288   1.483   2.853  11.971  0.8428 -2.0552 -3.4073
10625TIP3   OH253289   5.060   3.077   2.019  0.3198 -0.6065  0.2114
10625TIP3    H153290   4.977   3.038   1.994  0.3570  0.7705 -2.4187
10625TIP3    H253291   5.041   3.124   2.101 -1.4426 -0.4808 -0.2264
10626TIP3   OH253292   2.875   2.694   3.551 -0.1885  0.3730  0.3798
10626TIP3    H153293   2.905   2.717   3.639  0.0856 -0.4409  0.5142
10626TIP3    H253294   2.950   2.648   3.512 -0.5463  0.1273 -0.0275
10627TIP3   OH253295   0.937   0.069  16.783 -0.1860 -0.0773  0.8367
10627TIP3    H153296   1.006   0.096  16.843  0.4446  2.2314 -0.7559
10627TIP3    H253297   0.978   0.073  16.696 -1.7820 -0.6015  0.0078
10628TIP3   OH253298   4.070   1.416   3.561  0.6237 -0.1402 -0.3704
10628TIP3    H153299   4.164   1.436   3.553  0.9879 -0.2731  2.5964
10628TIP3    H253300   4.036   1.483   3.620 -1.0146 -0.5728 -0.7772
10629TIP3   OH253301   2.768   4.811   2.695  0.3659 -0.1142  0.2014
10629TIP3    H153302   2.823   4.883   2.725 -1.3067  1.1495  0.3438
10629TIP3    H253303   2.831   4.744   2.668  1.9603  0.6671  1.7312
10630TIP3   OH253304   6.650   6.688  13.206 -0.2109  0.6184  0.0298
10630TIP3    H153305   6.637   6.594  13.218 -0.9863  0.5303 -1.3381
10630TIP3    H253306   6.614   6.728  13.285 -2.5775 -0.0716 -0.6182
10631TIP3   OH253307   2.912   0.338  14.303 -0.0950  0.2165  0.0359
10631TIP3    H153308   2.895   0.293  14.386  0.6405 -1.0868 -0.4800
10631TIP3    H253309   3.005   0.361  14.307  0.5742 -1.9085 -1.2942
10632TIP3   OH253310   4.439   2.951  16.895  0.4906 -0.0245  0.0885
10632TIP3    H153311   4.431   3.030  16.949 -0.5697 -0.6002  0.8046
10632TIP3    H253312   4.491   2.979  16.819  1.2357  1.0202  0.9577
10633TIP3   OH253313   6.568   1.218   2.768 -0.5639  0.1774  0.1456
10633TIP3    H153314   6.580   1.156   2.840  1.2791  0.3652  0.0577
10633TIP3    H253315   6.588   1.167   2.689  0.3105  0.6858  0.0230
10634TIP3   OH253316   3.995   4.902  15.721 -0.3501 -0.0992 -0.1316
10634TIP3    H153317   3.969   4.976  15.776  0.5994 -0.2342  0.5136
10634TIP3    H253318   3.923   4.893  15.658 -0.7233  1.0280  0.1145
10635TIP3   OH253319   3.738   5.458   4.535  0.6164  0.0022  0.5971
10635TIP3    H153320   3.670   5.509   4.491  1.2384  0.7719  0.5023
10635TIP3    H253321   3.721   5.472   4.628  0.1044 -0.5416  0.5887
10636TIP3   OH253322   6.284   0.322  12.261 -0.1173 -0.2748 -0.4931
10636TIP3    H153323   6.239   0.364  12.335  0.3411  0.9385 -0.8835
10636TIP3    H253324   6.213   0.278  12.213 -0.5552 -0.2931  0.1515
10637TIP3   OH253325   2.791   2.237  16.605 -0.4650  0.0861 -0.4764
10637TIP3    H153326   2.715   2.200  16.559 -1.1020 -0.2427  0.8021
10637TIP3    H253327   2.774   2.219  16.697  0.5835  1.1133 -0.0671
10638TIP3   OH253328   2.433   0.633   5.095  0.6131 -0.4734  0.2604
10638TIP3    H153329   2.345   0.636   5.059  0.7909 -1.3769 -0.2858
10638TIP3    H253330   2.474   0.558   5.052  1.6852 -0.0057  0.4162
10639TIP3   OH253331   4.467   6.701  15.138  0.2710  0.1114  0.0155
10639TIP3    H153332   4.508   6.787  15.124  1.8744 -0.2160  2.2372
10639TIP3    H253333   4.498   6.648  15.064 -0.0795  1.2052 -0.9382
10640TIP3   OH253334   1.808   2.728   0.876  0.1177 -0.4531 -0.2434
10640TIP3    H153335   1.887   2.738   0.822 -0.5247  0.8955 -0.9920
10640TIP3    H253336   1.736   2.755   0.819 -0.5913  1.0921  1.2762
10641TIP3   OH253337   4.140   0.736  15.477 -0.1642  0.0642  0.0886
10641TIP3    H153338   4.060   0.707  15.434  0.2257 -0.0718 -0.5468
10641TIP3    H253339   4.202   0.664  15.465  0.4810  0.7184 -0.5978
10642TIP3   OH253340   3.864   1.012   5.001 -1.1781  0.2044 -0.0683
10642TIP3    H153341   3.848   1.024   4.907 -0.1592 -1.9528 -0.5651
10642TIP3    H253342   3.932   0.945   5.006  1.1763  2.4991  2.1591
10643TIP3   OH253343   0.724   5.904   4.690  0.4182 -0.2523 -0.0015
10643TIP3    H153344   0.715   5.958   4.611  0.6028 -0.8518 -0.4335
10643TIP3    H253345   0.789   5.951   4.743  1.1893 -0.4706 -0.7391
10644TIP3   OH253346   1.548   5.137   3.183  0.4273  0.0316 -0.1467
10644TIP3    H153347   1.512   5.058   3.144 -0.7256  0.5783 -0.2312
10644TIP3    H253348   1.568   5.112   3.274 -2.1410  0.2281  0.5485
10645TIP3   OH253349   0.755   4.229  12.636  0.0489 -0.3718 -0.1579
10645TIP3    H153350   0.800   4.211  12.718  2.0177 -0.4280 -1.1974
10645TIP3    H253351   0.745   4.143  12.595 -0.1048 -0.2428 -0.3892
10646TIP3   OH253352   6.770   3.901  13.033 -0.1684  0.0681  0.0222
10646TIP3    H153353   6.822   3.981  13.040  0.3841 -0.1151 -1.5380
10646TIP3    H253354   6.682   3.932  13.009 -0.0045  0.2349 -0.3793
10647TIP3   OH253355   2.871   4.315   1.597  0.3507  0.1400  0.1560
10647TIP3    H153356   2.777   4.312   1.611  0.0851  1.0239 -1.2343
10647TIP3    H253357   2.888   4.405   1.567  1.1978 -0.7562 -2.2798
10648TIP3   OH253358   3.598   6.632   4.720 -0.3791 -0.5715 -0.0469
10648TIP3    H153359   3.664   6.683   4.672 -0.6343  0.0527  0.2519
10648TIP3    H253360   3.561   6.573   4.655  2.9642 -3.5683  0.4721
10649TIP3   OH253361   4.034   4.732   0.019 -0.2237  0.7502  0.6582
10649TIP3    H153362   3.969   4.666  -0.002 -1.3053  1.5021  1.5518
10649TIP3    H253363   4.098   4.687   0.074  0.4592 -0.1831 -0.8332
10650TIP3   OH253364   2.397   5.940  14.792  0.1412  0.7038 -0.2410
10650TIP3    H153365   2.375   5.849  14.770  1.2777  0.8053 -2.0086
10650TIP3    H253366   2.484   5.935  14.832  0.1652  1.0114 -0.2523
10651TIP3   OH253367   2.535   2.834   1.262  0.0654 -0.2574  0.2038
10651TIP3    H153368   2.463   2.787   1.220  0.0999  0.4850 -0.7037
10651TIP3    H253369   2.494   2.913   1.298  0.6065  0.7844 -1.3736
10652TIP3   OH253370   5.842   6.007   0.881 -0.4944  0.3652  0.4600
10652TIP3    H153371   5.926   6.017   0.926  1.1521 -0.3223 -2.2668
10652TIP3    H253372   5.840   6.079   0.818 -0.8524 -0.9789 -1.1104
10653TIP3   OH253373   0.155   1.844   5.401 -0.3589 -0.0033 -1.1679
10653TIP3    H153374   0.223   1.821   5.465 -0.5125  1.4760 -0.4302
10653TIP3    H253375   0.204   1.864   5.321  0.0299  0.4373 -0.8259
10654TIP3   OH253376   3.636   5.953   2.288 -0.2629  0.5007  0.1224
10654TIP3    H153377   3.606   5.865   2.265 -1.6253  1.0814 -0.4563
10654TIP3    H253378   3.682   5.942   2.371  0.5620 -0.9104 -0.4828
10655TIP3   OH253379   3.794   2.175   1.669 -0.0928 -0.1120  0.8107
10655TIP3    H153380   3.711   2.127   1.669 -0.1409 -0.0808 -0.6085
10655TIP3    H253381   3.814   2.189   1.762 -0.7180 -1.7456  1.2202
10656TIP3   OH253382   4.690   6.311   4.976 -0.2850 -0.1462  0.1821
10656TIP3    H153383   4.781   6.324   4.952 -0.3060  1.8655  1.0038
10656TIP3    H253384   4.679   6.361   5.057 -2.2234  0.0740 -0.1707
10657TIP3   OH253385   5.112   4.198   5.783  0.3621 -0.7159  0.1993
10657TIP3    H153386   5.187   4.257   5.779 -0.3557  0.2281  0.0547
10657TIP3    H253387   5.098   4.185   5.877  0.7344 -0.9387  0.2255
10658TIP3   OH253388   5.607   5.371  12.694 -0.3206 -0.1933  0.0392
10658TIP3    H153389   5.701   5.369  12.674 -0.0999  0.7722  0.9319
10658TIP3    H253390   5.576   5.454  12.658 -1.0295 -0.8750 -0.9948
10659TIP3   OH253391   5.667   1.303  16.450 -0.2345 -0.6754 -0.2702
10659TIP3    H153392   5.572   1.301  16.464  0.1149 -1.6315  2.6904
10659TIP3    H253393   5.692   1.393  16.468 -0.5410 -0.4489 -0.9389
10660TIP3   OH253394   4.819   5.143  17.103 -0.3854  0.3248  0.1166
10660TIP3    H153395   4.857   5.064  17.065 -1.5490  0.1979 -0.8396
10660TIP3    H253396   4.870   5.215  17.065  0.4941  0.0567  0.7725
10661TIP3   OH253397   0.778   5.876   3.575  0.1300 -0.0056  0.7841
10661TIP3    H153398   0.697   5.866   3.525  0.2802  0.4813  0.4350
10661TIP3    H253399   0.760   5.831   3.658 -0.7137  0.6251  0.9561
10662TIP3   OH253400   1.233   1.215   4.145 -0.3560  0.1124 -0.5066
10662TIP3    H153401   1.286   1.148   4.101 -0.0463 -1.1480  1.6612
10662TIP3    H253402   1.287   1.244   4.218 -1.6740  0.6104  0.3022
10663TIP3   OH253403   1.893   2.478   1.142  0.1689  0.6118  0.2062
10663TIP3    H153404   1.952   2.526   1.200  1.2468 -1.5914  1.0342
10663TIP3    H253405   1.864   2.403   1.193 -1.0677  0.0771 -1.2010
10664TIP3   OH253406   2.428   1.904   4.651  0.1702  0.0145 -0.0050
10664TIP3    H153407   2.359   1.964   4.679  0.3204  0.4152 -0.4672
10664TIP3    H253408   2.444   1.928   4.559  2.1277  1.1216  0.5615
10665TIP3   OH253409   2.914   0.821   4.019 -0.0908 -0.6858  0.5253
10665TIP3    H153410   2.940   0.739   3.978 -1.0134 -0.0685 -1.3566
10665TIP3    H253411   2.848   0.858   3.961  1.0635  1.9208  0.7218
10666TIP3   OH253412   5.912   2.743  12.462 -0.3283  0.3916 -0.3579
10666TIP3    H153413   5.979   2.808  12.482  1.0137 -0.5868 -1.4242
10666TIP3    H253414   5.830   2.786  12.482  0.4714  2.6371 -1.5107
10667TIP3   OH253415   3.696   1.685  13.898  0.7889 -0.4882 -0.3574
10667TIP3    H153416   3.713   1.762  13.844 -0.0833 -0.9210 -1.2798
10667TIP3    H253417   3.693   1.612  13.835 -0.2254 -1.0041  0.2680
10668TIP3   OH253418   5.760   1.335   5.037  0.0950 -0.2558 -0.7201
10668TIP3    H153419   5.788   1.328   5.128 -0.0392 -3.8023 -0.8173
10668TIP3    H253420   5.714   1.418   5.032 -0.0583 -0.0351  2.4895
10669TIP3   OH253421   5.707   3.119  12.838 -0.0336 -0.1497 -0.0274
10669TIP3    H153422   5.754   3.103  12.920  0.9221  0.3610 -0.4502
10669TIP3    H253423   5.719   3.213  12.822 -1.3382  0.0175 -0.0794
10670TIP3   OH253424   4.347   4.032  14.280  0.2582 -1.0035 -0.7145
10670TIP3    H153425   4.349   4.119  14.321 -1.7213  0.4011 -3.3570
10670TIP3    H253426   4.421   3.986  14.320  0.0969  1.1017  2.3709
10671TIP3   OH253427   2.252   3.417   3.225  0.4593  0.2728  0.1773
10671TIP3    H153428   2.255   3.489   3.162 -2.8551  0.4642  0.0798
10671TIP3    H253429   2.270   3.339   3.173 -0.7771  0.5820 -0.7544
10672TIP3   OH253430   4.536   5.318   1.293  0.1059  0.1700 -0.6451
10672TIP3    H153431   4.512   5.408   1.272  0.2579  0.3261 -0.1675
10672TIP3    H253432   4.612   5.327   1.352  0.1346 -0.2672 -0.6141
10673TIP3   OH253433   4.367   1.409  13.902 -0.0288  0.2533  0.2546
10673TIP3    H153434   4.326   1.492  13.926  1.1861  1.1195 -0.5192
10673TIP3    H253435   4.454   1.434  13.870  0.5897 -1.3868  0.5738
10674TIP3   OH253436   4.654   6.161  12.540 -0.4747 -0.3845 -0.2222
10674TIP3    H153437   4.564   6.141  12.563 -0.2288 -1.3171 -0.0496
10674TIP3    H253438   4.687   6.081  12.498  0.5520 -0.3888  0.5576
10675TIP3   OH253439   2.305   4.654  14.697 -0.1246  0.0054 -0.1359
10675TIP3    H153440   2.368   4.628  14.630 -0.1224  0.8329 -0.4684
10675TIP3    H253441   2.226   4.606  14.675 -0.4533  1.0456 -1.3820
10676TIP3   OH253442   6.511   5.754   3.499  0.3158 -0.1833  0.0654
10676TIP3    H153443   6.490   5.664   3.526 -1.0791  0.3024  0.6607
10676TIP3    H253444   6.463   5.766   3.417 -1.8749  0.9180  1.4151
10677TIP3   OH253445   1.166   0.180  12.988 -0.2937  0.4283  0.1802
10677TIP3    H153446   1.130   0.192  13.076  1.5116 -0.0628  1.0450
10677TIP3    H253447   1.253   0.220  12.993  0.7265 -1.5646 -0.7057
10678TIP3   OH253448   0.093   6.279   0.428  0.1757 -0.5454  0.1947
10678TIP3    H153449   0.048   6.214   0.482  0.7177 -0.1743  1.1308
10678TIP3    H253450   0.062   6.263   0.339  0.5640 -2.3134  0.3517
10679TIP3   OH253451   5.033   1.681   0.756  0.0656 -0.2836 -0.0767
10679TIP3    H153452   4.994   1.596   0.736  1.2471 -1.3126  1.7300
10679TIP3    H253453   5.123   1.674   0.726  0.6764 -0.3547  1.6823
10680TIP3   OH253454   1.382   1.836   0.994  0.6181 -0.1495 -0.3261
10680TIP3    H153455   1.378   1.786   1.075 -0.6867 -1.2587 -1.0285
10680TIP3    H253456   1.475   1.845   0.976  0.9144 -0.4446  0.9503
10681TIP3   OH253457   5.329   3.040   3.909 -0.0117  0.4329 -0.3459
10681TIP3    H153458   5.296   3.130   3.916 -0.2605  0.3796 -0.7358
10681TIP3    H253459   5.250   2.987   3.896  0.0129 -0.0043  1.1584
10682TIP3   OH253460   1.237   4.812   4.987  0.2429  0.2591  0.4074
10682TIP3    H153461   1.280   4.868   4.923 -1.3037  0.2206 -0.7134
10682TIP3    H253462   1.144   4.831   4.978 -0.0709 -0.1282  2.3054
10683TIP3   OH253463   0.543   1.159  12.089  0.4695  0.5777 -0.4125
10683TIP3    H153464   0.622   1.190  12.045  0.8186 -1.3938 -1.2740
10683TIP3    H253465   0.477   1.154  12.019  0.2632 -0.0461 -0.1779
10684TIP3   OH253466   6.443   5.820  10.424  0.1923 -0.5591  0.7767
10684TIP3    H153467   6.418   5.802  10.514 -1.2029 -0.1080  0.4935
10684TIP3    H253468   6.364   5.852  10.382  0.3783 -2.3002 -1.0609
10685TIP3   OH253469   4.604   6.593  12.145  0.7441  0.0756  0.0417
10685TIP3    H153470   4.538   6.649  12.184 -0.0790 -0.9360  0.1515
10685TIP3    H253471   4.556   6.541  12.080  1.5880 -0.0966 -0.4566
10686TIP3   OH253472   0.991   3.227  17.055  0.2338 -0.5673  0.2743
10686TIP3    H153473   0.959   3.308  17.096  1.8941  1.0141 -1.3598
10686TIP3    H253474   0.949   3.225  16.970  1.0250 -0.8512 -0.1224
10687TIP3   OH253475   5.220   6.068  15.021 -0.1403  0.6278 -0.2480
10687TIP3    H153476   5.176   6.148  15.050 -1.1162  0.5247 -1.3669
10687TIP3    H253477   5.182   6.049  14.936  1.5741  0.1054 -0.9372
10688TIP3   OH253478   0.060   5.551  15.836  0.5744 -0.0865 -0.6785
10688TIP3    H153479  -0.015   5.565  15.779 -1.0883 -0.7661  1.1967
10688TIP3    H253480   0.088   5.461  15.818  0.6052 -0.0079 -1.0210
10689TIP3   OH253481   1.775   2.265   5.569  0.2446 -0.3316  0.2967
10689TIP3    H153482   1.699   2.273   5.512  0.3951 -0.6690  0.0414
10689TIP3    H253483   1.810   2.178   5.550  0.1994 -0.5226  1.0256
10690TIP3   OH253484   1.852   1.530  13.837  0.1465  0.4093 -0.6536
10690TIP3    H153485   1.764   1.532  13.873  0.0167 -0.0883 -0.9263
10690TIP3    H253486   1.844   1.570  13.750 -0.5109 -2.5085 -2.0741
10691TIP3   OH253487   0.143   6.581  12.531  0.6133  0.3170  0.2571
10691TIP3    H153488   0.089   6.513  12.490  0.7430  0.6239 -0.4452
10691TIP3    H253489   0.233   6.554  12.512  0.6688  2.1393 -2.5736
10692TIP3   OH253490   0.775   5.022  14.757 -0.0239  0.1326 -0.5543
10692TIP3    H153491   0.731   4.941  14.782  1.9793 -0.9637 -0.2808
10692TIP3    H253492   0.862   5.014  14.797  1.1039  1.2514 -2.6004
10693TIP3   OH253493   2.436   6.727  13.901  0.0691  0.4298  0.4150
10693TIP3    H153494   2.481   6.810  13.919  0.6124  0.1629  0.3225
10693TIP3    H253495   2.398   6.702  13.985  2.6352 -0.8370  1.3371
10694TIP3   OH253496   5.861   1.219  11.653  0.4952 -0.6767 -0.8850
10694TIP3    H153497   5.786   1.175  11.692  2.2906 -3.5714 -0.4335
10694TIP3    H253498   5.921   1.148  11.629  3.2074  1.4893 -1.0127
10695TIP3   OH253499   2.060   5.464   5.695 -0.3986 -0.4987 -0.0125
10695TIP3    H153500   2.130   5.494   5.637 -0.9813 -2.0135 -1.5854
10695TIP3    H253501   2.099   5.465   5.782  1.3480 -0.6102 -0.7535
10696TIP3   OH253502   3.321   2.320  11.865  0.3291 -0.4508  0.2574
10696TIP3    H153503   3.389   2.253  11.871 -0.4805 -1.2601  0.5754
10696TIP3    H253504   3.332   2.372  11.945 -0.1476 -1.2978  0.8938
10697TIP3   OH253505   5.044   2.220  13.299 -0.0887  0.4916 -0.5238
10697TIP3    H153506   5.107   2.244  13.366  0.0959 -0.4983 -0.3198
10697TIP3    H253507   5.089   2.235  13.216  1.5273 -2.7303 -0.4076
10698TIP3   OH253508   4.114   6.650  15.612 -0.0459  0.5227 -0.4502
10698TIP3    H153509   4.136   6.675  15.702 -0.1883 -0.0120 -0.2638
10698TIP3    H253510   4.106   6.555  15.615  1.5836  0.3222 -1.3845
10699TIP3   OH253511   6.701   2.017  17.018  0.1576  0.6397  0.3083
10699TIP3    H153512   6.705   2.059  16.932  0.2674  0.7193  0.3515
10699TIP3    H253513   6.608   2.018  17.042 -0.2279 -1.5831 -0.8788
10700TIP3   OH253514   0.447   5.318  12.016  0.6053 -0.0971  0.6121
10700TIP3    H153515   0.495   5.309  11.933  2.3695 -0.6339  1.6284
10700TIP3    H253516   0.384   5.387  12.000  0.1062 -0.9643 -1.5331
10701TIP3   OH253517   2.925   1.289  10.588  0.1791 -0.0735 -0.0849
10701TIP3    H153518   2.899   1.200  10.612  0.5497 -0.4937 -1.1287
10701TIP3    H253519   2.851   1.323  10.539 -0.5999  0.7979  1.6259
10702TIP3   OH253520   1.735   3.181   3.593  0.1584  0.1037 -0.6671
10702TIP3    H153521   1.786   3.209   3.516 -0.2922 -0.4387 -1.1710
10702TIP3    H253522   1.737   3.256   3.652 -1.9577  1.6806 -2.4505
10703TIP3   OH253523   4.836   3.446  12.646  0.2983  0.5748 -0.2551
10703TIP3    H153524   4.772   3.474  12.712  0.9508  2.3300 -0.3272
10703TIP3    H253525   4.783   3.400  12.580 -0.3906 -1.0344  1.3416
10704TIP3   OH253526   2.335   3.693  15.032  0.2034  0.7571 -0.4844
10704TIP3    H153527   2.273   3.641  15.082  1.8740 -0.1161  0.8022
10704TIP3    H253528   2.329   3.781  15.071  0.3328  0.4699  0.2116
10705TIP3   OH253529   5.402   4.168  16.486 -0.0671 -0.4227 -0.1715
10705TIP3    H153530   5.316   4.209  16.497  0.6401  0.7529  1.5269
10705TIP3    H253531   5.461   4.241  16.469  0.7333 -1.1113 -0.4298
10706TIP3   OH253532   6.179   3.137   1.709 -0.0524  0.4752  0.1875
10706TIP3    H153533   6.220   3.161   1.792 -1.1787  3.1409  0.0680
10706TIP3    H253534   6.086   3.127   1.729 -0.0869 -0.7577 -0.4452
10707TIP3   OH253535   4.741   0.650  15.425 -0.0892 -0.1286  0.5690
10707TIP3    H153536   4.795   0.591  15.476  0.2981 -1.3126 -1.1223
10707TIP3    H253537   4.803   0.706  15.378 -0.0402 -2.7634 -2.9000
10708TIP3   OH253538   3.753   4.258  11.859  1.1060  0.5519 -0.2764
10708TIP3    H153539   3.765   4.183  11.917  1.2823 -1.4642 -2.7471
10708TIP3    H253540   3.719   4.220  11.778 -0.9685  3.4427 -0.9131
10709TIP3   OH253541   6.251   1.024   5.361 -0.2764 -0.3650 -0.4128
10709TIP3    H153542   6.220   0.990   5.445  0.8729  0.4122  0.3543
10709TIP3    H253543   6.291   0.948   5.318 -0.2713 -0.6174  0.0371
10710TIP3   OH253544   0.213   0.319   3.420  0.2333 -0.2032 -0.3068
10710TIP3    H153545   0.273   0.322   3.495  1.6097  0.3671 -1.3939
10710TIP3    H253546   0.174   0.232   3.424  0.3416 -0.2149  1.0167
10711TIP3   OH253547   3.924   2.037   5.873 -0.0885 -0.2867  0.1562
10711TIP3    H153548   3.926   1.968   5.806 -0.3545  0.5200 -0.7089
10711TIP3    H253549   3.988   2.009   5.939 -1.6452 -2.3882  0.8910
10712TIP3   OH253550   1.223   4.114   4.221 -0.6978  0.2583 -0.2593
10712TIP3    H153551   1.273   4.154   4.150  1.8382 -1.9039  0.1604
10712TIP3    H253552   1.131   4.123   4.193  0.1574 -0.1657 -3.6692
10713TIP3   OH253553   1.826   3.808   4.227  0.3753 -0.1639 -0.5891
10713TIP3    H153554   1.809   3.790   4.319  0.1045 -1.9587 -0.9662
10713TIP3    H253555   1.919   3.830   4.223  0.2987  0.3142  0.1558
10714TIP3   OH253556   1.368   0.114   2.343 -0.0974 -0.5548  0.6811
10714TIP3    H153557   1.349   0.090   2.434 -4.1137  0.3307  0.2165
10714TIP3    H253558   1.328   0.044   2.291 -1.1077  0.8103 -0.4352
10715TIP3   OH253559   6.692   3.466   3.997  0.5350 -0.0583 -0.2160
10715TIP3    H153560   6.635   3.542   4.014 -0.6877 -0.5782 -1.8217
10715TIP3    H253561   6.649   3.393   4.042  0.8898 -0.1123  0.0404
10716TIP3   OH253562   2.282   0.023   1.329 -0.2322 -0.2360  0.1591
10716TIP3    H153563   2.258  -0.032   1.255  3.0325 -0.1943 -1.1063
10716TIP3    H253564   2.339  -0.032   1.383 -0.2098  0.6452  1.0728
10717TIP3   OH253565   5.144   1.912   1.210  0.6719  0.0563  0.2899
10717TIP3    H153566   5.231   1.881   1.185  0.4806  0.6862 -1.2312
10717TIP3    H253567   5.089   1.894   1.134 -0.4154  0.1988  1.0172
10718TIP3   OH253568   4.507   0.239   1.471 -0.2201  0.5689  0.0480
10718TIP3    H153569   4.489   0.211   1.561  1.5351  0.6109  0.4508
10718TIP3    H253570   4.484   0.163   1.417  0.7781 -0.2519  0.7518
10719TIP3   OH253571   3.977   5.026  12.458  0.2445 -0.3613  0.6762
10719TIP3    H153572   3.887   4.995  12.446 -0.4268  1.4044  0.7362
10719TIP3    H253573   3.972   5.089  12.530  1.2421  0.7606 -0.1695
10720TIP3   OH253574   4.027   6.614  13.288 -0.0395 -0.4116 -0.4812
10720TIP3    H153575   4.031   6.518  13.287 -2.7509 -0.5964 -0.7082
10720TIP3    H253576   3.944   6.634  13.244  0.5239  2.0628 -0.5109
10721TIP3   OH253577   3.244   4.247   0.306  0.6342 -0.3002  0.0785
10721TIP3    H153578   3.150   4.246   0.292  0.5296  0.3062  0.6650
10721TIP3    H253579   3.275   4.164   0.271 -0.0386 -0.2586 -0.6359
10722TIP3   OH253580   0.469   5.115  11.500 -0.2798  0.2979 -0.1494
10722TIP3    H153581   0.524   5.185  11.466 -0.1911 -0.7317 -2.2766
10722TIP3    H253582   0.381   5.135  11.467 -0.8018  0.7762  1.4351
10723TIP3   OH253583   0.515   4.505   1.277  0.9796 -0.1324 -0.0916
10723TIP3    H153584   0.466   4.472   1.352 -0.5524 -0.0146 -1.0003
10723TIP3    H253585   0.469   4.586   1.253  1.1973 -0.3752 -1.3864
10724TIP3   OH253586   2.865   4.287  16.282 -0.7588 -0.2513 -0.4911
10724TIP3    H153587   2.831   4.214  16.333 -1.3284  0.3088 -0.0537
10724TIP3    H253588   2.788   4.329  16.244 -0.4848  0.4487 -0.2880
10725TIP3   OH253589   0.405   5.662   4.111 -0.6585 -0.4971  0.4098
10725TIP3    H153590   0.416   5.568   4.096 -1.9114 -0.6388  0.3236
10725TIP3    H253591   0.317   5.682   4.081  0.2757  1.1315 -1.5489
10726TIP3   OH253592   1.644   3.188   6.050  0.8435 -0.3737 -0.2338
10726TIP3    H153593   1.572   3.181   6.112 -0.6638  2.6286 -1.4379
10726TIP3    H253594   1.612   3.148   5.970  0.5049  0.8631 -0.7377
10727TIP3   OH253595   5.712   0.452  16.186 -0.3444  0.1710 -0.1661
10727TIP3    H153596   5.642   0.518  16.192  0.1795  0.6648  0.7868
10727TIP3    H253597   5.780   0.493  16.133 -0.0104  0.4292  0.4426
10728TIP3   OH253598   2.611   5.700  16.611 -0.1325  0.2292 -0.0375
10728TIP3    H153599   2.591   5.790  16.585  0.1801  0.2523 -0.2183
10728TIP3    H253600   2.660   5.665  16.536 -0.1212 -0.0401  0.0953
10729TIP3   OH253601   2.366   0.821  14.278  0.1759 -0.0471 -0.5386
10729TIP3    H153602   2.419   0.803  14.201  1.5463  2.4196 -0.2700
10729TIP3    H253603   2.306   0.746  14.284  0.7001 -0.8020 -3.3585
10730TIP3   OH253604   1.129   5.638   3.280  0.2786  0.5534  0.1100
10730TIP3    H153605   1.089   5.686   3.353 -0.9946  2.1908 -1.5721
10730TIP3    H253606   1.170   5.562   3.322 -0.2974  1.4647  2.5308
10731TIP3   OH253607   1.050   3.953  17.211  0.6093  0.2646 -0.6712
10731TIP3    H153608   0.992   4.023  17.243 -0.1042 -0.8285  0.5364
10731TIP3    H253609   1.065   3.974  17.119 -1.9895  0.4296 -1.1320
10732TIP3   OH253610   1.837   3.030   2.179 -0.2521 -0.1153  0.0547
10732TIP3    H153611   1.923   3.001   2.210 -0.4061  1.8868  2.6854
10732TIP3    H253612   1.775   2.982   2.233 -0.8136 -0.8635 -1.2054
10733TIP3   OH253613   0.528   4.343   0.354  0.2425  0.3148  0.1387
10733TIP3    H153614   0.518   4.287   0.277 -0.7587  0.8635 -0.1418
10733TIP3    H253615   0.525   4.432   0.320  1.1419  0.5579  0.6661
10734TIP3   OH253616   3.642   1.827  12.487  0.5078 -0.2925  0.1964
10734TIP3    H153617   3.637   1.813  12.582 -2.3924  0.1910  0.2123
10734TIP3    H253618   3.592   1.754  12.450 -2.2052  1.7943 -0.6005
10735TIP3   OH253619   5.142   6.700  12.192 -0.3172 -0.3310 -0.1625
10735TIP3    H153620   5.200   6.655  12.253  1.2296  0.8132 -0.7021
10735TIP3    H253621   5.058   6.705  12.237  0.3722 -0.8452  1.2291
10736TIP3   OH253622   1.184   3.350   5.679 -0.2614  0.0978  1.2191
10736TIP3    H153623   1.180   3.255   5.684  0.7550 -0.2233 -1.9019
10736TIP3    H253624   1.096   3.379   5.704 -1.3708 -1.8534 -0.1237
10737TIP3   OH253625   0.164   0.067   5.359 -0.2856 -0.2282 -0.4376
10737TIP3    H153626   0.072   0.067   5.387 -0.3125  0.7780 -0.4829
10737TIP3    H253627   0.212   0.095   5.437 -0.0563 -0.3507 -0.5341
10738TIP3   OH253628   2.149   1.324   4.029  0.1661  0.2728 -0.0669
10738TIP3    H153629   2.189   1.321   4.116  0.9162  0.2438 -0.4040
10738TIP3    H253630   2.060   1.291   4.043 -0.0232  1.1055  0.8423
10739TIP3   OH253631   5.592   1.977  13.699 -0.1473  0.4896 -0.1068
10739TIP3    H153632   5.582   1.886  13.670 -1.4061  0.8641 -0.9159
10739TIP3    H253633   5.569   1.975  13.792  1.2398 -0.2532  0.2396
10740TIP3   OH253634   4.979   0.371   3.371 -0.3602  0.8288  0.0700
10740TIP3    H153635   5.044   0.395   3.437 -0.6749  0.1929  0.6233
10740TIP3    H253636   5.030   0.348   3.294  0.1548 -0.7026  0.8185
10741TIP3   OH253637   5.000   5.710   3.952 -0.2699  0.1279  0.2141
10741TIP3    H153638   4.928   5.761   3.914 -0.1792 -0.3027 -0.5701
10741TIP3    H253639   4.960   5.627   3.976  0.0549 -0.3141 -0.7151
10742TIP3   OH253640   4.736   6.463   3.703  0.1467 -0.0080  1.0086
10742TIP3    H153641   4.677   6.518   3.651 -0.8825 -2.1874 -0.2557
10742TIP3    H253642   4.817   6.462   3.652 -0.3092 -0.7919  0.2808
10743TIP3   OH253643   2.554   0.060   5.714 -0.6026  0.9621 -0.0383
10743TIP3    H153644   2.598   0.124   5.770  0.3346  1.7766 -1.6338
10743TIP3    H253645   2.609  -0.018   5.719  0.0420  1.3675 -0.5800
10744TIP3   OH253646   5.320   2.829   2.897  1.0889  0.6497 -0.0800
10744TIP3    H153647   5.234   2.822   2.939  1.1772  0.3317  0.0543
10744TIP3    H253648   5.305   2.804   2.806  0.8187  1.7350 -0.3442
10745TIP3   OH253649   6.049   2.746   5.190  0.1270  0.2422  0.2866
10745TIP3    H153650   5.977   2.683   5.184  1.0437 -1.1534  2.5216
10745TIP3    H253651   6.102   2.714   5.263  0.8548  3.4265  1.3187
10746TIP3   OH253652   2.893   4.563   6.276  0.1228  0.4544 -0.1494
10746TIP3    H153653   2.982   4.574   6.242  0.0671 -0.9131 -0.7890
10746TIP3    H253654   2.845   4.523   6.204 -0.9310  0.8586  0.3144
10747TIP3   OH253655   5.898   4.668  13.834 -0.4947 -0.2301 -0.1528
10747TIP3    H153656   5.812   4.679  13.873 -0.2064  1.0129  0.1555
10747TIP3    H253657   5.958   4.714  13.893  0.6297 -2.3820  0.4976
10748TIP3   OH253658   1.028   2.678   3.343 -0.2238 -0.5822 -0.4207
10748TIP3    H153659   0.961   2.746   3.335 -1.8840 -2.2444 -1.5074
10748TIP3    H253660   1.084   2.690   3.267  0.9141  0.9435  0.5980
10749TIP3   OH253661   2.424   2.128  15.909 -0.0218 -0.1895 -0.3320
10749TIP3    H153662   2.502   2.086  15.873 -1.4510 -2.3620 -1.1111
10749TIP3    H253663   2.436   2.124  16.004  0.2192 -1.7904 -0.3990
10750TIP3   OH253664   0.314   4.298   0.854  0.1291  0.3663 -0.2174
10750TIP3    H153665   0.377   4.236   0.891 -1.5075 -2.2277 -1.5335
10750TIP3    H253666   0.365   4.348   0.789  1.2946 -0.1632  0.2581
10751TIP3   OH253667   3.363   4.322   3.393  0.2139  0.9040  0.1467
10751TIP3    H153668   3.396   4.395   3.445 -0.9384  0.8955  0.9234
10751TIP3    H253669   3.272   4.347   3.373 -0.0528 -0.1216  0.0492
10752TIP3   OH253670   1.998   0.857   0.398  0.6396 -0.7643  0.2651
10752TIP3    H153671   1.996   0.885   0.489 -1.1946  1.1357 -0.2636
10752TIP3    H253672   2.075   0.900   0.361 -0.1495  0.7909  0.3258
10753TIP3   OH253673   5.394   1.487   4.170  0.3873 -0.5157 -0.6622
10753TIP3    H153674   5.319   1.545   4.185 -0.8546 -1.1750 -3.5434
10753TIP3    H253675   5.423   1.461   4.257 -2.2647  0.3814  0.5790
10754TIP3   OH253676   4.425   0.497   1.149 -0.1193 -0.3828  0.3286
10754TIP3    H153677   4.333   0.521   1.146 -0.4708 -1.4075  1.8620
10754TIP3    H253678   4.452   0.493   1.057 -1.5933 -0.0437 -0.1336
10755TIP3   OH253679   2.765   0.101   0.325  0.0338  0.0432  0.0382
10755TIP3    H153680   2.819   0.180   0.322  5.2802 -3.0760  0.3441
10755TIP3    H253681   2.765   0.076   0.417  1.5683 -2.0351 -0.4582
10756TIP3   OH253682   4.457   6.616  17.150 -0.1382  0.4394 -0.3288
10756TIP3    H153683   4.397   6.658  17.212  0.2567  0.6108 -0.0582
10756TIP3    H253684   4.542   6.616  17.195 -0.4646 -2.3249  0.4623
10757TIP3   OH253685   4.149   0.316   6.185 -0.0278  0.0146  0.0229
10757TIP3    H153686   4.117   0.230   6.213 -0.0595  0.0060 -0.0385
10757TIP3    H253687   4.244   0.306   6.180  0.0345  0.2035  0.7595
10758TIP3   OH253688   1.332   3.233  10.578 -0.0195  0.3138 -0.1479
10758TIP3    H153689   1.397   3.179  10.623 -0.4829 -0.2827 -0.1911
10758TIP3    H253690   1.325   3.312  10.632  1.1920  0.6658 -0.4777
10759TIP3   OH253691   2.729   3.824   2.708 -0.1294  0.2350 -0.0514
10759TIP3    H153692   2.682   3.877   2.771  0.5700  2.8113 -1.5549
10759TIP3    H253693   2.662   3.769   2.668 -0.6078 -1.2874  2.6560
10760TIP3   OH253694   4.458   0.372  15.355  0.3451  0.3722  0.3369
10760TIP3    H153695   4.435   0.280  15.356 -2.0524  0.9023  0.9796
10760TIP3    H253696   4.525   0.381  15.423  1.1939 -0.9772 -0.2743
10761TIP3   OH253697   5.805   0.525  10.409  0.5889  0.2582 -0.0169
10761TIP3    H153698   5.892   0.535  10.448  0.9595 -0.1898 -0.7131
10761TIP3    H253699   5.744   0.536  10.483  1.2880 -1.0533  0.7977
10762TIP3   OH253700   3.436   5.254   0.127 -0.4104  0.0311  0.0912
10762TIP3    H153701   3.531   5.241   0.129 -0.5369 -0.8792  0.4095
10762TIP3    H253702   3.425   5.349   0.135  0.5276  0.3505 -1.9465
10763TIP3   OH253703   5.427   0.311  13.558 -0.3148  0.1130  0.0367
10763TIP3    H153704   5.337   0.331  13.582 -1.0527  1.0390 -3.0265
10763TIP3    H253705   5.426   0.306  13.462  3.0908  1.3032 -0.2215
10764TIP3   OH253706   3.722   5.549  13.976  0.0827 -0.1300  0.4169
10764TIP3    H153707   3.801   5.543  13.921 -0.9193  1.9158 -1.4134
10764TIP3    H253708   3.718   5.641  14.001 -0.0101 -0.8179  3.2987
10765TIP3   OH253709   2.766   2.381  14.491  0.1262  0.1536  0.1219
10765TIP3    H153710   2.836   2.412  14.433 -0.3572 -0.6682 -0.9443
10765TIP3    H253711   2.741   2.458  14.541  2.4063  0.2691  1.2222
10766TIP3   OH253712   2.807   0.606  14.443  0.1349 -0.0573 -0.4505
10766TIP3    H153713   2.798   0.701  14.446 -0.9745 -0.0695 -2.1071
10766TIP3    H253714   2.884   0.587  14.497  1.8578  1.9821 -2.0291
10767TIP3   OH253715   0.823   3.803   4.199  0.7521  0.1316 -0.2793
10767TIP3    H153716   0.872   3.742   4.255 -1.8820 -0.4598  1.6365
10767TIP3    H253717   0.766   3.746   4.147 -0.6567  0.8331  0.4290
10768TIP3   OH253718   2.545   3.055  15.842  0.5067 -0.5787 -0.3001
10768TIP3    H153719   2.480   3.121  15.866 -0.6547 -1.1210 -1.7858
10768TIP3    H253720   2.587   3.090  15.764 -1.3948 -2.2957 -2.2251
10769TIP3   OH253721   3.165   1.562  12.160  0.0377 -0.0128  0.8900
10769TIP3    H153722   3.094   1.609  12.204  0.4151  0.1502  1.3460
10769TIP3    H253723   3.167   1.476  12.202 -0.9734 -0.6384 -0.2851
10770TIP3   OH253724   0.556   0.222  14.106  0.1687  0.8773  0.2770
10770TIP3    H153725   0.579   0.207  14.198 -0.6951 -1.4741  0.1881
10770TIP3    H253726   0.483   0.284  14.110  0.9775  1.8293  1.0529
10771TIP3   OH253727   0.410   0.914   1.024  0.3708 -0.2834  0.0771
10771TIP3    H153728   0.477   0.953   0.967  1.4676  0.1225  1.6068
10771TIP3    H253729   0.412   0.821   1.003  0.7057 -0.1386 -0.5761
10772TIP3   OH253730   5.765   5.032   0.648 -0.0386  0.0557 -0.5152
10772TIP3    H153731   5.750   5.022   0.742  1.0531 -1.4664 -0.4689
10772TIP3    H253732   5.728   5.118   0.627  0.9191  1.0492  1.5568
10773TIP3   OH253733   3.654   1.743   0.736  0.2821  0.3315 -0.4036
10773TIP3    H153734   3.670   1.794   0.657  0.5199  1.4219  0.3363
10773TIP3    H253735   3.609   1.664   0.704 -0.6036  1.2451 -1.4960
10774TIP3   OH253736   4.012   5.199  10.181  0.0474 -0.4100 -0.1467
10774TIP3    H153737   4.086   5.223  10.237  0.5394  0.4663 -1.1514
10774TIP3    H253738   3.942   5.259  10.206  0.1917 -0.1750 -0.3018
10775TIP3   OH253739   6.008   2.766  10.371 -0.8411  0.0966  0.5501
10775TIP3    H153740   6.084   2.757  10.313 -1.0193 -3.4645  0.6772
10775TIP3    H253741   6.045   2.769  10.459 -0.7922  1.0437  0.5153
10776TIP3   OH253742   6.449   1.333   3.849 -0.1666  0.4957 -1.1988
10776TIP3    H153743   6.429   1.245   3.817 -1.4772  0.1857  0.3558
10776TIP3    H253744   6.455   1.386   3.770 -1.1878 -0.6360 -2.0808
10777TIP3   OH253745   5.028   2.938   0.832 -0.0520  0.3010 -0.3440
10777TIP3    H153746   5.104   2.986   0.798  0.5621 -0.0626  0.5001
10777TIP3    H253747   4.967   3.007   0.859  0.3442  0.6053 -0.2083
10778TIP3   OH253748   1.290   5.262   2.205  0.6141  0.0331 -0.4226
10778TIP3    H153749   1.306   5.302   2.291  0.4876  0.5321 -0.6249
10778TIP3    H253750   1.355   5.304   2.148  2.1864 -1.8647 -0.1472
10779TIP3   OH253751   2.878   5.690  12.333  0.6024  0.2821  0.3851
10779TIP3    H153752   2.910   5.774  12.301 -1.8586  0.8131 -0.9059
10779TIP3    H253753   2.868   5.703  12.428  0.2671  1.4444  0.2026
10780TIP3   OH253754   3.754   2.201  10.908  0.6251  0.6076 -0.0507
10780TIP3    H153755   3.717   2.267  10.850  1.0959  1.4448  0.5822
10780TIP3    H253756   3.785   2.132  10.849 -2.1505 -0.2934 -0.6002
10781TIP3   OH253757   5.783   3.972   1.932  0.3955 -0.0929  0.0067
10781TIP3    H153758   5.704   3.980   1.986  0.8650  0.6274  0.6057
10781TIP3    H253759   5.750   3.947   1.846 -0.8296  2.9829 -0.5746
10782TIP3   OH253760   1.899   4.255  11.884 -0.4175 -0.1054 -0.9505
10782TIP3    H153761   1.949   4.248  11.803  0.0091  0.2955 -0.7261
10782TIP3    H253762   1.823   4.199  11.870 -0.1998 -0.2667 -1.5160
10783TIP3   OH253763   5.924   5.365   2.084  0.0633 -0.2357 -0.6069
10783TIP3    H153764   5.904   5.387   1.993  1.8210  0.8254 -0.7874
10783TIP3    H253765   5.937   5.270   2.083  0.8875 -0.1373 -1.6654
10784TIP3   OH253766   0.728   1.923   3.540 -0.4589  0.6165 -0.0511
10784TIP3    H153767   0.687   2.008   3.557 -0.2779  0.7154 -0.1168
10784TIP3    H253768   0.655   1.867   3.513 -0.6018  0.7105  0.1312
10785TIP3   OH253769   1.846   1.326  12.271 -0.2323 -0.5726  0.4589
10785TIP3    H153770   1.879   1.263  12.336  1.9357  1.6877  1.7565
10785TIP3    H253771   1.825   1.404  12.323  0.0124  0.7788 -1.3836
10786TIP3   OH253772   5.917   4.311  14.370  0.1598  0.1184 -0.1432
10786TIP3    H153773   5.838   4.331  14.420  0.6580 -1.9004  1.5951
10786TIP3    H253774   5.988   4.356  14.417  0.2499  0.9540 -1.0242
10787TIP3   OH253775   2.312   0.338  14.723 -0.3717 -0.4263 -0.2284
10787TIP3    H153776   2.366   0.376  14.792  2.0576 -1.2157 -1.5619
10787TIP3    H253777   2.256   0.411  14.694  1.3852  1.0650 -0.0986
10788TIP3   OH253778   3.408   5.544   5.145  0.2654  0.0723  0.1811
10788TIP3    H153779   3.349   5.483   5.188 -0.1065  0.1324 -0.2356
10788TIP3    H253780   3.384   5.630   5.180 -2.0075  0.5307 -2.1841
10789TIP3   OH253781   1.130   6.363   4.993 -0.1124 -0.3285 -0.4000
10789TIP3    H153782   1.096   6.289   5.042 -1.5940  0.3003 -0.4215
10789TIP3    H253783   1.211   6.330   4.953  0.0056 -1.4835  0.7118
10790TIP3   OH253784   4.207   0.479   2.890 -0.5148  0.1976  0.2280
10790TIP3    H153785   4.178   0.421   2.820  1.2043 -0.9254  0.3794
10790TIP3    H253786   4.138   0.544   2.899 -2.6777 -1.9855  0.2496
10791TIP3   OH253787   4.582   5.474   2.284 -0.4376 -0.1003 -0.0052
10791TIP3    H153788   4.587   5.563   2.247  0.5307 -0.6097 -1.1773
10791TIP3    H253789   4.647   5.474   2.354 -1.1478  0.3981  0.6709
10792TIP3   OH253790   3.741   5.425   5.273 -0.1788  0.3431  0.0293
10792TIP3    H153791   3.728   5.514   5.240 -1.0662 -0.1569 -1.0283
10792TIP3    H253792   3.808   5.434   5.340 -1.4931  2.0897  1.2082
10793TIP3   OH253793   3.822   6.774   4.624  0.4019  0.0363 -0.6307
10793TIP3    H153794   3.906   6.783   4.579  1.1858  2.1072  1.0522
10793TIP3    H253795   3.834   6.824   4.705 -1.9672 -0.9081  0.3694
10794TIP3   OH253796   0.522   2.772   4.418  0.1737 -0.0461 -0.7624
10794TIP3    H153797   0.595   2.780   4.358  0.9074 -0.7378  0.0179
10794TIP3    H253798   0.549   2.704   4.481 -1.0887 -0.2584 -0.4123
10795TIP3   OH253799   6.637   5.922  16.966 -1.1522 -0.1755 -0.7752
10795TIP3    H153800   6.673   5.964  16.888  2.2196 -0.7805  0.3143
10795TIP3    H253801   6.560   5.976  16.988 -0.3908  1.8768 -2.6857
10796TIP3   OH253802   6.040   0.142  11.173  0.5395 -0.6941  0.1763
10796TIP3    H153803   5.995   0.073  11.221 -1.1138  0.6926  0.7171
10796TIP3    H253804   6.042   0.111  11.082 -1.2004 -0.9843  0.1963
10797TIP3   OH253805   3.228   2.342  14.396  0.2589 -0.3300 -0.2916
10797TIP3    H153806   3.172   2.265  14.405 -0.5362 -0.0298 -2.2916
10797TIP3    H253807   3.281   2.325  14.319  1.0320  0.5631  0.0211
10798TIP3   OH253808   6.426   5.313  12.151 -0.1842  0.0203  0.1752
10798TIP3    H153809   6.335   5.289  12.169 -0.5483  0.7966 -0.5464
10798TIP3    H253810   6.476   5.232  12.166 -0.8871 -0.2111  1.3067
10799TIP3   OH253811   3.859   5.858  16.229 -0.2538 -0.2597 -0.4211
10799TIP3    H153812   3.911   5.890  16.156  0.8615  0.4930  0.6617
10799TIP3    H253813   3.802   5.791  16.191  1.2896 -0.8882 -1.7129
10800TIP3   OH253814   1.284   5.697   0.195 -0.1518 -0.3161 -0.7181
10800TIP3    H153815   1.213   5.655   0.243 -0.9147  1.2059 -0.4455
10800TIP3    H253816   1.250   5.708   0.106 -0.0160 -0.1503 -0.7504
10801TIP3   OH253817   4.275   2.670  13.744  0.3161 -0.3194 -0.0306
10801TIP3    H153818   4.286   2.632  13.831  0.8024 -0.2145 -0.0442
10801TIP3    H253819   4.185   2.647  13.719  0.3888 -0.9000  0.2285
10802TIP3   OH253820   5.913   2.546  11.977 -0.2750 -0.0618 -0.2494
10802TIP3    H153821   5.916   2.515  11.887 -1.6668 -2.2381  0.3615
10802TIP3    H253822   5.883   2.470  12.027  1.0511  0.9023  2.1498
10803TIP3   OH253823   1.452   1.236  14.368  0.2781 -0.6030  0.5134
10803TIP3    H153824   1.378   1.205  14.316  1.1571 -1.3761 -0.3254
10803TIP3    H253825   1.475   1.161  14.424  1.0426 -0.7436  0.0382
10804TIP3   OH253826   5.804   5.452  13.726  0.5519  0.3366  0.5511
10804TIP3    H153827   5.788   5.545  13.741  0.1805  0.0671  2.0271
10804TIP3    H253828   5.720   5.410  13.746  0.6855 -0.3256 -0.1884
10805TIP3   OH253829   4.992   2.111  11.714 -0.8203  0.5617 -0.3550
10805TIP3    H153830   5.012   2.047  11.783 -2.3688 -1.5873 -1.7789
10805TIP3    H253831   5.076   2.154  11.696  0.1951 -0.7748  0.9344
10806TIP3   OH253832   4.919   0.379  12.255  0.3269  0.4197 -0.5152
10806TIP3    H153833   4.914   0.396  12.349  2.1252 -0.9670 -0.1000
10806TIP3    H253834   4.854   0.310  12.240 -0.4276  1.0972 -0.4382
10807TIP3   OH253835   0.933   4.570  12.196  0.2300 -0.0260 -0.3542
10807TIP3    H153836   0.952   4.512  12.122  0.2854  0.1681 -0.4897
10807TIP3    H253837   0.837   4.573  12.200  0.2103 -0.9857  0.3154
10808TIP3   OH253838   6.361   3.998  15.332 -0.5398 -0.2744 -0.0161
10808TIP3    H153839   6.323   3.928  15.385  1.9148 -0.7932  1.2037
10808TIP3    H253840   6.455   3.983  15.337  0.0961  3.0642  0.2584
10809TIP3   OH253841   4.988   1.193   2.540 -0.5382  0.2437  0.0323
10809TIP3    H153842   5.063   1.233   2.495 -1.1543  0.7425 -0.5833
10809TIP3    H253843   4.964   1.119   2.485 -1.0671  0.6383 -0.2783
10810TIP3   OH253844   3.172   1.237  16.312 -0.3123 -0.7382  0.1282
10810TIP3    H153845   3.156   1.284  16.230 -0.5502 -1.6801 -0.3820
10810TIP3    H253846   3.086   1.207  16.340 -0.5663  1.5435  1.9840
10811TIP3   OH253847   6.704   3.591  10.950  0.3703 -0.4533 -0.2184
10811TIP3    H153848   6.704   3.523  10.882 -0.8693  0.0410 -0.7459
10811TIP3    H253849   6.625   3.573  11.001  0.2529  0.3357 -0.1109
10812TIP3   OH253850   5.485   6.166   4.787  0.0545  0.4065 -0.1329
10812TIP3    H153851   5.413   6.108   4.812  1.6006 -0.5332  2.6920
10812TIP3    H253852   5.455   6.253   4.813 -0.0363 -0.0076  1.2657
10813TIP3   OH253853   4.348   3.483  14.995  0.0233  0.3302 -0.3112
10813TIP3    H153854   4.392   3.499  14.912  0.1579 -1.0044 -0.5250
10813TIP3    H253855   4.275   3.545  14.997  1.2447  1.8245 -0.4412
10814TIP3   OH253856   5.112   4.022   2.921 -0.3772  0.1039  0.7498
10814TIP3    H153857   5.198   4.058   2.943 -0.7490  2.0728 -0.7192
10814TIP3    H253858   5.089   3.965   2.994  1.6071  0.5440  1.7623
10815TIP3   OH253859   5.781   6.441  11.614 -0.0681 -0.0567 -1.0454
10815TIP3    H153860   5.719   6.448  11.686 -0.2842 -0.6092 -1.1721
10815TIP3    H253861   5.740   6.379  11.553  1.1775 -1.4558 -0.5273
10816TIP3   OH253862   6.705   0.716   5.090 -0.5625 -0.2580  0.3750
10816TIP3    H153863   6.626   0.768   5.074  1.0717  3.0025  1.9770
10816TIP3    H253864   6.702   0.694   5.183  0.5910  0.3351  0.5790
10817TIP3   OH253865   5.668   1.867  12.726  0.1165 -0.5211  0.1692
10817TIP3    H153866   5.757   1.844  12.698 -0.1337 -1.2155 -0.0660
10817TIP3    H253867   5.673   1.868  12.822  0.6906  0.7257  0.1465
10818TIP3   OH253868   3.351   5.684   5.998 -0.4305 -0.0260  0.4115
10818TIP3    H153869   3.328   5.593   6.019 -1.7240  0.3217  0.6189
10818TIP3    H253870   3.380   5.721   6.081  2.1219 -0.7683 -0.0613
10819TIP3   OH253871   4.531   6.671   3.661  0.0049 -0.7058  0.2871
10819TIP3    H153872   4.509   6.755   3.621  1.6347  0.2710  1.3217
10819TIP3    H253873   4.509   6.606   3.595 -1.1765  0.5382 -0.5853
10820TIP3   OH253874   3.844   4.438   5.306 -0.1083 -0.0091 -0.0798
10820TIP3    H153875   3.785   4.512   5.306  0.3224  0.3964 -2.1913
10820TIP3    H253876   3.927   4.473   5.338 -0.7128 -0.3717  2.0130
10821TIP3   OH253877   2.248   0.427  13.626 -0.1699  0.3942  0.2476
10821TIP3    H153878   2.216   0.483  13.697 -1.6949  0.3838 -0.4020
10821TIP3    H253879   2.183   0.436  13.556  1.2222  0.3002 -1.1224
10822TIP3   OH253880   2.096   2.615  11.545  0.4164  0.4616 -0.3099
10822TIP3    H153881   2.168   2.553  11.550  0.2692  0.3300  0.3344
10822TIP3    H253882   2.131   2.695  11.584  0.0680  0.2495  0.4482
10823TIP3   OH253883   0.806   4.164   0.148 -0.2082  0.1558  0.2747
10823TIP3    H153884   0.714   4.185   0.165 -0.2217  0.3827 -0.0616
10823TIP3    H253885   0.851   4.249   0.151 -0.4143  0.4172 -2.0459
10824TIP3   OH253886   1.689   1.029   0.536  0.0073 -0.2376  0.1433
10824TIP3    H153887   1.626   0.961   0.511 -0.0804  0.1959 -0.8870
10824TIP3    H253888   1.769   1.005   0.489 -0.1893  0.6542 -0.6722
10825TIP3   OH253889   4.370   4.504   3.074 -0.3460  0.3480 -0.2144
10825TIP3    H153890   4.344   4.414   3.093 -0.7312  0.2224 -1.2728
10825TIP3    H253891   4.343   4.554   3.151  0.3594 -0.5186  0.6118
10826TIP3   OH253892   4.800   6.701  15.149 -0.7566 -0.6726 -0.1693
10826TIP3    H153893   4.773   6.621  15.194 -0.9864  0.0717  1.0479
10826TIP3    H253894   4.745   6.704  15.071 -0.4087 -1.9447 -0.4907
10827TIP3   OH253895   1.005   5.946  16.426  0.9692 -0.1491 -0.1210
10827TIP3    H153896   0.925   5.991  16.454  0.0757 -0.7264 -1.6167
10827TIP3    H253897   1.067   5.960  16.497 -0.4808  0.2665  1.1041
10828TIP3   OH253898   0.540   2.808   7.176 -0.0081  0.2867  0.1999
10828TIP3    H153899   0.603   2.776   7.112 -1.0015 -2.8014  0.5386
10828TIP3    H253900   0.457   2.812   7.128 -0.4478 -0.5201  0.8384
10829TIP3   OH253901   2.394   5.423   0.558  0.3880 -0.4037  0.3929
10829TIP3    H153902   2.479   5.462   0.542 -0.3394  1.4845  0.8783
10829TIP3    H253903   2.410   5.354   0.623  1.5278 -0.1206  0.4169
10830TIP3   OH253904   1.414   5.483   1.843  0.5951 -0.1238  0.0101
10830TIP3    H153905   1.462   5.439   1.913 -0.9037 -1.0031  0.5310
10830TIP3    H253906   1.354   5.541   1.889  0.5552  0.3226 -0.6001
10831TIP3   OH253907   2.544   6.006   4.656 -0.1475 -0.3321 -0.1170
10831TIP3    H153908   2.529   6.015   4.750  0.9356  0.1228  0.0303
10831TIP3    H253909   2.578   5.917   4.646 -0.6742 -0.5368 -0.1492
10832TIP3   OH253910   4.769   2.348  13.567 -0.2017  0.0161  0.1323
10832TIP3    H153911   4.841   2.385  13.618  0.4837 -0.8961 -0.1411
10832TIP3    H253912   4.690   2.382  13.608  0.3753  2.2045 -0.4172
10833TIP3   OH253913   3.984   2.052  13.614  0.4279 -0.2285 -0.1867
10833TIP3    H153914   4.000   2.018  13.702 -0.6554 -1.7375 -0.5379
10833TIP3    H253915   3.906   2.107  13.623 -0.5143 -1.4836 -0.4216
10834TIP3   OH253916   4.101   6.477  14.622 -0.5145  0.0659 -0.4827
10834TIP3    H153917   4.105   6.416  14.696  1.0011  0.8418  0.1128
10834TIP3    H253918   4.134   6.427  14.547 -0.6198 -0.2617 -0.3119
10835TIP3   OH253919   6.212   6.241  13.967  0.7168  0.1386  0.2271
10835TIP3    H153920   6.223   6.146  13.960  1.8550  0.2424  0.3864
10835TIP3    H253921   6.291   6.271  14.011  1.2524  1.3551 -1.4392
10836TIP3   OH253922   0.835   2.014   1.151 -0.2688  0.0012 -0.7511
10836TIP3    H153923   0.824   2.059   1.068 -2.0244  1.3107  0.1333
10836TIP3    H253924   0.919   2.045   1.185 -0.0260  0.2370 -1.5537
10837TIP3   OH253925   3.274   1.590  11.913  0.2629 -0.5622 -0.4116
10837TIP3    H153926   3.213   1.580  11.986 -0.2272  0.1183 -0.7151
10837TIP3    H253927   3.341   1.523  11.928 -0.9206 -1.7973 -0.4473
10838TIP3   OH253928   1.309   0.779  15.867 -0.2477 -0.4146  0.0449
10838TIP3    H153929   1.231   0.757  15.918 -0.0821  0.7550  0.8406
10838TIP3    H253930   1.292   0.868  15.835  1.1688  0.2537  1.0646
10839TIP3   OH253931   2.570   4.668  12.715 -0.2665  0.0115  0.1549
10839TIP3    H153932   2.565   4.586  12.764 -0.0738 -0.8861 -1.2567
10839TIP3    H253933   2.659   4.700  12.730 -0.0953 -0.4419  0.1260
10840TIP3   OH253934   1.136   2.898  16.267  0.5080  0.5677  0.4803
10840TIP3    H153935   1.090   2.850  16.336 -0.7144  0.8611 -0.1039
10840TIP3    H253936   1.228   2.876  16.281  0.0597 -1.4920  0.5993
10841TIP3   OH253937   3.995   2.862   5.223  0.7045 -0.2277 -0.2433
10841TIP3    H153938   3.921   2.906   5.266  1.2123 -0.0727  0.4976
10841TIP3    H253939   3.954   2.803   5.160 -0.0869 -0.6281  0.6071
10842TIP3   OH253940   6.531   6.725   4.065 -0.1248 -0.1937 -0.3726
10842TIP3    H153941   6.489   6.761   3.987  0.3588 -0.3090 -0.6891
10842TIP3    H253942   6.557   6.636   4.039  3.0479  0.8512 -1.2356
10843TIP3   OH253943   1.861   3.118   3.872 -0.3170  0.2647 -0.4682
10843TIP3    H153944   1.873   3.108   3.778  0.4404 -0.5155 -0.3004
10843TIP3    H253945   1.834   3.209   3.883 -1.6229  0.0433 -1.5379
10844TIP3   OH253946   6.773   1.827   1.714  0.0808 -0.3869 -0.1920
10844TIP3    H153947   6.782   1.738   1.745 -0.0787 -0.2843  0.1514
10844TIP3    H253948   6.705   1.866   1.770  0.7216  0.1942  0.1938
10845TIP3   OH253949   1.344   6.532  15.743 -0.0899 -0.1854  0.1696
10845TIP3    H153950   1.355   6.625  15.721  0.9200  0.1156  1.7754
10845TIP3    H253951   1.394   6.521  15.824 -1.4868 -1.7867  0.8617
10846TIP3   OH253952   0.959   4.842   4.959  0.5336 -0.1393 -0.0848
10846TIP3    H153953   0.910   4.827   5.040  1.9495 -1.6908  0.5262
10846TIP3    H253954   0.917   4.786   4.895  0.5075 -0.2372  0.0180
10847TIP3   OH253955   6.118   6.413   5.348 -0.0176  0.1373  0.3384
10847TIP3    H153956   6.064   6.451   5.418  0.2903 -1.6047  1.6085
10847TIP3    H253957   6.208   6.434   5.373  0.1089 -0.7138  0.6402
10848TIP3   OH253958   2.135   4.646   4.117  0.0898  0.4903 -0.2344
10848TIP3    H153959   2.114   4.726   4.165 -0.0597 -0.2230  0.9409
10848TIP3    H253960   2.112   4.665   4.026 -0.2161  1.6719  0.0775
10849TIP3   OH253961   4.358   3.594  14.231  0.1049  0.5218 -0.1917
10849TIP3    H153962   4.294   3.664  14.244  1.0201  1.1366  1.1392
10849TIP3    H253963   4.371   3.591  14.136 -2.7345 -0.4061 -0.6713
10850TIP3   OH253964   0.558   0.768   4.777  0.7424  0.2944 -0.4501
10850TIP3    H153965   0.464   0.780   4.785  0.4463 -1.5252 -0.7038
10850TIP3    H253966   0.588   0.747   4.866  0.7880  0.2129 -0.4836
10851TIP3   OH253967   5.679   1.365  16.761 -0.4588 -0.2680 -0.0394
10851TIP3    H153968   5.641   1.438  16.810 -0.1952 -0.4140  0.3815
10851TIP3    H253969   5.773   1.379  16.766 -0.2988 -1.6987  1.7278
10852TIP3   OH253970   4.315   2.880  16.638  0.4960 -0.2937 -0.2310
10852TIP3    H153971   4.270   2.852  16.718  1.1270 -0.8735 -0.0681
10852TIP3    H253972   4.274   2.963  16.615  0.2671 -0.1496  0.6652
10853TIP3   OH253973   5.313   0.303   2.262 -0.3801  0.2961  0.5327
10853TIP3    H153974   5.286   0.346   2.180  1.3865  2.6746  1.0826
10853TIP3    H253975   5.373   0.234   2.234 -0.4177  0.5573 -0.2201
10854TIP3   OH253976   5.311   3.610  14.077 -0.0885 -0.6095 -0.3497
10854TIP3    H153977   5.313   3.646  14.166  1.8315 -0.7541 -0.2858
10854TIP3    H253978   5.324   3.516  14.088 -0.4825 -0.7147 -0.7488
10855TIP3   OH253979   5.855   4.696   1.157  0.1691  0.0207  0.4102
10855TIP3    H153980   5.842   4.708   1.251 -1.1524  2.1319  0.0209
10855TIP3    H253981   5.780   4.644   1.128  0.2304 -0.0752  0.4234
10856TIP3   OH253982   1.798   0.471  13.789  0.0318  0.4053  0.5728
10856TIP3    H153983   1.828   0.380  13.785  1.5278  0.8815  0.0855
10856TIP3    H253984   1.714   0.471  13.742  0.6167 -0.5098 -0.5132
10857TIP3   OH253985   6.402   2.036  13.682 -0.2487 -0.4140  1.2624
10857TIP3    H153986   6.342   2.035  13.607  0.4953  0.0336  0.6522
10857TIP3    H253987   6.487   2.014  13.646 -0.1818 -1.9717  2.2800
10858TIP3   OH253988   0.434   1.526  13.386 -0.5838 -0.4123  0.1019
10858TIP3    H153989   0.507   1.465  13.377  1.5803  1.8778  1.0157
10858TIP3    H253990   0.415   1.526  13.480 -0.0948  0.7715  0.2156
10859TIP3   OH253991   6.283   4.709   5.800  0.6927  0.2311  0.2654
10859TIP3    H153992   6.368   4.742   5.772  0.8151  0.0445  0.4112
10859TIP3    H253993   6.304   4.631   5.852  0.3763 -0.6425 -0.8627
10860TIP3   OH253994   6.482   3.379  14.979 -0.4257  0.1765 -0.2429
10860TIP3    H153995   6.432   3.301  15.006 -0.5057 -0.0384 -1.0010
10860TIP3    H253996   6.541   3.395  15.052 -2.0650  0.8575  1.0173
10861TIP3   OH253997   6.725   4.437  11.434  0.6284  0.2034  0.2658
10861TIP3    H153998   6.696   4.347  11.443 -1.3526  0.8834  1.0051
10861TIP3    H253999   6.777   4.454  11.513 -0.3136  0.1693  0.9068
10862TIP3   OH254000   2.158   0.351   3.977  0.0284  0.0227  0.7143
10862TIP3    H154001   2.150   0.377   4.069 -1.5210 -1.2378  0.9865
10862TIP3    H254002   2.098   0.410   3.931  1.0747  0.8908  0.4502
10863TIP3   OH254003   3.384   2.700   0.643  0.3489  0.3962  0.5157
10863TIP3    H154004   3.356   2.711   0.552 -0.4269 -0.2275  0.6680
10863TIP3    H254005   3.396   2.606   0.653 -1.7140  0.2140  1.6495
10864TIP3   OH254006   4.346   4.707  14.369  0.8681  0.3826 -0.2804
10864TIP3    H154007   4.264   4.749  14.394  0.2126 -0.9397 -0.1118
10864TIP3    H254008   4.411   4.778  14.369 -0.2403  1.4229 -0.3077
10865TIP3   OH254009   3.923   5.808  11.084  0.0338  0.4151  0.4081
10865TIP3    H154010   3.952   5.850  11.003 -0.7404  1.1207  0.4810
10865TIP3    H254011   3.882   5.726  11.055 -0.5287  0.8154  0.0481
10866TIP3   OH254012   3.324   5.998  13.557 -0.1270  0.4478 -0.4281
10866TIP3    H154013   3.402   5.987  13.504 -0.0773  0.7087 -0.4105
10866TIP3    H254014   3.356   6.015  13.646 -0.2125 -1.4279  0.0008
10867TIP3   OH254015   2.377   2.324  14.041  0.1540 -0.8933 -0.1704
10867TIP3    H154016   2.328   2.256  13.995 -0.6022  1.1658 -2.6395
10867TIP3    H254017   2.332   2.405  14.018  2.0232  0.6322  1.2678
10868TIP3   OH254018   1.215   3.907   1.658  0.4077  0.3352 -0.1304
10868TIP3    H154019   1.215   3.936   1.567  0.2239  0.1119 -0.2021
10868TIP3    H254020   1.165   3.975   1.705 -0.3349 -0.0441 -0.3569
10869TIP3   OH254021   3.276   2.450  14.056  1.0114 -0.1595 -0.4079
10869TIP3    H154022   3.227   2.532  14.056 -0.0468 -0.7214  2.1518
10869TIP3    H254023   3.260   2.413  13.969 -1.6958  0.5260 -0.2864
10870TIP3   OH254024   5.022   2.865  12.748 -0.1269 -0.2337 -0.4349
10870TIP3    H154025   5.097   2.881  12.806  0.0745 -1.4970 -0.3081
10870TIP3    H254026   4.954   2.832  12.807 -0.6852  0.5990 -0.5998
10871TIP3   OH254027   4.200   2.828   2.658 -0.1057  0.0210  0.2064
10871TIP3    H154028   4.187   2.796   2.747  0.8637  0.0022  0.3429
10871TIP3    H254029   4.117   2.872   2.637 -0.4798 -0.2963  0.9699
10872TIP3   OH254030   5.475   2.190  13.588  0.1331 -0.3746 -0.0444
10872TIP3    H154031   5.518   2.114  13.627 -1.2907 -0.8265  0.6827
10872TIP3    H254032   5.438   2.157  13.506 -1.8223 -0.9155  0.9961
10873TIP3   OH254033   2.859   3.138  12.598  0.2778 -0.5066 -0.2702
10873TIP3    H154034   2.946   3.174  12.616 -0.0666 -0.1894  0.8077
10873TIP3    H254035   2.816   3.204  12.545  0.1750 -0.0012  0.4392
10874TIP3   OH254036   1.511   2.453  13.428  0.1572 -0.5737 -0.2292
10874TIP3    H154037   1.491   2.490  13.515  1.3731 -0.7837  0.1517
10874TIP3    H254038   1.467   2.512  13.367  2.1288  1.6281  0.3494
10875TIP3   OH254039   3.311   2.662   5.399  0.1540  0.2967  0.2820
10875TIP3    H154040   3.220   2.693   5.401  0.7377  2.3234 -1.2861
10875TIP3    H254041   3.309   2.586   5.341 -0.6002  0.1341  0.5107
10876TIP3   OH254042   6.581   1.538   1.657  0.2446  0.5076 -0.3423
10876TIP3    H154043   6.516   1.468   1.651  1.8860 -1.0291 -1.1676
10876TIP3    H254044   6.607   1.540   1.750  0.7537 -0.5628 -0.4467
10877TIP3   OH254045   1.038   5.864   4.514 -0.1908  0.3337  0.0023
10877TIP3    H154046   1.133   5.865   4.513 -0.1916  0.6838  0.2931
10877TIP3    H254047   1.014   5.874   4.606 -0.5094  0.3780 -0.0831
10878TIP3   OH254048   2.803   4.807  13.471 -0.6604  0.4973 -0.4988
10878TIP3    H154049   2.885   4.842  13.436 -1.3721  0.6156 -2.1053
10878TIP3    H254050   2.812   4.818  13.566  0.7589  1.4329 -0.7014
10879TIP3   OH254051   3.096   0.205   4.509  0.2374  0.0731 -0.3711
10879TIP3    H154052   3.067   0.258   4.435  0.2916 -1.6005 -1.6429
10879TIP3    H254053   3.188   0.230   4.521 -0.2856  1.7569  0.4357
10880TIP3   OH254054   1.250   4.769  14.058  0.1846  0.4106 -0.2345
10880TIP3    H154055   1.156   4.785  14.068  0.2969  0.0659  1.8155
10880TIP3    H254056   1.260   4.674  14.066  0.6818  0.4065 -0.8047
10881TIP3   OH254057   3.275   1.161   2.722 -0.4209 -0.2848  0.0608
10881TIP3    H154058   3.237   1.077   2.746 -0.2381 -0.3905 -0.0212
10881TIP3    H254059   3.338   1.140   2.653  0.1376 -0.1666  0.5313
10882TIP3   OH254060   3.037   2.342   3.236 -0.2605 -0.2107 -0.3510
10882TIP3    H154061   3.038   2.356   3.141  0.2768 -2.3587 -0.7302
10882TIP3    H254062   3.129   2.342   3.261 -0.3742 -0.1966  0.0648
10883TIP3   OH254063   2.185   4.508  11.625 -0.5519  0.3461 -0.1745
10883TIP3    H154064   2.230   4.498  11.708  0.5667  2.2544 -0.4984
10883TIP3    H254065   2.117   4.573  11.642  1.1352  2.4802 -1.2202
10884TIP3   OH254066   0.090   3.204  15.301  0.3084 -0.4484  0.3841
10884TIP3    H154067  -0.003   3.226  15.304  0.5846  1.2259 -0.9854
10884TIP3    H254068   0.132   3.272  15.353  0.9833  0.8880 -1.7552
10885TIP3   OH254069   6.713   0.235   3.102  0.0836 -0.1575  0.2869
10885TIP3    H154070   6.635   0.274   3.140  0.2554 -2.2514  3.1821
10885TIP3    H254071   6.684   0.197   3.019 -1.6638  0.1477  0.7257
10886TIP3   OH254072   1.336   1.428  12.954 -0.1341 -0.0853 -0.2656
10886TIP3    H154073   1.359   1.343  12.915  0.2540  0.7424 -1.9436
10886TIP3    H254074   1.355   1.418  13.047 -1.6924 -2.3641 -0.1200
10887TIP3   OH254075   1.206   3.178   3.605  0.5907 -0.4862 -0.1541
10887TIP3    H154076   1.141   3.115   3.638 -1.0495  1.0892 -0.2348
10887TIP3    H254077   1.278   3.123   3.574 -0.4508 -2.2905  0.4374
10888TIP3   OH254078   1.423   1.758  17.171  0.2207 -0.1015 -0.4458
10888TIP3    H154079   1.331   1.757  17.199  0.0974 -2.5336 -0.6942
10888TIP3    H254080   1.459   1.676  17.206  2.5110  1.1043  0.2061
10889TIP3   OH254081   4.272   5.712  12.495  0.1136 -0.2251 -0.0173
10889TIP3    H154082   4.220   5.633  12.485 -0.7361  0.4358 -1.0518
10889TIP3    H254083   4.335   5.709  12.424  0.5724 -0.3277  0.3869
10890TIP3   OH254084   2.277   1.393  14.727  0.1321  0.1664 -0.3193
10890TIP3    H154085   2.182   1.383  14.732  0.0498  0.3560 -1.3009
10890TIP3    H254086   2.289   1.477  14.683  0.7568  0.0272 -0.4146
10891TIP3   OH254087   0.192   4.058  12.412 -0.5787 -0.7874  0.3848
10891TIP3    H154088   0.210   4.060  12.318 -0.3639  1.6976  0.4077
10891TIP3    H254089   0.120   4.120  12.423  0.1527 -0.1696  1.9788
10892TIP3   OH254090   1.754   3.208  16.039 -0.1450  0.1447 -0.4025
10892TIP3    H154091   1.787   3.153  15.968 -0.1479  0.5929 -0.7525
10892TIP3    H254092   1.677   3.161  16.072  0.9215 -1.0223  0.5680
10893TIP3   OH254093   3.958   2.834  12.505 -0.4123 -0.3781  0.5644
10893TIP3    H154094   4.003   2.754  12.480 -1.3426 -0.5201 -0.7402
10893TIP3    H254095   3.919   2.867  12.423 -0.6783  0.9998  1.2060
10894TIP3   OH254096   3.391   3.494  17.111 -0.7027  0.0307  0.1406
10894TIP3    H154097   3.466   3.517  17.166 -0.5831  1.7250 -0.6674
10894TIP3    H254098   3.415   3.410  17.073 -0.4910 -0.8575  2.0982
10895TIP3   OH254099   3.354   5.802  11.286 -0.3460 -0.4473  0.5676
10895TIP3    H154100   3.422   5.749  11.329 -0.0606  0.0779  0.7708
10895TIP3    H254101   3.272   5.770  11.324 -0.2324 -1.1540  0.2510
10896TIP3   OH254102   4.425   3.005   1.715  0.4842  0.1318 -0.3505
10896TIP3    H154103   4.393   3.047   1.794  1.5038  0.9759 -0.3726
10896TIP3    H254104   4.429   3.075   1.650  0.9173 -0.2745 -0.7724
10897TIP3   OH254105   0.004   6.317  13.532 -0.3502 -0.3857  0.0085
10897TIP3    H154106  -0.075   6.263  13.536  0.0296 -0.9608 -0.1860
10897TIP3    H254107   0.015   6.337  13.439  0.8404 -1.9738 -0.2170
10898TIP3   OH254108   2.745   5.554  13.328 -0.2325 -0.6559 -0.1288
10898TIP3    H154109   2.737   5.537  13.422  1.2222  1.4120  0.4252
10898TIP3    H254110   2.681   5.495  13.288 -1.9013 -0.6034  2.2520
10899TIP3   OH254111   1.289   3.608   4.797 -0.5037 -0.0126  0.0445
10899TIP3    H154112   1.271   3.542   4.863 -0.5946 -0.1494 -0.1156
10899TIP3    H254113   1.306   3.689   4.846 -0.1597 -0.2084  0.2513
10900TIP3   OH254114   2.909   0.351  11.367  0.4644  0.6204 -0.1711
10900TIP3    H154115   2.940   0.290  11.433 -0.1400  1.9998  1.4505
10900TIP3    H254116   2.857   0.298  11.306 -0.8521 -0.3334  1.7104
10901TIP3   OH254117   0.847   2.059  13.140 -0.0513 -0.3080 -0.3260
10901TIP3    H154118   0.899   2.064  13.059  0.9806 -0.4468  0.3184
10901TIP3    H254119   0.911   2.048  13.209 -0.8859  0.5549  0.6081
10902TIP3   OH254120   6.718   6.522   2.094 -0.3610 -0.0922 -0.0368
10902TIP3    H154121   6.665   6.546   2.170  0.6367 -0.2018  0.7167
10902TIP3    H254122   6.760   6.603   2.067  0.6099 -0.3647  0.6015
10903TIP3   OH254123   5.582   2.194  10.420  0.1440 -0.5994 -0.2792
10903TIP3    H154124   5.535   2.156  10.494  0.2570 -0.7199 -0.2687
10903TIP3    H254125   5.569   2.288  10.429  1.1120 -0.5252  0.5545
10904TIP3   OH254126   0.836   1.288  15.467  0.6801  0.1674 -0.1560
10904TIP3    H154127   0.778   1.310  15.539  0.9373 -0.5205  0.2747
10904TIP3    H254128   0.845   1.192  15.472  0.5164  0.0757 -1.2346
10905TIP3   OH254129   5.089   5.760  17.045  0.4194  0.4588  0.4509
10905TIP3    H154130   5.117   5.838  17.093  1.3407  0.4840 -0.1071
10905TIP3    H254131   5.127   5.771  16.958  1.7551 -1.2737  0.7688
10906TIP3   OH254132   3.136   5.195  14.122 -0.4951  0.2120 -0.6924
10906TIP3    H154133   3.042   5.176  14.126 -0.9031  2.2115  0.9695
10906TIP3    H254134   3.140   5.289  14.106  1.2621 -0.0197 -1.7697
10907TIP3   OH254135   4.156   3.186  17.053 -0.3338  1.2307 -0.6896
10907TIP3    H154136   4.101   3.109  17.066 -1.4174  2.3474  2.0981
10907TIP3    H254137   4.106   3.241  16.993 -1.3593  1.3489  0.2418
10908TIP3   OH254138   1.172   4.423  16.274  0.0562 -0.3249 -0.6384
10908TIP3    H154139   1.150   4.504  16.229  2.3816  0.4727 -0.4893
10908TIP3    H254140   1.182   4.358  16.204  1.7933  0.4512 -1.1752
10909TIP3   OH254141   0.975   1.480  16.212  0.1758  0.3352  0.3592
10909TIP3    H154142   1.020   1.403  16.248  0.1958 -0.3307 -1.0271
10909TIP3    H254143   1.045   1.537  16.181  0.1199 -0.0469 -0.4942
10910TIP3   OH254144   2.529   0.135   0.801  0.2773 -0.2496  0.2004
10910TIP3    H154145   2.515   0.060   0.859  0.0754 -1.5445 -1.4422
10910TIP3    H254146   2.454   0.134   0.742  0.5481  0.9394 -0.1898
10911TIP3   OH254147   4.760   6.766   4.200 -0.4915 -0.0067 -0.0803
10911TIP3    H154148   4.769   6.731   4.112 -1.2744  0.2814 -0.2826
10911TIP3    H254149   4.847   6.758   4.238 -0.6153 -2.0919 -0.1394
10912TIP3   OH254150   3.895   3.519  10.449 -0.7651 -0.0255  0.0944
10912TIP3    H154151   3.884   3.614  10.452  0.1430  0.1284 -0.8795
10912TIP3    H254152   3.904   3.498  10.356 -1.4359 -1.1347  0.2577
10913TIP3   OH254153   1.547   3.072  10.620  0.1562 -0.2726 -0.0077
10913TIP3    H154154   1.538   2.978  10.640  0.4353 -0.4014 -0.4863
10913TIP3    H254155   1.640   3.090  10.631  0.2129 -0.2049 -0.5692
10914TIP3   OH254156   0.649   1.851   1.411  0.1658  0.0773  0.0022
10914TIP3    H154157   0.692   1.782   1.462  1.0581  0.5977 -0.0297
10914TIP3    H254158   0.658   1.823   1.320  1.5394  0.7589 -0.1017
10915TIP3   OH254159   3.421   1.997  12.475  0.4307 -0.3762  0.0696
10915TIP3    H154160   3.412   2.002  12.380  1.5175 -0.1965 -0.0460
10915TIP3    H254161   3.491   1.933  12.489  0.7999  0.1542  0.7041
10916TIP3   OH254162   3.717   0.249   0.368  0.0305 -0.0117 -1.2725
10916TIP3    H154163   3.693   0.217   0.281 -1.6146  0.0683 -0.8765
10916TIP3    H254164   3.759   0.174   0.411 -1.4358 -0.8788 -1.2745
10917TIP3   OH254165   1.930   6.134  16.309  0.3269 -0.1147  0.2202
10917TIP3    H154166   1.891   6.047  16.307  0.9601 -0.4588  1.4987
10917TIP3    H254167   1.975   6.143  16.225  0.5685 -1.1812  0.2265
10918TIP3   OH254168   6.300   6.065  13.610 -0.2759 -0.7384  0.7788
10918TIP3    H154169   6.223   6.121  13.612 -0.2097 -0.6656  2.2331
10918TIP3    H254170   6.273   5.985  13.655 -0.0432 -1.4617 -0.3224
10919TIP3   OH254171   2.167   5.347  14.924 -1.1490 -0.2383  0.0516
10919TIP3    H154172   2.101   5.394  14.874  0.0203  0.4288 -0.9366
10919TIP3    H254173   2.166   5.258  14.889 -0.6308  0.1156 -0.8819
10920TIP3   OH254174   5.073   6.047   4.271 -0.0330 -0.1356  0.1068
10920TIP3    H154175   5.063   6.116   4.205  1.6443 -2.5346 -2.8842
10920TIP3    H254176   4.995   5.992   4.261 -0.8971  0.6602  1.8380
10921TIP3   OH254177   1.340   3.064  14.230  0.3335 -0.2457 -0.0965
10921TIP3    H154178   1.357   3.117  14.152  1.4435  0.5139  0.6262
10921TIP3    H254179   1.259   3.099  14.266 -0.4672 -0.9427 -1.1733
10922TIP3   OH254180   3.020   3.839   5.993  0.1152 -0.1942 -0.1918
10922TIP3    H154181   2.972   3.771   6.040  0.4903 -0.4895 -0.2309
10922TIP3    H254182   3.112   3.811   5.997  0.2652  0.2753 -0.2634
10923TIP3   OH254183   2.913   0.894   5.103  0.1965 -0.4541  0.1677
10923TIP3    H154184   2.963   0.895   5.021  0.1865  0.4696  0.1524
10923TIP3    H254185   2.867   0.811   5.103  0.0523 -0.3849 -0.8585
10924TIP3   OH254186   4.490   6.326   4.764  0.0164 -0.2105  1.0844
10924TIP3    H154187   4.568   6.314   4.818  1.2396  0.9865 -0.3007
10924TIP3    H254188   4.474   6.240   4.725  2.0875 -0.0397 -0.3642
10925TIP3   OH254189   1.251   3.771   0.433  0.0581 -0.3359  1.1665
10925TIP3    H154190   1.183   3.705   0.450  0.2463 -0.3305  2.0049
10925TIP3    H254191   1.333   3.726   0.454  0.6911 -1.3985 -2.8283
10926TIP3   OH254192   0.234   0.301   4.239 -0.5203  0.2437 -0.0836
10926TIP3    H154193   0.177   0.364   4.284  0.1944  0.9053 -0.0927
10926TIP3    H254194   0.183   0.274   4.162 -1.6282 -0.6780  0.9388
10927TIP3   OH254195   4.730   3.063  12.568  0.5207 -0.1085 -0.1727
10927TIP3    H154196   4.804   3.005  12.548  0.0555 -0.5602 -0.6203
10927TIP3    H254197   4.657   3.003  12.584  0.2053  0.3420  0.0777
10928TIP3   OH254198   3.611   4.902  14.100 -0.2201  0.3639  0.2121
10928TIP3    H154199   3.548   4.941  14.160  1.1397  2.6381  0.2715
10928TIP3    H254200   3.640   4.975  14.045  0.6803 -1.0887 -1.3175
10929TIP3   OH254201   5.866   4.303  11.687  0.2939 -0.2522  0.1421
10929TIP3    H154202   5.871   4.256  11.770 -0.1883  1.5765  1.2384
10929TIP3    H254203   5.953   4.340  11.674  0.4710 -0.8167 -0.3782
10930TIP3   OH254204   0.205   2.871  14.199 -0.0664 -0.2866 -0.0972
10930TIP3    H154205   0.275   2.866  14.135  0.4856  2.9357  0.1242
10930TIP3    H254206   0.128   2.897  14.149 -0.0517  0.4991  0.2794
10931TIP3   OH254207   4.179   5.472   1.709  0.0645 -0.4255  0.0231
10931TIP3    H154208   4.253   5.411   1.715  0.7856  0.2946 -1.1091
10931TIP3    H254209   4.120   5.445   1.779  0.6007 -2.0859 -0.1259
10932TIP3   OH254210   2.576   3.476  12.344  0.0636  0.2220  0.4664
10932TIP3    H154211   2.530   3.555  12.372 -2.2224 -1.5387  2.0917
10932TIP3    H254212   2.551   3.465  12.252 -0.6056  0.7519  0.5747
10933TIP3   OH254213   4.889   4.169  16.217 -0.1041 -0.1872  0.2657
10933TIP3    H154214   4.795   4.158  16.231  0.0066 -1.1752  0.3078
10933TIP3    H254215   4.899   4.170  16.122 -0.3716  2.0763  0.2097
10934TIP3   OH254216   1.981   5.282   2.878  0.7600 -0.0465  0.6006
10934TIP3    H154217   1.923   5.213   2.908  0.6891 -0.5203 -0.5892
10934TIP3    H254218   1.980   5.346   2.949  0.1238 -0.8356  1.3287
10935TIP3   OH254219   2.494   2.899   1.631  0.4351  0.1436 -0.2184
10935TIP3    H154220   2.435   2.910   1.556 -1.9382  2.3237  1.7766
10935TIP3    H254221   2.484   2.808   1.658 -2.7589  0.6100  0.5011
10936TIP3   OH254222   5.063   1.884  12.451 -0.2669  0.5024  0.3179
10936TIP3    H154223   5.014   1.966  12.454 -1.3155 -0.1517  2.1853
10936TIP3    H254224   5.007   1.820  12.494  1.6919 -0.5643  1.4617
10937TIP3   OH254225   6.095   6.207  15.883 -0.2272  0.1726 -0.3515
10937TIP3    H154226   6.173   6.152  15.879  0.6458  1.2766  0.7971
10937TIP3    H254227   6.032   6.156  15.933 -0.1172 -0.5705 -0.9595
10938TIP3   OH254228   2.261   5.332   5.431  0.3838 -0.4796 -0.5618
10938TIP3    H154229   2.339   5.291   5.469  0.3236 -1.4418 -1.4341
10938TIP3    H254230   2.196   5.262   5.427  0.6018 -0.6279 -3.0231
10939TIP3   OH254231   1.038   6.618   3.900 -0.1721 -0.1192  0.5229
10939TIP3    H154232   1.101   6.552   3.930  1.0468  2.1552  3.6436
10939TIP3    H254233   0.953   6.581   3.922  0.3611 -1.3462  0.6436
10940TIP3   OH254234   5.654   6.569  12.618  0.3462  0.1259 -0.3099
10940TIP3    H154235   5.682   6.508  12.687  2.2244  2.6373  1.3295
10940TIP3    H254236   5.733   6.583  12.565 -0.4331  0.1096 -1.5138
10941TIP3   OH254237   4.373   5.295   1.729  0.2165 -0.0890 -0.9606
10941TIP3    H154238   4.468   5.283   1.724  0.2084 -0.1167 -1.0628
10941TIP3    H254239   4.342   5.221   1.782  0.3994  0.6885  0.2437
10942TIP3   OH254240   5.374   1.199  13.311 -0.2694 -0.4694  0.7219
10942TIP3    H154241   5.405   1.264  13.374  1.6919 -0.3101 -0.3463
10942TIP3    H254242   5.439   1.200  13.241 -1.4746 -1.8801 -0.4835
10943TIP3   OH254243   5.620   5.316   1.389 -0.2332  0.3483 -0.5498
10943TIP3    H154244   5.633   5.334   1.296  0.5748  1.3436 -0.2629
10943TIP3    H254245   5.648   5.226   1.401  1.8504  0.9050 -0.8770
10944TIP3   OH254246   0.547   4.572  13.332 -0.6324  0.2910 -0.0190
10944TIP3    H154247   0.474   4.586  13.393 -0.2219  0.7285  0.3802
10944TIP3    H254248   0.615   4.531  13.386 -0.8770 -0.8972 -0.5815
10945TIP3   OH254249   6.752   3.100  11.344  0.1915  0.4994  0.5204
10945TIP3    H154250   6.843   3.115  11.318 -0.0268 -0.1522 -0.6532
10945TIP3    H254251   6.747   3.006  11.360  0.4213  0.8921  3.4349
10946TIP3   OH254252   4.578   0.456   1.784 -0.2095 -0.4267 -0.3425
10946TIP3    H154253   4.582   0.448   1.689 -0.6993  0.6583 -0.4650
10946TIP3    H254254   4.582   0.550   1.801  0.8640 -0.6542  0.7739
10947TIP3   OH254255   3.319   3.666  13.846 -0.3343  0.1321 -0.2580
10947TIP3    H154256   3.248   3.637  13.904  0.1704 -1.4192 -0.3642
10947TIP3    H254257   3.388   3.696  13.906 -0.3859 -0.0798 -0.0872
10948TIP3   OH254258   0.770   3.684  13.965  0.1567 -0.4684  0.5250
10948TIP3    H154259   0.735   3.684  14.054  0.7523 -0.4975  0.7672
10948TIP3    H254260   0.694   3.673  13.908 -0.2480 -0.2497  1.0247
10949TIP3   OH254261   1.850   2.255   1.306  0.5646 -0.5560  0.4113
10949TIP3    H154262   1.919   2.229   1.367 -0.4015 -2.3271  0.8306
10949TIP3    H254263   1.831   2.175   1.257 -0.9787 -0.0383  0.1186
10950TIP3   OH254264   0.218   5.201   4.283 -0.6584  0.3551 -0.0064
10950TIP3    H154265   0.169   5.241   4.211 -1.3310  0.9828  0.7828
10950TIP3    H254266   0.157   5.201   4.357 -0.2831 -1.0941  0.3390
10951TIP3   OH254267   1.488   2.090   2.031 -0.3512  0.1807  0.0055
10951TIP3    H154268   1.525   2.113   1.945  0.6460 -0.8946  0.1057
10951TIP3    H254269   1.564   2.086   2.089 -0.6720 -1.4686  0.3781
10952TIP3   OH254270   3.942   1.757   6.378  0.2613  0.1301 -0.1326
10952TIP3    H154271   3.903   1.670   6.386  1.6851 -0.5813 -0.6278
10952TIP3    H254272   4.022   1.752   6.430  1.6990  0.3077 -2.2331
10953TIP3   OH254273   3.359   4.723   2.589  0.0137 -0.0079  0.5544
10953TIP3    H154274   3.385   4.788   2.655 -1.9517 -0.4768  1.8784
10953TIP3    H254275   3.382   4.764   2.506 -1.3725  2.5534  1.3224
10954TIP3   OH254276   0.969   1.552   4.988 -0.2240 -0.2071  0.0654
10954TIP3    H154277   0.968   1.479   4.927  1.0727 -1.6811  1.7008
10954TIP3    H254278   0.992   1.513   5.072 -0.7412  1.9124  1.2735
10955TIP3   OH254279   6.686   0.730  13.273 -0.3419  0.2085  0.2623
10955TIP3    H154280   6.616   0.782  13.313 -1.4759 -0.8196 -0.3156
10955TIP3    H254281   6.738   0.794  13.224 -0.9464  0.9795  0.6067
10956TIP3   OH254282   1.501   6.728   1.389 -0.6938  0.4694  0.3721
10956TIP3    H154283   1.583   6.684   1.410  1.0069  1.0798 -3.9788
10956TIP3    H254284   1.433   6.667   1.417  1.3718 -1.8147  0.7136
10957TIP3   OH254285   0.826   0.041  15.156  0.2155 -0.4964 -0.0398
10957TIP3    H154286   0.848   0.134  15.153  0.0648 -0.4652 -0.1887
10957TIP3    H254287   0.910  -0.003  15.169  0.2982 -0.3446 -0.0569
10958TIP3   OH254288   2.045   6.323   3.578 -0.0084 -0.3582  0.3753
10958TIP3    H154289   2.022   6.267   3.504 -0.4457 -0.6597  0.7338
10958TIP3    H254290   1.999   6.285   3.653 -0.4615  0.5795  0.5922
10959TIP3   OH254291   5.022   3.997  12.087 -0.0113  0.2998  0.6451
10959TIP3    H154292   5.038   3.928  12.151  1.0356  0.3108  0.4158
10959TIP3    H254293   5.009   3.951  12.005  1.3528  0.3618  0.3593
10960TIP3   OH254294   1.972   2.758  12.600 -0.4847  0.2200  0.3307
10960TIP3    H154295   2.007   2.682  12.552  0.2480  1.2497 -0.8259
10960TIP3    H254296   1.986   2.736  12.692  0.9613 -0.4904 -0.0240
10961TIP3   OH254297   2.971   6.325  15.985 -0.2702 -0.0647  0.2848
10961TIP3    H154298   2.923   6.243  15.995  0.0229 -0.3652 -0.6033
10961TIP3    H254299   3.063   6.298  15.986 -0.0041  0.6266  3.1427
10962TIP3   OH254300   3.501   3.045   5.560  0.7589 -0.1424 -0.3914
10962TIP3    H154301   3.497   3.121   5.618  2.4396  0.4073 -0.9332
10962TIP3    H254302   3.503   2.970   5.619 -1.1380  0.1804  0.1489
10963TIP3   OH254303   4.804   5.618   5.367 -0.0248 -0.1747 -0.2475
10963TIP3    H154304   4.734   5.577   5.418 -0.8804 -0.7437 -1.7913
10963TIP3    H254305   4.875   5.555   5.369  0.5251  0.4301  1.3797
10964TIP3   OH254306   1.137   0.738   0.887  0.4826 -0.9187 -0.3946
10964TIP3    H154307   1.171   0.722   0.799  0.1765  0.5726 -0.8108
10964TIP3    H254308   1.212   0.771   0.936  0.3733 -0.5818 -0.4491
10965TIP3   OH254309   0.498   5.323  17.085  0.1735  0.0968 -0.2556
10965TIP3    H154310   0.571   5.335  17.147 -1.0095 -1.9528  1.6735
10965TIP3    H254311   0.426   5.291  17.139 -1.8987  1.0666 -2.2676
10966TIP3   OH254312   2.381   3.458  13.161  0.5785 -0.3151 -0.7179
10966TIP3    H154313   2.441   3.466  13.235  0.9175 -1.0999 -0.8982
10966TIP3    H254314   2.369   3.547  13.130  1.6122 -0.1410 -0.6398
10967TIP3   OH254315   5.363   0.553  12.822  0.2042  0.7736  0.0480
10967TIP3    H154316   5.457   0.531  12.823  0.2063  0.7810  0.0102
10967TIP3    H254317   5.346   0.590  12.908 -0.2660 -1.3219  0.9162
10968TIP3   OH254318   5.103   6.317  15.628  0.7761  0.2683  0.5014
10968TIP3    H154319   5.197   6.305  15.611  0.3578 -0.3700 -1.5594
10968TIP3    H254320   5.088   6.410  15.617  1.0485  0.2699  0.1091
10969TIP3   OH254321   1.870   4.635   5.174  0.0047  0.4937 -0.4547
10969TIP3    H154322   1.925   4.711   5.197  0.6890  0.3755 -1.6430
10969TIP3    H254323   1.845   4.649   5.083 -0.4086 -0.3889 -0.4893
10970TIP3   OH254324   0.594   3.516   1.661 -0.3211  0.2183 -0.3463
10970TIP3    H154325   0.619   3.582   1.596  1.3169 -0.7069 -0.7086
10970TIP3    H254326   0.677   3.478   1.690 -1.0444  0.1770  1.8718
10971TIP3   OH254327   5.514   3.500  12.206  0.2645 -0.2031  0.0130
10971TIP3    H154328   5.597   3.544  12.225  0.0634  0.4267 -0.5291
10971TIP3    H254329   5.532   3.448  12.128  0.9197 -2.3057  1.4740
10972TIP3   OH254330   5.474   3.400   5.888  0.7748  0.3732  0.1901
10972TIP3    H154331   5.538   3.328   5.882  1.0426  0.5754  0.6529
10972TIP3    H254332   5.459   3.425   5.797  1.3671  0.3307  0.0737
10973TIP3   OH254333   2.015   3.568  11.372 -0.0203  0.4045  0.2150
10973TIP3    H154334   1.940   3.627  11.374 -1.0229 -0.8076 -0.6279
10973TIP3    H254335   2.054   3.582  11.285 -0.1360 -0.0278  0.0936
10974TIP3   OH254336   5.129   5.844  14.039 -0.3332  0.1411 -0.6950
10974TIP3    H154337   5.109   5.917  14.097 -2.3023  0.2168 -1.4217
10974TIP3    H254338   5.120   5.766  14.094  0.5083  0.3361 -0.2521
10975TIP3   OH254339   2.664   6.783  16.310 -0.0361 -0.0105 -0.2756
10975TIP3    H154340   2.627   6.837  16.380 -1.7002  0.5017 -1.5025
10975TIP3    H254341   2.672   6.843  16.235  2.5478 -0.3087 -0.3391
10976TIP3   OH254342   1.923   5.436  15.156 -0.0481  0.0500  0.1834
10976TIP3    H154343   1.835   5.410  15.184 -0.1619 -0.7609 -0.8543
10976TIP3    H254344   1.919   5.432  15.061  1.1707 -0.2038  0.1299
10977TIP3   OH254345   4.049   4.185   1.373  0.1656  0.2645 -0.7161
10977TIP3    H154346   4.072   4.229   1.454  0.7854 -0.8378 -0.2774
10977TIP3    H254347   4.046   4.255   1.308 -1.2433  1.3031  0.4025
10978TIP3   OH254348   4.068   4.986   0.203  0.2855 -0.2858  0.3323
10978TIP3    H154349   4.129   5.035   0.149 -0.6756  0.4182 -0.1476
10978TIP3    H254350   4.052   4.906   0.154  0.7768 -0.4558  0.4404
10979TIP3   OH254351   0.397   2.933   5.819 -0.5493 -0.0197 -0.6039
10979TIP3    H154352   0.409   3.025   5.794  0.8211  0.9344  2.8407
10979TIP3    H254353   0.483   2.907   5.852 -1.9224 -1.0223  2.5642
10980TIP3   OH254354   4.444   5.938  14.866 -0.2199 -0.3294 -0.1571
10980TIP3    H154355   4.406   5.911  14.783 -0.9565 -0.1377  0.1113
10980TIP3    H254356   4.534   5.905  14.863 -0.6997 -1.6885 -0.3859
10981TIP3   OH254357   6.315   0.704   3.794  0.1099 -0.0508 -0.3074
10981TIP3    H154358   6.251   0.654   3.845  1.2405  0.8048  2.0885
10981TIP3    H254359   6.386   0.641   3.777  0.3243 -0.0119  0.3879
10982TIP3   OH254360   0.886   2.371  13.045  0.2095 -0.1117  0.4592
10982TIP3    H154361   0.954   2.308  13.069 -1.6368 -1.9491  1.1887
10982TIP3    H254362   0.900   2.444  13.104  0.4681 -1.2602  1.8905
10983TIP3   OH254363   2.671   0.529   2.998 -0.0879 -0.0963  0.1007
10983TIP3    H154364   2.738   0.582   2.955  0.7099 -1.0075  0.1931
10983TIP3    H254365   2.589   0.554   2.955  0.3440  0.8028 -0.2271
10984TIP3   OH254366   2.604   6.353  10.491 -0.0186  0.1945  0.7659
10984TIP3    H154367   2.654   6.414  10.438 -0.8869  0.2175 -0.0443
10984TIP3    H254368   2.592   6.276  10.435 -3.7819  1.4606 -0.4291
10985TIP3   OH254369   4.820   3.277   4.570 -0.3260 -0.6220 -0.7214
10985TIP3    H154370   4.759   3.263   4.497 -0.9504 -0.2071 -0.2924
10985TIP3    H254371   4.872   3.197   4.574 -1.8293 -1.6053 -0.1720
10986TIP3   OH254372   0.590   3.281  11.081 -0.2140 -0.5533  0.2376
10986TIP3    H154373   0.676   3.244  11.062 -0.9381 -1.5165 -1.3767
10986TIP3    H254374   0.532   3.243  11.015 -1.9384 -0.1092  1.4122
10987TIP3   OH254375   4.125   0.248  12.624 -0.5168 -0.2389  0.2125
10987TIP3    H154376   4.040   0.244  12.580 -1.2261 -0.2002  1.5257
10987TIP3    H254377   4.177   0.181  12.580 -0.1421  1.7778 -2.7246
10988TIP3   OH254378   3.261   4.126   5.616 -0.3281  0.0508  0.2566
10988TIP3    H154379   3.344   4.083   5.597 -0.2059  0.4291 -0.0853
10988TIP3    H254380   3.250   4.116   5.710 -0.0640 -0.3041  0.2512
10989TIP3   OH254381   0.829   1.267  14.936  0.0057  0.0547 -0.2971
10989TIP3    H154382   0.822   1.218  14.854 -1.6987 -0.3845  0.0781
10989TIP3    H254383   0.847   1.200  15.002  0.0203  0.2303 -0.1231
10990TIP3   OH254384   4.379   3.023   2.537 -0.3636 -0.0483  0.3467
10990TIP3    H154385   4.426   2.962   2.482 -0.4440  0.0243  0.1973
10990TIP3    H254386   4.340   2.968   2.606 -1.1793 -0.2896 -0.2898
10991TIP3   OH254387   3.853   4.426  16.873 -0.1207 -0.1225  0.2366
10991TIP3    H154388   3.832   4.342  16.913  1.7767 -0.5425  0.4496
10991TIP3    H254389   3.768   4.467  16.856 -1.0670 -0.8594  2.7247
10992TIP3   OH254390   6.592   6.539   0.056  0.5765  0.4414 -0.0191
10992TIP3    H154391   6.523   6.602   0.077  0.1768 -0.1355  0.4206
10992TIP3    H254392   6.602   6.545  -0.039 -0.3258  0.2924 -0.1349
10993TIP3   OH254393   1.197   5.859  16.599 -0.2171 -0.2575 -0.8099
10993TIP3    H154394   1.275   5.808  16.578 -0.5208 -0.4523 -1.4831
10993TIP3    H254395   1.127   5.794  16.606 -0.5332  0.0172 -1.3038
10994TIP3   OH254396   5.200   3.030   5.628 -0.3330 -0.0778 -0.7634
10994TIP3    H154397   5.203   2.951   5.574  2.2318 -0.2814 -0.4451
10994TIP3    H254398   5.259   3.092   5.585  0.8554  0.1737  1.1282
10995TIP3   OH254399   6.751   5.908  13.424 -0.3876  0.0224  0.2884
10995TIP3    H154400   6.804   5.965  13.479 -0.5310  1.8599 -1.3797
10995TIP3    H254401   6.808   5.833  13.404  0.8272  0.9214  0.2869
10996TIP3   OH254402   6.036   0.728   4.488 -0.2019  0.8387  0.1741
10996TIP3    H154403   6.129   0.747   4.498 -0.2993  1.1474  0.5246
10996TIP3    H254404   6.032   0.634   4.473  0.1577  0.8006  0.3115
10997TIP3   OH254405   4.560   3.391  16.540  0.5574 -0.5621 -0.1338
10997TIP3    H154406   4.521   3.336  16.608 -0.1690 -0.7995 -0.7303
10997TIP3    H254407   4.493   3.457  16.522 -0.2329 -1.8234 -2.1995
10998TIP3   OH254408   4.738   4.659  17.026 -0.0767  0.4570 -0.8649
10998TIP3    H154409   4.684   4.580  17.031 -0.9297  0.9565 -1.8769
10998TIP3    H254410   4.725   4.701  17.111  1.1135 -0.9101  0.0597
10999TIP3   OH254411   1.923   0.827  16.594 -0.5941  0.2463  0.0521
10999TIP3    H154412   1.966   0.849  16.676 -1.9936  0.6053  0.7166
10999TIP3    H254413   1.937   0.904  16.538  1.5832 -0.5636 -0.5994
11000TIP3   OH254414   6.653   3.303   2.650  0.2905 -0.6041 -0.3561
11000TIP3    H154415   6.720   3.262   2.595  1.7308 -0.6468  1.3411
11000TIP3    H254416   6.683   3.394   2.660 -0.1386 -0.5084  0.0946
11001TIP3   OH254417   1.997   4.344  15.556  0.2443 -0.3890  0.2049
11001TIP3    H154418   2.017   4.258  15.594  2.1357 -0.4271 -0.7450
11001TIP3    H254419   2.071   4.399  15.582  0.1747  0.3310 -1.0502
11002TIP3   OH254420   6.578   4.188   4.773 -0.4612 -0.5766  0.2346
11002TIP3    H154421   6.573   4.283   4.774  1.7960 -0.3925 -0.0473
11002TIP3    H254422   6.589   4.164   4.865  0.5515 -0.4052  0.1730
11003TIP3   OH254423   1.762   0.337  16.247 -0.2232 -0.2990 -0.0286
11003TIP3    H154424   1.786   0.418  16.293 -2.0833 -0.9766  2.3601
11003TIP3    H254425   1.701   0.365  16.179 -0.1370  0.4155  0.1797
11004TIP3   OH254426   3.030   0.240   1.008 -0.0323  0.3196 -0.5224
11004TIP3    H154427   2.938   0.258   0.988  0.2868 -0.4211 -3.0750
11004TIP3    H254428   3.040   0.263   1.100 -2.3957  1.8601 -0.5662
11005TIP3   OH254429   2.072   2.324  14.623 -0.3003  0.7227  0.3421
11005TIP3    H154430   2.144   2.380  14.595  2.8367 -1.1583  3.8214
11005TIP3    H254431   2.038   2.366  14.703 -0.4342 -0.3577  0.8794
11006TIP3   OH254432   1.724   1.289   5.808  0.1066  0.5496 -0.0180
11006TIP3    H154433   1.635   1.324   5.820  0.0490  0.1383  0.8786
11006TIP3    H254434   1.781   1.363   5.827 -0.0349  1.0728 -1.5040
11007TIP3   OH254435   1.105   4.486   0.022  0.1473 -0.3039 -0.2939
11007TIP3    H154436   1.013   4.493   0.049  0.4995  0.9583  0.6517
11007TIP3    H254437   1.107   4.407  -0.032 -0.9978 -1.8421  1.7217
11008TIP3   OH254438   0.846   3.431   1.560 -0.5964  0.6321  0.5712
11008TIP3    H154439   0.869   3.524   1.565 -0.3287  0.6572 -0.6963
11008TIP3    H254440   0.929   3.385   1.568 -0.5781  0.5598  0.0182
11009TIP3   OH254441   0.777   5.132   0.516  0.7854 -0.1267  0.4728
11009TIP3    H154442   0.790   5.188   0.592  0.3159  1.0391 -0.2709
11009TIP3    H254443   0.732   5.189   0.452 -1.1488 -1.7895  0.2486
11010TIP3   OH254444   0.442   0.558   0.809  0.5181  0.1113  0.5867
11010TIP3    H154445   0.361   0.601   0.781  1.1484  2.1512  1.6673
11010TIP3    H254446   0.439   0.560   0.905 -0.7609 -5.0756  0.9767
11011TIP3   OH254447   4.401   6.744   2.209  0.1277  0.2663 -0.5476
11011TIP3    H154448   4.347   6.691   2.151 -0.3814 -0.2650  0.3910
11011TIP3    H254449   4.456   6.681   2.256  0.1839  0.6389 -0.0950
11012TIP3   OH254450   4.776   5.413  11.930  0.5090  0.2237 -0.0317
11012TIP3    H154451   4.722   5.491  11.916  1.6790  0.9793 -0.5862
11012TIP3    H254452   4.858   5.448  11.968  0.8338 -0.8082  0.2444
11013TIP3   OH254453   3.953   6.459  14.346  0.4698 -0.3286 -0.7781
11013TIP3    H154454   4.002   6.539  14.327  0.8839 -0.2449  0.5358
11013TIP3    H254455   3.967   6.444  14.439 -1.9667 -0.3441 -0.3500
11014TIP3   OH254456   5.979   2.124   1.086  0.3872  0.1326  0.5062
11014TIP3    H154457   5.984   2.035   1.121  1.0158  0.6415  1.8097
11014TIP3    H254458   5.972   2.113   0.992  1.3928 -1.2767  0.5710
11015TIP3   OH254459   6.661   1.232   3.197  0.3042  0.0949  0.4962
11015TIP3    H154460   6.629   1.321   3.206  2.7495  0.9479  1.7300
11015TIP3    H254461   6.722   1.235   3.124 -2.1282 -1.4659 -1.7562
11016TIP3   OH254462   6.248   0.839   1.017 -0.2894 -0.0189  0.2588
11016TIP3    H154463   6.197   0.919   1.004 -1.2317 -0.4112  1.4196
11016TIP3    H254464   6.186   0.775   1.051 -0.3843 -2.3203 -3.5775
11017TIP3   OH254465   1.972   5.488  12.088  0.0300 -0.2228 -0.1131
11017TIP3    H154466   1.956   5.445  12.171  0.0513 -2.0310 -1.0049
11017TIP3    H254467   1.921   5.437  12.024  0.2491  0.9342 -1.2581
11018TIP3   OH254468   5.179   2.711   0.913  0.0203  0.6420  0.0785
11018TIP3    H154469   5.099   2.755   0.886  0.6228  1.5050 -0.3680
11018TIP3    H254470   5.179   2.715   1.008 -1.1712 -0.6770  0.1567
11019TIP3   OH254471   2.050   6.602  11.917  0.5180 -0.1764 -0.1733
11019TIP3    H154472   2.054   6.585  11.823  1.2520  1.5547 -0.5023
11019TIP3    H254473   1.963   6.640  11.931  1.0475  1.2274 -0.5051
11020TIP3   OH254474   1.263   0.221  13.805  0.3763 -0.7789 -0.3104
11020TIP3    H154475   1.242   0.131  13.832  3.4453 -1.9529 -1.4184
11020TIP3    H254476   1.334   0.247  13.864  0.3276  0.4727 -0.7885
11021TIP3   OH254477   0.892   4.118  11.903  0.2050  0.3966 -0.2173
11021TIP3    H154478   0.858   4.030  11.886  0.6612 -0.2907  2.0182
11021TIP3    H254479   0.869   4.168  11.825 -2.5278 -0.9969 -0.4443
11022TIP3   OH254480   4.844   0.218  14.877  0.4293 -0.2146  0.3658
11022TIP3    H154481   4.765   0.241  14.829  0.4918  2.1093  1.2871
11022TIP3    H254482   4.851   0.283  14.946  2.4956 -1.0969  1.0757
11023TIP3   OH254483   4.560   5.790  11.242  0.5529  0.5273 -0.5587
11023TIP3    H154484   4.540   5.812  11.333  1.7016 -0.5990 -0.0195
11023TIP3    H254485   4.555   5.875  11.196 -0.5876  1.0252  0.4134
11024TIP3   OH254486   3.432   2.932  11.853 -0.0577 -0.0239 -0.1610
11024TIP3    H154487   3.354   2.877  11.856 -0.6891  0.7170 -1.8949
11024TIP3    H254488   3.415   3.001  11.917  0.6058 -1.5769  1.7953
11025TIP3   OH254489   2.061   6.151  11.897  0.6491  0.7483 -0.0497
11025TIP3    H154490   1.993   6.141  11.831  1.3509 -0.2360 -0.6501
11025TIP3    H254491   2.015   6.182  11.975 -0.4916  0.0355 -0.4203
11026TIP3   OH254492   2.202   4.002  13.230 -0.4536  0.1285 -0.2793
11026TIP3    H154493   2.113   4.032  13.250 -1.7698 -2.3961 -1.8051
11026TIP3    H254494   2.233   4.061  13.161 -0.9710  0.9601  0.1899
11027TIP3   OH254495   2.625   3.675   2.511  0.0446  0.2642  0.6269
11027TIP3    H154496   2.550   3.712   2.465  0.7045  2.6928  1.3522
11027TIP3    H254497   2.693   3.666   2.444 -0.9925 -2.5730 -0.1762
11028TIP3   OH254498   3.952   2.156  14.106 -0.1866  0.5770 -0.1479
11028TIP3    H154499   3.951   2.149  14.202 -1.5467  0.5058 -0.1485
11028TIP3    H254500   3.938   2.066  14.076  1.6455  0.3466 -0.4695
11029TIP3   OH254501   0.813   6.491  13.995  0.3183 -0.5296 -0.7585
11029TIP3    H154502   0.792   6.413  14.046 -1.4434 -0.0637 -0.6792
11029TIP3    H254503   0.833   6.458  13.907  0.4350 -1.1372 -0.5047
11030TIP3   OH254504   3.344   1.475   1.384  0.3091 -0.2159  0.4964
11030TIP3    H154505   3.280   1.534   1.424 -1.7334 -1.1272 -1.2567
11030TIP3    H254506   3.425   1.525   1.383 -0.7445  1.5992  1.3563
11031TIP3   OH254507   4.647   6.490   5.212 -0.0514 -0.7997  0.2336
11031TIP3    H154508   4.583   6.514   5.279  0.7365 -0.2643  0.8234
11031TIP3    H254509   4.728   6.473   5.261 -0.3826 -4.1852 -0.1825
11032TIP3   OH254510   2.120   0.026  10.860 -0.4181 -0.0680 -0.0966
11032TIP3    H154511   2.080  -0.005  10.779 -1.2535  0.7049 -0.0018
11032TIP3    H254512   2.214   0.018  10.846 -0.5740 -2.0176 -0.3010
11033TIP3   OH254513   2.194   6.712   3.916 -0.1414  0.1745 -0.3546
11033TIP3    H154514   2.164   6.797   3.884  0.2273  0.9506  1.2431
11033TIP3    H254515   2.128   6.650   3.884 -0.6483  1.1152 -1.1889
11034TIP3   OH254516   5.394   5.165  15.367  0.6149  0.5800  0.1024
11034TIP3    H154517   5.484   5.156  15.334 -0.4785 -0.9212 -2.8730
11034TIP3    H254518   5.358   5.239  15.318  0.0113  0.7329  0.7646
11035TIP3   OH254519   5.675   1.808  16.666 -0.0897  0.1887  0.2867
11035TIP3    H154520   5.606   1.869  16.638 -0.0549 -0.4791 -1.4086
11035TIP3    H254521   5.683   1.747  16.592 -0.5659 -2.2628  2.1468
11036TIP3   OH254522   4.152   6.335  13.310 -0.2270  0.1093 -0.2913
11036TIP3    H154523   4.176   6.398  13.378 -0.1834  1.2818 -1.3751
11036TIP3    H254524   4.213   6.352  13.238 -0.3753 -1.0157 -0.7118
11037TIP3   OH254525   5.390   1.358   1.005  0.1346  0.4019  0.1798
11037TIP3    H154526   5.446   1.409   1.063 -1.0626  1.1703  0.7042
11037TIP3    H254527   5.416   1.267   1.020  1.6900  0.7672 -0.1091
11038TIP3   OH254528   6.277   4.994   4.236  0.0470  0.1676  0.0154
11038TIP3    H154529   6.350   5.056   4.231 -1.0218  1.4554  0.0948
11038TIP3    H254530   6.246   4.987   4.146  0.6564 -0.9058 -0.1383
11039TIP3   OH254531   3.028   0.603   1.590 -0.3023  0.1682 -0.4325
11039TIP3    H154532   3.087   0.672   1.561 -0.7311  1.5236  1.7364
11039TIP3    H254533   3.061   0.578   1.677 -1.6692 -0.5503 -0.0925
11040TIP3   OH254534   1.616   5.090   5.568  0.2730  0.3190  0.1014
11040TIP3    H154535   1.603   5.033   5.643  1.9869  0.5399  0.6073
11040TIP3    H254536   1.596   5.035   5.492  0.9276 -0.6486  0.6217
11041TIP3   OH254537   4.659   0.822  12.348  0.3879 -0.1710 -0.0762
11041TIP3    H154538   4.670   0.873  12.428  4.0564 -1.1008  0.1681
11041TIP3    H254539   4.688   0.880  12.278 -0.4289 -0.2114 -0.4617
11042TIP3   OH254540   4.705   4.648  15.080  0.4301 -0.3188 -0.4983
11042TIP3    H154541   4.628   4.624  15.132  0.8103 -0.2786  0.0986
11042TIP3    H254542   4.755   4.566  15.074  0.3894 -0.3204 -0.7997
11043TIP3   OH254543   0.435   6.515   5.500 -0.4658  0.1771 -0.1196
11043TIP3    H154544   0.525   6.490   5.479 -0.4403  1.3026 -1.5302
11043TIP3    H254545   0.445   6.592   5.556 -0.5313  0.5058 -0.5512
11044TIP3   OH254546   3.862   3.908  12.677  0.0906  0.0821 -0.0191
11044TIP3    H154547   3.809   3.984  12.652  0.1543 -0.2484 -1.1884
11044TIP3    H254548   3.830   3.884  12.764  0.7149  2.0374  0.8181
11045TIP3   OH254549   6.782   5.296  16.439 -0.4876  0.5211  0.4661
11045TIP3    H154550   6.824   5.374  16.474 -0.2817 -0.0993  1.6836
11045TIP3    H254551   6.848   5.256  16.382 -0.8312  1.5640 -0.6819
11046TIP3   OH254552   0.351   6.294  12.755  0.5018 -0.4548 -0.4350
11046TIP3    H154553   0.355   6.245  12.673  3.6646 -0.2098 -0.5601
11046TIP3    H254554   0.400   6.240  12.818 -0.0502  0.3434  0.7198
11047TIP3   OH254555   2.652   6.680  11.450 -0.0322  0.0975 -0.2322
11047TIP3    H154556   2.691   6.593  11.463 -0.0105  0.3309  1.4244
11047TIP3    H254557   2.595   6.670  11.374  0.9817 -1.0130 -0.8848
11048TIP3   OH254558   1.416   5.723  13.567 -0.8925 -0.1406 -0.7160
11048TIP3    H154559   1.467   5.769  13.501 -0.8979  1.1659  0.1520
11048TIP3    H254560   1.457   5.745  13.650 -1.5567 -0.8373 -0.1807
11049TIP3   OH254561   4.173   2.615   6.092 -0.3586 -0.7900  0.4946
11049TIP3    H154562   4.130   2.549   6.146 -1.1134  0.0230  0.9310
11049TIP3    H254563   4.230   2.566   6.034 -1.4368 -1.8771  0.3143
11050TIP3   OH254564   5.631   1.611   6.541  0.5357 -0.5153 -0.6434
11050TIP3    H154565   5.663   1.630   6.629 -1.9333 -1.4318  0.5293
11050TIP3    H254566   5.626   1.697   6.499  0.7069  0.0568  0.4701
11051TIP3   OH254567   5.791   1.520  13.088  0.1645  0.6326 -0.2466
11051TIP3    H154568   5.813   1.517  12.995  0.0858  2.5351 -0.3816
11051TIP3    H254569   5.872   1.499  13.133  0.6682  1.4024 -0.7619
11052TIP3   OH254570   3.959   0.676  11.607 -0.3274 -0.0464 -0.1084
11052TIP3    H154571   3.904   0.605  11.576  0.2560 -0.1245 -1.0092
11052TIP3    H254572   4.048   0.639  11.607 -0.0173  0.6755 -0.6040
11053TIP3   OH254573   6.679   6.431  13.298  0.3081  0.1194 -0.1073
11053TIP3    H154574   6.703   6.408  13.208 -0.2116 -2.8472  0.4137
11053TIP3    H254575   6.608   6.371  13.319 -1.6397  2.7458  1.3396
11054TIP3   OH254576   5.138   1.610   5.173  0.2920 -0.1595 -0.0629
11054TIP3    H154577   5.224   1.569   5.186 -0.4238 -2.2034 -1.2169
11054TIP3    H254578   5.150   1.669   5.099  0.6917 -0.5114 -0.2838
11055TIP3   OH254579   4.875   5.144   5.627 -0.5595 -0.1166 -0.1534
11055TIP3    H154580   4.781   5.159   5.615 -0.1182  2.0323 -1.4386
11055TIP3    H254581   4.916   5.226   5.601  1.7019 -0.9977  0.3916
11056TIP3   OH254582   6.154   0.604   4.750  0.7010 -0.3587  0.2960
11056TIP3    H154583   6.132   0.541   4.682 -1.2357  0.4207  0.1620
11056TIP3    H254584   6.250   0.599   4.756  1.0698  0.1922 -3.1005
11057TIP3   OH254585   0.643   0.088  11.633  0.6666 -0.1661 -0.3468
11057TIP3    H154586   0.662   0.181  11.645 -0.7678  0.4454 -2.3478
11057TIP3    H254587   0.551   0.086  11.607  0.0068 -2.3619  1.7581
11058TIP3   OH254588   0.746   1.284   0.323  0.1387 -0.3198  0.4480
11058TIP3    H154589   0.728   1.194   0.297  0.5668 -0.5921  1.0761
11058TIP3    H254590   0.718   1.288   0.415  0.0472  0.2124  0.3982
11059TIP3   OH254591   5.688   2.623  11.739 -0.0567  0.2740 -0.7699
11059TIP3    H154592   5.752   2.552  11.744  0.9089  1.1414 -0.7263
11059TIP3    H254593   5.718   2.678  11.668 -0.5832  0.8674 -0.5407
11060TIP3   OH254594   0.810   1.892  15.853  0.2195  0.5308 -0.0034
11060TIP3    H154595   0.839   1.857  15.769  1.0982  0.8606  0.1527
11060TIP3    H254596   0.859   1.974  15.863 -1.8694  1.9151 -0.4246
11061TIP3   OH254597   1.880   3.364   1.255 -0.1045 -0.6037 -0.1478
11061TIP3    H154598   1.927   3.286   1.224 -1.5418 -2.3233  1.6972
11061TIP3    H254599   1.941   3.406   1.315  0.3693 -0.7979 -0.4851
11062TIP3   OH254600   1.577   4.699  11.707 -0.2477 -0.3164  0.2246
11062TIP3    H154601   1.529   4.717  11.626 -1.1673 -1.3543  0.5073
11062TIP3    H254602   1.535   4.620  11.742  2.7248 -2.2816 -0.3406
11063TIP3   OH254603   6.283   3.726  13.042  0.0907  0.3922  0.4918
11063TIP3    H154604   6.274   3.822  13.046 -0.9912  0.2972  0.6127
11063TIP3    H254605   6.375   3.710  13.065  0.5991  1.4610 -0.6737
11064TIP3   OH254606   3.108   0.659   4.253 -0.0048  0.3461  0.8068
11064TIP3    H154607   3.136   0.716   4.181 -1.9619  1.1472  0.6095
11064TIP3    H254608   3.060   0.589   4.209  1.0155 -0.6096  1.1762
11065TIP3   OH254609   2.256   6.542  15.885 -0.6185 -0.3266  0.5598
11065TIP3    H154610   2.303   6.460  15.874 -0.1025  0.2686 -3.4880
11065TIP3    H254611   2.165   6.521  15.863 -0.4052  0.1435 -0.9561
11066TIP3   OH254612   1.338   0.005  12.833  0.5607  0.2568 -0.1712
11066TIP3    H154613   1.321   0.072  12.767 -0.4780  0.1028 -0.0677
11066TIP3    H254614   1.288   0.033  12.909  0.3927 -0.4655 -0.0122
11067TIP3   OH254615   2.395   5.298   5.900 -0.1537  0.1062  0.5791
11067TIP3    H154616   2.314   5.348   5.888 -0.7934 -1.1099 -0.4065
11067TIP3    H254617   2.393   5.270   5.991  0.6878  2.5946  1.4484
11068TIP3   OH254618   0.864   0.937  13.442 -0.0467 -0.2169 -0.1081
11068TIP3    H154619   0.942   0.893  13.475 -1.1752 -0.6715  2.1788
11068TIP3    H254620   0.808   0.866  13.409 -0.8089 -0.2758  1.2461
11069TIP3   OH254621   5.506   0.475   2.481  0.2299  0.6263  0.5671
11069TIP3    H154622   5.495   0.564   2.447 -2.5629  0.4557  0.7845
11069TIP3    H254623   5.561   0.431   2.416  1.5183  2.4323  0.3701
11070TIP3   OH254624   3.480   2.445  11.421 -0.3949 -0.2187  0.1517
11070TIP3    H154625   3.502   2.431  11.329  0.1273  0.7416  0.1230
11070TIP3    H254626   3.492   2.360  11.462 -0.6497 -0.6602 -0.6729
11071TIP3   OH254627   2.381   4.802  11.241  0.0004  0.3279 -0.1252
11071TIP3    H154628   2.430   4.738  11.189  0.1034  0.3640 -0.0727
11071TIP3    H254629   2.391   4.772  11.331 -2.9443 -1.7057 -0.3165
11072TIP3   OH254630   4.429   6.156   5.098  0.1229  0.4092 -0.4421
11072TIP3    H154631   4.496   6.222   5.078  1.2672 -1.0987 -1.9144
11072TIP3    H254632   4.452   6.123   5.185  1.0389  0.2297 -0.7442
11073TIP3   OH254633   0.013   1.903  15.523  0.3188 -0.2557 -0.4628
11073TIP3    H154634   0.074   1.868  15.588 -1.5050 -0.6317  1.1448
11073TIP3    H254635   0.045   1.992  15.506  2.6302 -1.1891 -1.4795
11074TIP3   OH254636   2.133   4.783   1.429 -0.0716 -0.1185  0.2586
11074TIP3    H154637   2.146   4.814   1.519 -2.5964 -0.5583  0.8419
11074TIP3    H254638   2.183   4.701   1.424 -0.2546 -0.3161  1.4001
11075TIP3   OH254639   5.247   2.159  17.160  0.4853  0.3735  0.2108
11075TIP3    H154640   5.175   2.145  17.099  0.1077 -0.7928  0.8956
11075TIP3    H254641   5.247   2.254  17.176 -1.0373  0.3735  0.3622
11076TIP3   OH254642   2.540   4.685   3.397 -0.1323  0.3276  0.0046
11076TIP3    H154643   2.605   4.619   3.373  1.7764  1.6101  1.3571
11076TIP3    H254644   2.506   4.717   3.313  0.2279 -1.0614 -0.7049
11077TIP3   OH254645   4.640   5.639   0.893 -0.1020  0.5179  0.0663
11077TIP3    H154646   4.596   5.724   0.892 -0.2443  0.5809  2.7626
11077TIP3    H254647   4.569   5.576   0.896 -0.0004  0.3783 -0.4921
11078TIP3   OH254648   2.994   6.684  13.040 -0.6975  0.1027  0.4251
11078TIP3    H154649   2.918   6.714  13.090 -1.0932  0.2054 -0.2151
11078TIP3    H254650   3.023   6.605  13.084 -1.6568 -0.3662  0.2383
11079TIP3   OH254651   5.158   5.804  12.527  0.8854  0.0324 -0.0976
11079TIP3    H154652   5.250   5.828  12.537  0.9757  0.0881 -0.9664
11079TIP3    H254653   5.121   5.873  12.471 -0.2589  1.2983  2.0683
11080TIP3   OH254654   4.855   3.346  12.288  0.2164 -0.9176 -0.4616
11080TIP3    H154655   4.867   3.372  12.197 -1.4988 -0.2953 -0.5378
11080TIP3    H254656   4.939   3.366  12.329  0.4296  0.5338 -1.5100
11081TIP3   OH254657   2.464   0.315   0.518 -0.1384  0.1607 -0.2576
11081TIP3    H154658   2.554   0.337   0.498  0.5158 -0.0081  2.1127
11081TIP3    H254659   2.433   0.386   0.574 -0.3395 -1.3244  1.6452
11082TIP3   OH254660   0.569   5.821   1.906  0.2952 -0.3504 -0.7224
11082TIP3    H154661   0.535   5.799   1.993 -3.4606 -0.0998 -1.9233
11082TIP3    H254662   0.614   5.742   1.877  0.3453 -0.9558  0.8737
11083TIP3   OH254663   2.525   5.726  13.502 -0.8160 -0.2978 -0.3923
11083TIP3    H154664   2.487   5.639  13.489  1.6818 -1.3579 -1.1137
11083TIP3    H254665   2.542   5.758  13.414 -0.8396  0.5463 -0.0994
11084TIP3   OH254666   6.212   1.084  16.789 -0.6133  0.5097  0.3154
11084TIP3    H154667   6.153   1.127  16.727 -0.6719 -0.7251 -0.5207
11084TIP3    H254668   6.156   1.024  16.839 -0.1106 -0.6713 -0.4838
11085TIP3   OH254669   4.578   1.956   0.717  0.3735 -0.4656  0.2666
11085TIP3    H154670   4.526   1.888   0.760 -1.1556  0.5918  0.1337
11085TIP3    H254671   4.662   1.913   0.699  0.4519 -1.4763  2.6727
11086TIP3   OH254672   0.261   2.506   5.271 -0.0625 -0.8024  0.1453
11086TIP3    H154673   0.208   2.457   5.334 -1.2401 -0.3585 -0.4826
11086TIP3    H254674   0.246   2.598   5.293 -1.0489 -0.6234 -1.2189
11087TIP3   OH254675   3.135   5.263   1.385 -0.1465  0.1089  0.8090
11087TIP3    H154676   3.078   5.294   1.456 -1.4691 -0.3374 -0.0123
11087TIP3    H254677   3.079   5.205   1.333  0.8891  0.1362 -0.3940
11088TIP3   OH254678   2.445   3.347  14.370  0.8243  0.0315  0.0988
11088TIP3    H154679   2.530   3.344  14.325  1.1845 -1.5573  0.8205
11088TIP3    H254680   2.400   3.268  14.341 -1.1911  1.6947 -1.6418
11089TIP3   OH254681   2.754   5.444  14.334 -0.0873  0.1656 -0.9870
11089TIP3    H154682   2.668   5.485  14.323 -0.6877 -0.7074  0.2621
11089TIP3    H254683   2.795   5.450  14.247 -0.7713  1.9786 -1.2336
11090TIP3   OH254684   2.888   2.772   4.399 -0.0180  0.3874 -0.2000
11090TIP3    H154685   2.812   2.719   4.375  0.1426  0.2219 -0.3511
11090TIP3    H254686   2.876   2.854   4.350 -1.1082  1.1669  1.2819
11091TIP3   OH254687   3.970   5.162   4.533  0.1117 -0.3402 -0.2965
11091TIP3    H154688   3.896   5.221   4.517  0.2170  0.0780  0.7102
11091TIP3    H254689   3.948   5.117   4.615  0.0641 -1.6745 -1.0009
11092TIP3   OH254690   1.221   3.347  13.152  0.0764 -0.6003 -0.4413
11092TIP3    H154691   1.293   3.291  13.180  0.9471  0.4407 -0.5148
11092TIP3    H254692   1.218   3.417  13.217 -0.3067 -0.1732 -0.9057
11093TIP3   OH254693   0.543   0.231   1.604  0.0344 -0.3173  0.1088
11093TIP3    H154694   0.551   0.136   1.594 -0.6761 -0.4404  0.6160
11093TIP3    H254695   0.586   0.267   1.527  0.2166 -1.0565 -0.1414
11094TIP3   OH254696   6.084   5.878   2.817 -0.4152  0.1771 -0.1894
11094TIP3    H154697   6.130   5.796   2.832  1.5650  0.9928 -1.4268
11094TIP3    H254698   6.060   5.876   2.725 -3.4337 -0.4160  0.4800
11095TIP3   OH254699   5.279   1.972   0.395  0.1728 -0.2764  0.4856
11095TIP3    H154700   5.293   1.884   0.430 -0.2208 -0.3406  0.4810
11095TIP3    H254701   5.292   1.961   0.300  0.2934 -0.2929  0.5030
11096TIP3   OH254702   1.653   5.707  16.614  0.0125  0.7794 -0.0886
11096TIP3    H154703   1.647   5.693  16.709  0.4364 -0.3977 -0.2165
11096TIP3    H254704   1.708   5.635  16.583  0.4946  1.5834 -1.1377
11097TIP3   OH254705   6.432   3.643  15.042  0.0809  0.0682  0.2185
11097TIP3    H154706   6.337   3.651  15.033 -0.2652 -1.0071  2.2435
11097TIP3    H254707   6.452   3.557  15.005  0.3581  0.4893 -0.6341
11098TIP3   OH254708   3.993   6.285  15.575 -0.6070  0.2232 -0.1175
11098TIP3    H154709   4.002   6.343  15.500 -0.5563  0.3755  0.0046
11098TIP3    H254710   3.980   6.344  15.649 -1.7738  0.0449 -0.1626
11099TIP3   OH254711   0.955   6.273  16.439 -0.2953 -0.4916 -0.0715
11099TIP3    H154712   0.869   6.237  16.418 -0.9004 -0.1069  1.5974
11099TIP3    H254713   0.967   6.345  16.377 -0.6286 -1.2969 -1.0930
11100TIP3   OH254714   2.157   0.367   1.563  0.1836  0.0062 -0.3108
11100TIP3    H154715   2.141   0.436   1.499  0.3381 -0.2038 -0.5806
11100TIP3    H254716   2.196   0.412   1.638 -0.3907  0.3124 -0.1972
11101TIP3   OH254717   5.289   4.018  14.539  0.0746 -0.1851  0.2050
11101TIP3    H154718   5.320   4.038  14.627  1.3177  0.6666 -0.3814
11101TIP3    H254719   5.217   4.080  14.524  0.8371  0.7077  0.1098
11102TIP3   OH254720   5.413   3.249   5.506  0.4010  0.3133  0.5697
11102TIP3    H154721   5.453   3.315   5.563  0.9074  0.9094 -0.4472
11102TIP3    H254722   5.368   3.301   5.439  1.6143 -0.3487 -0.8122
11103TIP3   OH254723   3.639   5.750  11.119 -0.4092 -0.1390 -0.3354
11103TIP3    H154724   3.703   5.681  11.138  1.5618  1.0418 -2.2538
11103TIP3    H254725   3.584   5.714  11.050  0.5439  0.1193 -1.2534
11104TIP3   OH254726   2.934   5.043   1.322  0.3145 -0.1927 -0.7030
11104TIP3    H154727   2.859   5.054   1.381  1.6235  0.8390  0.8734
11104TIP3    H254728   2.901   5.070   1.236 -1.2756 -0.3748 -0.1845
11105TIP3   OH254729   0.871   3.090  13.183 -0.5205  0.1798  0.4626
11105TIP3    H154730   0.954   3.068  13.140 -0.6115  3.3215 -1.5649
11105TIP3    H254731   0.884   3.063  13.274  2.6137  0.3011  0.1509
11106TIP3   OH254732   5.156   3.053  11.616 -0.0632  0.4838  0.6202
11106TIP3    H154733   5.082   3.031  11.672  0.6825 -1.1844  1.0143
11106TIP3    H254734   5.213   2.977  11.621  0.5720  0.7654 -1.5321
11107TIP3   OH254735   0.143   2.842  17.208 -0.3731  0.4421  0.0066
11107TIP3    H154736   0.198   2.867  17.133  0.6424  1.6353  1.0757
11107TIP3    H254737   0.084   2.917  17.220 -0.4343  0.3213  0.4730
11108TIP3   OH254738   6.661   0.556   3.739 -0.3636  0.1112  1.1658
11108TIP3    H154739   6.587   0.505   3.771 -1.6395  1.6852  0.8708
11108TIP3    H254740   6.679   0.618   3.809 -1.4746  1.8608 -0.0149
11109TIP3   OH254741   3.489   0.119  15.371  0.2627  0.2604  0.1080
11109TIP3    H154742   3.412   0.073  15.337  0.8042 -1.9295  1.6229
11109TIP3    H254743   3.478   0.209  15.341 -3.2145  0.2049  0.7792
11110TIP3   OH254744   2.048   5.827  14.580 -0.0391 -0.4861 -0.5752
11110TIP3    H154745   1.987   5.861  14.514 -2.8406 -1.2343  1.4550
11110TIP3    H254746   2.102   5.903  14.604 -0.0408  0.1805 -2.4858
11111TIP3   OH254747   6.678   5.392  15.996  0.3727  0.5521 -0.2721
11111TIP3    H154748   6.697   5.429  16.083  2.0432  2.7533 -1.4687
11111TIP3    H254749   6.720   5.453  15.935  1.4489 -2.2410 -2.5351
11112TIP3   OH254750   2.555   0.237   4.218 -0.4735 -0.5328  0.0811
11112TIP3    H154751   2.480   0.282   4.178  0.2056 -0.7303 -1.4832
11112TIP3    H254752   2.628   0.298   4.209 -0.3619 -0.4694  1.3127
11113TIP3   OH254753   5.818   5.629   1.111  0.0026  0.6008 -0.3087
11113TIP3    H154754   5.902   5.672   1.096  0.8199 -1.0699 -0.6388
11113TIP3    H254755   5.757   5.675   1.051  1.4865 -0.6068 -2.9050
11114TIP3   OH254756   4.995   0.608  15.142  0.0572  0.2332 -0.4199
11114TIP3    H154757   4.975   0.584  15.232  1.9456 -0.8375 -0.2338
11114TIP3    H254758   4.958   0.538  15.089  1.0367 -0.4255 -0.2639
11115TIP3   OH254759   4.531   2.438   4.098  0.1667  0.1649 -0.3873
11115TIP3    H154760   4.453   2.493   4.095  0.1720  0.1393 -1.7706
11115TIP3    H254761   4.513   2.375   4.167 -1.8290 -0.9562 -1.8347
11116TIP3   OH254762   2.430   3.613  16.749 -0.1123  0.2764 -0.5606
11116TIP3    H154763   2.509   3.666  16.736 -0.9639  1.2496 -1.9996
11116TIP3    H254764   2.364   3.675  16.779 -0.0913 -0.7340  1.8677
11117TIP3   OH254765   2.816   2.413   5.905 -0.2192 -0.2017 -0.3301
11117TIP3    H154766   2.798   2.394   5.997  1.3189 -1.8660 -0.3168
11117TIP3    H254767   2.896   2.466   5.907 -0.5827  0.3751 -0.7011
11118TIP3   OH254768   2.967   2.555   0.255 -0.2917  0.2445 -0.0915
11118TIP3    H154769   2.881   2.531   0.288 -0.5309 -0.5239 -1.2483
11118TIP3    H254770   3.028   2.527   0.324 -0.8733 -0.2842  0.2147
11119TIP3   OH254771   0.280   2.626  13.426  0.5214  0.0514  0.0650
11119TIP3    H154772   0.199   2.677  13.425  0.0332 -0.5594  2.4523
11119TIP3    H254773   0.295   2.604  13.334 -1.1889  1.4452 -0.6115
11120TIP3   OH254774   4.571   0.765  14.087  0.3891  0.2415  0.0786
11120TIP3    H154775   4.643   0.771  14.025 -0.1245  1.6586 -0.4081
11120TIP3    H254776   4.600   0.816  14.163  0.4212 -0.2840  0.4272
11121TIP3   OH254777   4.292   4.015  15.185 -0.8833  0.4970 -0.0083
11121TIP3    H154778   4.332   4.068  15.254  1.2606 -1.3234  0.2508
11121TIP3    H254779   4.318   3.925  15.206  1.3748 -0.0071 -4.0918
11122TIP3   OH254780   0.964   2.713   0.637  0.2753  0.2548 -0.0831
11122TIP3    H154781   0.959   2.652   0.710 -0.0749  0.2359 -0.1215
11122TIP3    H254782   0.875   2.716   0.601  0.2322  0.9561  0.0584
11123TIP3   OH254783   1.369   0.411   6.805 -0.2853  0.7043  0.5999
11123TIP3    H154784   1.463   0.395   6.806 -0.6218 -2.0622 -1.1972
11123TIP3    H254785   1.358   0.489   6.750  0.8835 -0.6687 -1.7652
11124TIP3   OH254786   2.422   1.762  13.333 -0.6502 -0.0300  0.4168
11124TIP3    H154787   2.377   1.846  13.334  1.6134  1.2744  1.4789
11124TIP3    H254788   2.436   1.740  13.425  0.6096 -0.4766  0.1508
11125TIP3   OH254789   3.898   2.890   1.961  0.7879  0.2145 -0.1137
11125TIP3    H154790   3.884   2.948   1.887  1.2695  1.7174  0.9089
11125TIP3    H254791   3.869   2.941   2.037  2.8080 -0.1868  1.0151
11126TIP3   OH254792   5.461   2.097   2.428 -0.1682 -0.4301  0.0607
11126TIP3    H154793   5.548   2.123   2.458 -0.7475  1.1849  0.4269
11126TIP3    H254794   5.477   2.020   2.373  1.1849 -2.1368  2.6023
11127TIP3   OH254795   4.516   1.635  13.232 -0.4452  0.0078  0.0537
11127TIP3    H154796   4.506   1.727  13.206  0.6693  0.2850  0.5507
11127TIP3    H254797   4.555   1.638  13.319 -0.6526 -0.9424  0.1956
11128TIP3   OH254798   1.282   2.594   5.008  0.4794 -0.1113 -0.1337
11128TIP3    H154799   1.316   2.570   5.095  1.9058 -0.7570 -0.8425
11128TIP3    H254800   1.262   2.510   4.966  0.2283  0.1819 -0.6065
11129TIP3   OH254801   1.496   2.589  16.113 -0.2657 -0.4871  0.1941
11129TIP3    H154802   1.492   2.567  16.020 -0.2855 -0.1727  0.1213
11129TIP3    H254803   1.556   2.524  16.150  0.2127 -0.2416 -0.1469
11130TIP3   OH254804   2.462   4.402  11.581 -0.3736  0.0918 -0.3835
11130TIP3    H154805   2.423   4.450  11.508  1.6992  0.5753 -1.2393
11130TIP3    H254806   2.554   4.394  11.558  0.4089  0.4170  2.2841
11131TIP3   OH254807   3.388   3.995  10.699 -0.1133 -0.9717  0.0682
11131TIP3    H154808   3.294   4.003  10.686 -0.4569 -2.6793  1.2421
11131TIP3    H254809   3.420   3.956  10.618 -0.5439 -1.2149  0.0116
11132TIP3   OH254810   3.859   0.221  13.119  0.5932  0.1040 -0.0780
11132TIP3    H154811   3.862   0.289  13.052 -1.0513  0.0066 -0.2826
11132TIP3    H254812   3.941   0.231  13.168  1.8689  0.1429 -2.1220
11133TIP3   OH254813   1.958   3.185   0.271  0.1699 -0.3405  0.3552
11133TIP3    H154814   1.903   3.225   0.338 -1.1479 -0.1917 -0.7775
11133TIP3    H254815   1.940   3.235   0.192  1.2943 -0.8522 -0.2492
11134TIP3   OH254816   1.189   1.401  13.752  0.0721  0.8770 -0.2276
11134TIP3    H154817   1.165   1.374  13.664  2.3772 -0.5870 -0.4952
11134TIP3    H254818   1.263   1.461  13.740 -1.3270  2.8906  0.6500
11135TIP3   OH254819   3.273   6.000  16.292 -0.6825  0.4567  0.2906
11135TIP3    H154820   3.299   5.939  16.360 -0.0112 -0.4568 -0.7457
11135TIP3    H254821   3.198   5.958  16.250 -0.7635  0.7626  0.1247
11136TIP3   OH254822   0.073   4.373  15.303  0.0055  0.0780 -1.0464
11136TIP3    H154823   0.044   4.283  15.322  0.9049 -0.1326 -0.6421
11136TIP3    H254824   0.028   4.395  15.221  0.4486 -1.0707 -1.6257
11137TIP3   OH254825   4.536   4.300  11.334  0.0822  0.0410  0.0694
11137TIP3    H154826   4.563   4.209  11.323  0.2937 -0.0459  1.2553
11137TIP3    H254827   4.447   4.295  11.369 -0.0488  0.2971 -0.2209
11138TIP3   OH254828   2.206   2.695   5.769  0.9565 -0.8133  0.0590
11138TIP3    H154829   2.223   2.684   5.675 -0.6075  0.1406 -0.3698
11138TIP3    H254830   2.293   2.702   5.808  1.6346  0.6548 -1.5784
11139TIP3   OH254831   6.527   3.418   6.411 -0.5873  0.2252  0.4479
11139TIP3    H154832   6.434   3.398   6.424 -0.8055  1.3675  0.6773
11139TIP3    H254833   6.537   3.418   6.316 -0.6148 -0.7738  0.4321
11140TIP3   OH254834   1.730   6.446  12.032  0.5758 -0.6668 -0.4008
11140TIP3    H154835   1.709   6.536  12.058  0.9167 -0.3929 -1.0466
11140TIP3    H254836   1.765   6.454  11.943  0.4154 -1.4633 -0.5462
11141TIP3   OH254837   2.641   2.770   2.619 -0.0599 -0.3096 -0.2276
11141TIP3    H154838   2.705   2.742   2.685  0.9269  0.1764 -0.9643
11141TIP3    H254839   2.586   2.693   2.606  0.7677 -0.9501 -0.0527
11142TIP3   OH254840   4.563   1.040  15.535 -0.4848 -0.1930 -0.2238
11142TIP3    H154841   4.563   0.946  15.515  0.7061  0.0379 -1.5114
11142TIP3    H254842   4.614   1.079  15.464  0.5056  1.2414  1.2036
11143TIP3   OH254843   2.175   1.688   2.162 -0.2518  0.5376  0.0915
11143TIP3    H154844   2.124   1.607   2.167  1.2630 -0.6005 -1.4397
11143TIP3    H254845   2.244   1.677   2.227  0.8307 -0.1390 -1.1063
11144TIP3   OH254846   4.236   6.452  15.906 -0.1046  0.1808 -0.2716
11144TIP3    H154847   4.296   6.463  15.980 -1.1283  2.4796  0.3210
11144TIP3    H254848   4.152   6.428  15.947 -0.3951  0.3421 -0.7662
11145TIP3   OH254849   2.764   3.097   5.684 -0.5821 -0.0204 -0.2554
11145TIP3    H154850   2.695   3.090   5.750  1.2344 -0.4583  1.6714
11145TIP3    H254851   2.782   3.191   5.677  0.4951 -0.0895  1.2900
11146TIP3   OH254852   0.107   0.615  17.210  0.7845 -0.3899 -0.0791
11146TIP3    H154853   0.156   0.694  17.189  2.3072 -1.6268 -1.3988
11146TIP3    H254854   0.147   0.582  17.291 -0.2775  0.4806  0.8377
11147TIP3   OH254855   3.678   5.915  15.704  0.3658  0.8591 -0.0258
11147TIP3    H154856   3.743   5.850  15.676  0.6075 -0.1012  2.4666
11147TIP3    H254857   3.680   5.982  15.636  1.4933 -0.8122 -1.7348
11148TIP3   OH254858   4.977   1.180  12.618  0.0885 -0.0582 -0.3013
11148TIP3    H154859   4.956   1.152  12.528 -1.4195  1.0440 -0.3330
11148TIP3    H254860   4.892   1.179  12.663  0.5501  1.0786  0.6222
11149TIP3   OH254861   6.682   5.866   2.360 -0.4428  0.4567 -0.1186
11149TIP3    H154862   6.700   5.796   2.297  0.2006  0.4891  0.0266
11149TIP3    H254863   6.703   5.946   2.314 -0.0211  0.4843  0.1186
11150TIP3   OH254864   1.922   1.409   5.491  0.2940  0.4138 -0.6315
11150TIP3    H154865   2.006   1.429   5.449  0.5106 -0.5989 -0.6903
11150TIP3    H254866   1.857   1.431   5.425  0.6087 -0.6929 -1.3317
11151TIP3   OH254867   6.532   0.997   4.023  0.5014 -0.2613 -0.0619
11151TIP3    H154868   6.584   1.051   4.082 -1.4485  1.4562  0.1895
11151TIP3    H254869   6.576   1.002   3.939  1.4967 -0.0069  0.4647
11152TIP3   OH254870   4.112   5.253   5.597 -0.2679  0.5816 -0.4001
11152TIP3    H154871   4.096   5.174   5.545 -1.4033 -0.7762  1.8535
11152TIP3    H254872   4.207   5.256   5.607 -0.2774 -1.5649  0.8966
11153TIP3   OH254873   5.325   5.196  13.949 -0.8738 -0.1753 -0.1726
11153TIP3    H154874   5.321   5.112  13.901 -1.1863 -0.1105 -0.2611
11153TIP3    H254875   5.347   5.171  14.039  1.0356 -0.2086 -0.6067
11154TIP3   OH254876   2.694   4.893   6.431  0.0574  0.2880 -0.1789
11154TIP3    H154877   2.785   4.865   6.428  0.5188  1.7108 -0.2228
11154TIP3    H254878   2.685   4.954   6.358 -0.7853  0.5870  0.1591
11155TIP3   OH254879   6.307   1.440   4.424  0.4947  0.2850 -0.2673
11155TIP3    H154880   6.297   1.424   4.518 -1.7598 -1.2724 -0.7031
11155TIP3    H254881   6.240   1.505   4.404  1.7451  1.4959 -0.6296
11156TIP3   OH254882   4.110   6.113  16.763 -0.0680 -0.2859  0.3388
11156TIP3    H154883   4.116   6.027  16.804  2.0777 -0.1415  0.4429
11156TIP3    H254884   4.200   6.143  16.757 -0.7400  1.8640  0.0633
11157TIP3   OH254885   5.516   6.503  11.427 -0.4176 -0.0081  0.8043
11157TIP3    H154886   5.566   6.431  11.464  0.5027 -0.2854 -0.8833
11157TIP3    H254887   5.577   6.576  11.424  0.3298 -0.6258 -2.2050
11158TIP3   OH254888   3.248   4.005  16.738  0.6515  0.4663  0.5296
11158TIP3    H154889   3.259   4.018  16.644  1.0250  0.0996  0.5157
11158TIP3    H254890   3.257   3.910  16.749  0.2433  0.4687  0.8893
11159TIP3   OH254891   0.661   0.524   0.140 -0.1692 -0.3950 -0.4149
11159TIP3    H154892   0.611   0.449   0.108  1.1383 -0.7760 -1.6585
11159TIP3    H254893   0.659   0.587   0.068 -1.8004  1.1046  0.8441
11160TIP3   OH254894   3.384   0.590  11.959 -0.1013 -0.1107  0.0759
11160TIP3    H154895   3.356   0.509  11.917  0.7495 -0.5978  0.4228
11160TIP3    H254896   3.462   0.566  12.008 -1.6601  0.1844  2.8612
11161TIP3   OH254897   4.561   2.197   2.132 -0.1667  0.0674  0.1378
11161TIP3    H154898   4.595   2.142   2.202 -1.7429 -0.4641  0.5228
11161TIP3    H254899   4.639   2.224   2.083  0.7894 -1.1447  0.9211
11162TIP3   OH254900   0.757   4.515   2.347 -0.0827  0.0871 -0.2385
11162TIP3    H154901   0.745   4.449   2.279 -0.9216 -0.4524  0.4164
11162TIP3    H254902   0.697   4.586   2.324  0.3888  0.3654 -0.6203
11163TIP3   OH254903   0.041   1.380   1.010  0.2255  0.5169 -0.3183
11163TIP3    H154904   0.073   1.388   1.100  0.1007 -2.0754  0.0073
11163TIP3    H254905  -0.054   1.369   1.020  0.3456 -0.9866 -0.6459
11164TIP3   OH254906   0.273   4.533  14.771  0.2254 -0.4340 -0.4441
11164TIP3    H154907   0.360   4.571  14.782 -0.3946  0.6349  1.4549
11164TIP3    H254908   0.225   4.598  14.720  0.0817 -0.1611  0.0217
11165TIP3   OH254909   4.807   1.341   6.574 -0.2314  0.3683 -0.4900
11165TIP3    H154910   4.756   1.418   6.600  2.6586  3.0004 -1.8667
11165TIP3    H254911   4.773   1.316   6.489 -1.5083 -0.2252  0.1790
11166TIP3   OH254912   1.868   3.548  13.505 -0.4721  0.2894 -0.1891
11166TIP3    H154913   1.881   3.632  13.549 -0.7983  1.3261 -1.9826
11166TIP3    H254914   1.952   3.531  13.463 -0.4896 -0.1567 -0.0438
11167TIP3   OH254915   6.536   2.326  17.000 -0.3434 -0.1124  0.3500
11167TIP3    H154916   6.579   2.412  17.000 -0.4558 -0.0569 -0.1799
11167TIP3    H254917   6.525   2.306  17.093  0.3789  0.0976  0.4875
11168TIP3   OH254918   1.235   3.592  15.654  0.8270  0.1481  0.2711
11168TIP3    H154919   1.202   3.642  15.579  1.4295 -0.9870 -0.7789
11168TIP3    H254920   1.181   3.622  15.727  0.1841  1.2518 -0.6075
11169TIP3   OH254921   5.262   0.583  14.052  0.8443 -0.3108 -0.1704
11169TIP3    H154922   5.181   0.581  14.002  0.0070  0.6819  1.0925
11169TIP3    H254923   5.235   0.572  14.143  1.7959  2.6498  0.5752
11170TIP3   OH254924   4.661   0.802   2.634  0.2852  0.5375  0.2345
11170TIP3    H154925   4.718   0.758   2.698  0.2628 -1.2585 -0.9124
11170TIP3    H254926   4.674   0.753   2.553 -1.0409  1.6527 -0.6918
11171TIP3   OH254927   2.731   5.913   1.899 -0.3604  0.4566  0.1017
11171TIP3    H154928   2.724   6.006   1.879  0.3110  0.7768  1.2731
11171TIP3    H254929   2.645   5.878   1.878 -0.2203  1.0590 -1.6550
11172TIP3   OH254930   6.619   0.164  17.021 -0.2103  0.3403  0.3165
11172TIP3    H154931   6.566   0.103  16.970  0.0756  0.7033 -0.4451
11172TIP3    H254932   6.613   0.133  17.111  0.3787 -1.1431 -0.1246
11173TIP3   OH254933   4.425   1.721  13.718 -0.1667  0.5377  0.6201
11173TIP3    H154934   4.413   1.629  13.695  0.1334  1.2240 -2.7839
11173TIP3    H254935   4.512   1.743  13.685 -0.6436  2.2665  0.4138
11174TIP3   OH254936   1.871   3.008   0.610 -0.7791  0.5390 -0.5559
11174TIP3    H154937   1.946   3.005   0.670 -2.0431 -0.1049  1.0898
11174TIP3    H254938   1.899   2.959   0.533 -0.1369 -1.4282  0.8444
11175TIP3   OH254939   6.116   1.470  13.717  0.1665 -0.4415 -0.3840
11175TIP3    H154940   6.130   1.560  13.749 -1.7896 -0.0749 -0.4617
11175TIP3    H254941   6.199   1.425  13.736  0.7067  1.0088  0.9075
11176TIP3   OH254942   6.341   1.069   1.679 -0.5273 -0.6706  0.0357
11176TIP3    H154943   6.374   0.985   1.649  0.1196 -0.2642 -0.4156
11176TIP3    H254944   6.246   1.062   1.671 -0.4091 -0.5125 -2.3742
11177TIP3   OH254945   3.467   5.160  17.048 -0.3528  0.1015  0.5437
11177TIP3    H154946   3.440   5.184  17.137  0.9683  1.2133  0.6719
11177TIP3    H254947   3.395   5.189  16.993 -0.5191  0.8032  1.1092
11178TIP3   OH254948   4.627   1.855  15.120 -0.0383 -0.7001  0.2226
11178TIP3    H154949   4.626   1.950  15.127 -2.2047 -0.6897  0.3454
11178TIP3    H254950   4.623   1.824  15.211  1.2974 -0.9447  0.2186
11179TIP3   OH254951   0.735   5.474   3.216 -0.4849  0.0084 -0.1103
11179TIP3    H154952   0.793   5.414   3.170 -0.5531 -0.0520 -0.1173
11179TIP3    H254953   0.768   5.475   3.306 -0.9496 -0.6315  0.0764
11180TIP3   OH254954   6.165   3.448  11.000  0.2575  0.6134  0.0017
11180TIP3    H154955   6.226   3.434  10.928 -0.4187  0.1551 -0.4994
11180TIP3    H254956   6.180   3.375  11.060  3.4543  2.8813  2.3153
11181TIP3   OH254957   1.735   1.387   4.346  0.5684  0.0027 -0.0861
11181TIP3    H154958   1.773   1.406   4.432  0.8049 -0.7194 -0.0281
11181TIP3    H254959   1.755   1.465   4.294  0.8476  0.2454  0.3762
11182TIP3   OH254960   4.156   0.496  13.057 -0.0829  0.4550 -0.3033
11182TIP3    H154961   4.130   0.457  13.141  3.1553  0.1172  0.7176
11182TIP3    H254962   4.147   0.590  13.070 -1.8629  0.3474 -0.4959
11183TIP3   OH254963   0.905   6.410  16.161  0.4954  0.3713  0.0712
11183TIP3    H154964   0.964   6.485  16.151 -1.2743  1.6822 -1.1396
11183TIP3    H254965   0.958   6.334  16.137  1.2745  1.6803 -2.8320
11184TIP3   OH254966   1.304   1.669  12.537 -0.9628 -0.8468 -0.1648
11184TIP3    H154967   1.351   1.631  12.611 -0.2335 -0.7178 -0.5478
11184TIP3    H254968   1.269   1.752  12.570  0.4618 -0.1532 -0.3048
11185TIP3   OH254969   1.871   3.756  10.406  0.7649  0.3212 -0.0921
11185TIP3    H154970   1.921   3.827  10.446 -0.9862  0.5141  1.8966
11185TIP3    H254971   1.936   3.709  10.353  2.2537  2.5726 -0.3990
11186TIP3   OH254972   3.139   6.534  14.024 -0.1002  0.6246 -0.0715
11186TIP3    H154973   3.178   6.510  14.108  0.4390  2.9995  0.4336
11186TIP3    H254974   3.196   6.494  13.958 -0.1118 -0.6451  0.6586
11187TIP3   OH254975   5.432   6.585   0.661 -0.7473  0.3435 -0.1448
11187TIP3    H154976   5.401   6.526   0.730  0.1196  0.7479  0.6078
11187TIP3    H254977   5.353   6.615   0.617 -1.3438  0.4372  0.9740
11188TIP3   OH254978   6.628   2.446  15.475 -0.5380 -0.2185  0.5467
11188TIP3    H154979   6.723   2.456  15.471 -0.2705 -2.5400 -1.1699
11188TIP3    H254980   6.608   2.377  15.412 -3.4454  0.4933  0.5072
11189TIP3   OH254981   6.009   5.601  10.913  1.1569 -0.1524  0.6316
11189TIP3    H154982   6.015   5.672  10.849 -1.0807 -0.8244 -0.4286
11189TIP3    H254983   5.992   5.644  10.996  2.5267  0.6484  0.5289
11190TIP3   OH254984   0.637   0.740  13.365  0.0261 -0.7446  0.4757
11190TIP3    H154985   0.590   0.679  13.309 -2.7707  0.0387  1.7959
11190TIP3    H254986   0.616   0.826  13.329  2.3111 -0.3743 -0.1734
11191TIP3   OH254987   4.822   6.020  13.853 -0.4125  0.6428 -0.1982
11191TIP3    H154988   4.739   5.977  13.868 -0.6104  0.4199 -1.7383
11191TIP3    H254989   4.803   6.089  13.789  0.8025 -0.3679 -1.7470
11192TIP3   OH254990   4.521   1.222   1.618 -0.0368 -0.6032 -0.2511
11192TIP3    H154991   4.434   1.261   1.605  1.0001  1.8444 -0.4925
11192TIP3    H254992   4.513   1.173   1.700 -1.5603 -0.1305 -0.0762
11193TIP3   OH254993   6.047   2.423   0.866 -0.2745 -0.6953  0.1148
11193TIP3    H154994   6.021   2.449   0.954 -2.9300 -1.6041 -0.3013
11193TIP3    H254995   6.033   2.501   0.812  0.4360 -0.4116  0.3423
11194TIP3   OH254996   3.835   6.463   4.580 -0.0733  0.1120  0.3812
11194TIP3    H154997   3.844   6.551   4.617 -0.8546  0.0152  0.8287
11194TIP3    H254998   3.820   6.478   4.486  2.1094  0.3524  0.0219
11195TIP3   OH254999   3.918   4.931  11.398  0.7918  0.2054  0.2371
11195TIP3    H155000   4.013   4.925  11.401  0.7017 -1.1612  1.7984
11195TIP3    H255001   3.897   4.943  11.305  2.4369 -0.3816 -0.2391
11196TIP3   OH255002   3.081   6.733  10.833  0.1728 -0.6618  0.2521
11196TIP3    H155003   3.012   6.792  10.804  0.0004 -2.2281 -2.9127
11196TIP3    H255004   3.161   6.784  10.829 -0.3651  0.2608  0.8763
11197TIP3   OH255005   6.065   2.690  16.617 -0.2349 -0.0859  0.5254
11197TIP3    H155006   6.073   2.686  16.712  0.3124  0.3156  0.5049
11197TIP3    H255007   6.071   2.783  16.596  1.4368 -0.2731 -0.0264
11198TIP3   OH255008   2.748   4.309  13.426  0.0848 -0.0420  0.7255
11198TIP3    H155009   2.653   4.298  13.418  0.2094  0.4189 -3.1542
11198TIP3    H255010   2.758   4.390  13.476 -1.6362  0.5300  0.2246
11199TIP3   OH255011   5.959   1.899  17.188 -0.0782  0.3555 -0.6360
11199TIP3    H155012   5.939   1.856  17.270 -0.9696  1.5192 -0.2135
11199TIP3    H255013   5.928   1.839  17.120  1.2838 -0.9264 -0.1741
11200TIP3   OH255014   1.881   1.106   1.948 -0.1808 -0.2032 -0.0275
11200TIP3    H155015   1.907   1.165   2.019 -0.0407 -0.0444 -0.2108
11200TIP3    H255016   1.872   1.163   1.871 -3.6819  0.2548  0.5576
11201TIP3   OH255017   4.984   4.651   4.035  0.5663  0.1571  0.4676
11201TIP3    H155018   5.016   4.566   4.065  0.4940 -0.2600 -0.6043
11201TIP3    H255019   4.920   4.676   4.102  1.5755  0.0286  1.5211
11202TIP3   OH255020   1.294   6.006  13.486  0.5935  0.0765 -0.6633
11202TIP3    H155021   1.384   5.973  13.476  1.5195  2.1762  0.1053
11202TIP3    H255022   1.305   6.096  13.519 -1.7348  1.1698 -2.5474
11203TIP3   OH255023   0.387   1.946  10.353  0.5095  0.2050  0.1728
11203TIP3    H155024   0.412   1.886  10.423  0.6198 -0.7783 -0.6883
11203TIP3    H255025   0.463   1.950  10.296  0.1890  0.5027 -0.2387
11204TIP3   OH255026   2.712   4.759  14.809  0.2096  0.2107 -0.8063
11204TIP3    H155027   2.679   4.675  14.777  2.0991 -0.5353 -0.9831
11204TIP3    H255028   2.749   4.738  14.895 -1.0595  1.3094  0.0438
11205TIP3   OH255029   1.796   3.456   1.656 -0.1825 -0.1284 -0.1818
11205TIP3    H155030   1.761   3.546   1.657 -2.6247 -0.9987  1.4436
11205TIP3    H255031   1.818   3.438   1.747  1.0590 -0.9667 -0.6126
11206TIP3   OH255032   4.915   5.796   0.519 -0.0973 -0.0143 -0.5296
11206TIP3    H155033   4.967   5.748   0.455  1.1780  0.5916  0.0366
11206TIP3    H255034   4.867   5.728   0.567  2.4779 -0.8833  0.9816
11207TIP3   OH255035   5.072   4.544  11.216 -0.1457 -0.2185 -0.0528
11207TIP3    H155036   5.045   4.499  11.296 -0.2923 -0.3245 -0.1611
11207TIP3    H255037   5.147   4.493  11.184 -0.3435 -0.4145 -0.2027
11208TIP3   OH255038   1.863   4.197  16.066 -0.0855  0.0399  0.0541
11208TIP3    H155039   1.926   4.146  16.015 -1.0013  0.8500 -1.9934
11208TIP3    H255040   1.874   4.287  16.036 -1.6380  0.3146  0.2152
11209TIP3   OH255041   1.304   5.917   0.614 -0.4841 -0.3554 -0.1372
11209TIP3    H155042   1.298   5.949   0.524  0.5739 -0.7297 -0.3673
11209TIP3    H255043   1.394   5.883   0.621 -0.3792  0.1338  1.2191
11210TIP3   OH255044   3.633   4.847  13.082 -0.1861  0.3039 -0.4340
11210TIP3    H155045   3.628   4.875  12.990  0.0986 -1.5584 -1.0724
11210TIP3    H255046   3.727   4.832  13.097 -0.5056 -3.8206 -1.3809
11211TIP3   OH255047   6.042   0.772  12.377  0.0244 -0.4003 -0.4991
11211TIP3    H155048   5.978   0.792  12.309  0.2794  0.3263 -0.5469
11211TIP3    H255049   6.109   0.719  12.333  0.3555  0.3417 -0.9138
11212TIP3   OH255050   4.793   1.788   4.309 -0.7325  0.7067 -0.0439
11212TIP3    H155051   4.842   1.814   4.231  0.0713 -1.5202 -0.3440
11212TIP3    H255052   4.855   1.737   4.361 -1.5034  1.4387  1.6793
11213TIP3   OH255053   3.498   5.962   4.412  0.6354  0.4796 -0.0249
11213TIP3    H155054   3.404   5.947   4.413  0.5477  1.0821  0.6977
11213TIP3    H255055   3.535   5.874   4.400  0.0202  0.0565  0.9912
11214TIP3   OH255056   3.263   1.733   2.012  0.6917  0.1890  0.0421
11214TIP3    H155057   3.285   1.823   1.990 -0.2333  0.7552  1.3509
11214TIP3    H255058   3.346   1.696   2.042  0.7609  1.0648  0.9674
11215TIP3   OH255059   1.300   3.228  11.380 -0.5586 -0.4658 -0.2606
11215TIP3    H155060   1.305   3.153  11.439  0.8176  0.1173  0.4105
11215TIP3    H255061   1.374   3.284  11.405 -1.2081  0.8474 -1.1161
11216TIP3   OH255062   1.974   0.235   0.725  0.4392  0.0463 -0.2329
11216TIP3    H155063   2.022   0.283   0.792  2.2981 -0.6995 -0.9666
11216TIP3    H255064   1.983   0.287   0.646 -2.0892  1.1290  0.1071
11217TIP3   OH255065   5.204   0.356  15.327  0.0668 -0.2990  0.1724
11217TIP3    H155066   5.169   0.329  15.243  0.9591 -0.0521 -0.2884
11217TIP3    H255067   5.228   0.448  15.315  0.7231 -0.4167  0.5121
11218TIP3   OH255068   4.871   1.168  16.697 -0.3455 -0.0759  0.2731
11218TIP3    H155069   4.857   1.118  16.616 -1.2695 -0.0461  0.4056
11218TIP3    H255070   4.812   1.243  16.689 -0.7587 -0.2931  1.1611
11219TIP3   OH255071   0.776   5.837   1.561  0.7109  0.0378  0.2287
11219TIP3    H155072   0.690   5.853   1.600  1.3633  1.4254  1.1823
11219TIP3    H255073   0.771   5.879   1.475  0.3616 -0.0892  0.1868
11220TIP3   OH255074   0.476   3.977   5.459  0.5921  0.5497  0.0280
11220TIP3    H155075   0.433   3.903   5.502  3.0027 -0.4269  0.9299
11220TIP3    H255076   0.449   4.053   5.511  0.0869 -0.0436  0.6594
11221TIP3   OH255077   5.648   0.759   4.700  0.3832  0.0371  0.1243
11221TIP3    H155078   5.609   0.803   4.775  0.0114 -0.0829  0.0052
11221TIP3    H255079   5.719   0.817   4.672 -0.1907  0.6386 -0.1196
11222TIP3   OH255080   4.722   5.352   6.546 -1.1443  0.2072  0.1998
11222TIP3    H155081   4.699   5.439   6.512 -1.3734 -0.1142 -0.4826
11222TIP3    H255082   4.815   5.358   6.566 -0.7792  0.1427 -1.3572
11223TIP3   OH255083   2.999   6.277   1.946  0.2376 -0.3377 -0.5483
11223TIP3    H155084   3.050   6.358   1.948 -1.1713  0.5916  1.5080
11223TIP3    H255085   3.060   6.210   1.975  0.1485  0.9373  3.0621
11224TIP3   OH255086   5.352   5.411  15.851 -0.5874 -0.4137 -0.5516
11224TIP3    H155087   5.349   5.352  15.775 -0.7514  0.8307 -1.5574
11224TIP3    H255088   5.444   5.412  15.876 -0.7799 -2.1679  0.3990
11225TIP3   OH255089   0.619   5.066   1.694  0.4271  0.3024 -0.0732
11225TIP3    H155090   0.674   5.016   1.755 -2.3501 -1.6891  1.0425
11225TIP3    H255091   0.651   5.041   1.607 -0.2295 -2.9034  0.4620
11226TIP3   OH255092   3.379   4.607  14.780  0.5423  0.4079 -0.2904
11226TIP3    H155093   3.375   4.651  14.865 -0.7193 -1.2639  0.5772
11226TIP3    H255094   3.341   4.670  14.718 -1.5588  0.4679  0.9622
11227TIP3   OH255095   3.411   0.302   3.478  0.2732 -0.0718 -0.1398
11227TIP3    H155096   3.402   0.222   3.427  2.6173  2.1046 -4.5235
11227TIP3    H255097   3.478   0.281   3.543  1.8490 -1.4155 -2.0742
11228TIP3   OH255098   4.216   5.302   1.153 -0.2821  0.6752  0.6130
11228TIP3    H155099   4.147   5.347   1.201 -0.9020  1.0765 -0.6178
11228TIP3    H255100   4.190   5.308   1.061  0.7166 -0.3320  0.2328
11229TIP3   OH255101   5.221   2.295   5.635 -0.0154  0.5785 -0.3422
11229TIP3    H155102   5.240   2.225   5.696  0.0164  0.8264 -0.0655
11229TIP3    H255103   5.301   2.349   5.634  0.3174  0.1058 -1.2539
11230TIP3   OH255104   3.442   2.036  16.289 -0.4940  0.3132  0.3793
11230TIP3    H155105   3.416   2.016  16.379  0.5430  0.8389  0.8155
11230TIP3    H255106   3.482   1.955  16.257  0.4987  0.5693  0.9245
11231TIP3   OH255107   3.958   6.621  16.264 -0.2830  0.4153  0.0941
11231TIP3    H155108   3.994   6.637  16.351  0.6441  0.7425 -0.3428
11231TIP3    H255109   4.031   6.636  16.205 -0.9117  0.2042 -0.7467
11232TIP3   OH255110   3.064   1.672  15.759 -0.2327  0.2670  0.1411
11232TIP3    H155111   3.034   1.599  15.704  0.5828  0.9972 -1.3213
11232TIP3    H255112   3.116   1.727  15.700  0.7385  1.0526  1.6706
11233TIP3   OH255113   0.029   2.084   4.909 -0.2243  0.1530  0.5147
11233TIP3    H155114  -0.057   2.126   4.906 -0.5302 -0.2794  2.1924
11233TIP3    H255115   0.016   2.005   4.962  1.1159 -0.1621  0.4261
11234TIP3   OH255116   0.089   6.278  16.108  0.2645 -0.1319  0.0522
11234TIP3    H155117   0.034   6.203  16.086  0.2199 -0.3305  0.8068
11234TIP3    H255118   0.151   6.243  16.172  0.3090  0.4499  0.3271
11235TIP3   OH255119   3.961   4.920   4.384 -0.2885 -0.2531  0.0978
11235TIP3    H155120   3.998   4.994   4.431 -1.3604  0.4817 -0.1853
11235TIP3    H255121   3.887   4.891   4.439  0.2547 -1.2688  0.3235
11236TIP3   OH255122   5.697   1.514  15.322 -0.5557 -0.6763  0.3410
11236TIP3    H155123   5.696   1.489  15.229 -1.1944 -0.2197  0.2186
11236TIP3    H255124   5.642   1.592  15.326  2.0064  1.2802  0.5533
11237TIP3   OH255125   3.853   3.067   4.204 -0.0736 -0.3371  0.6313
11237TIP3    H155126   3.797   3.127   4.253 -0.6733  0.1059 -0.5725
11237TIP3    H255127   3.905   3.023   4.272 -1.7457 -0.6546  1.7822
11238TIP3   OH255128   1.671   6.477  16.859 -0.6606 -0.7891 -0.0762
11238TIP3    H155129   1.654   6.429  16.940  0.5813 -1.4882 -0.1925
11238TIP3    H255130   1.641   6.417  16.790  2.0591 -2.0412 -0.2825
11239TIP3   OH255131   0.694   2.804   5.462  0.0841 -0.3626 -0.1541
11239TIP3    H155132   0.723   2.735   5.402 -2.1394 -0.4150 -1.2579
11239TIP3    H255133   0.649   2.867   5.406 -0.3705  0.5831  1.2148
11240TIP3   OH255134   6.096   2.522   0.135 -0.3170  0.4862 -0.6784
11240TIP3    H155135   6.029   2.570   0.184  1.0486  1.2941  0.4926
11240TIP3    H255136   6.145   2.591   0.089 -0.9165 -0.1782 -2.3967
11241TIP3   OH255137   5.165   1.628  11.986 -0.2279  0.4954 -0.0126
11241TIP3    H155138   5.091   1.594  12.035 -1.2389 -1.1852 -2.5208
11241TIP3    H255139   5.133   1.711  11.949 -1.0693 -0.4297 -1.4356
11242TIP3   OH255140   2.567   2.565   3.331 -0.5399 -0.3081 -0.4547
11242TIP3    H155141   2.637   2.518   3.285 -1.2587  0.2597 -2.2228
11242TIP3    H255142   2.580   2.543   3.423  0.9781 -1.5089 -0.9067
11243TIP3   OH255143   4.544   0.331  13.382  0.0961  0.5680  0.0097
11243TIP3    H155144   4.454   0.360  13.367 -0.6917 -1.7855 -0.3323
11243TIP3    H255145   4.550   0.317  13.476 -0.3504 -0.4664 -0.0956
11244TIP3   OH255146   5.195   1.886   3.422 -0.9026 -0.4852 -0.1124
11244TIP3    H155147   5.160   1.964   3.379  2.1261  0.9742 -0.1602
11244TIP3    H255148   5.223   1.830   3.350 -0.5956 -0.3999 -0.0585
11245TIP3   OH255149   3.621   1.881  16.058  0.6076 -0.1760 -0.1767
11245TIP3    H155150   3.591   1.969  16.037 -0.7264 -1.0494 -2.2875
11245TIP3    H255151   3.662   1.849  15.977 -2.3793 -2.7829 -0.8685
11246TIP3   OH255152   0.024   0.978  10.435  0.2519 -0.3942  0.1275
11246TIP3    H155153  -0.023   0.894  10.442  0.1836 -0.5970 -2.0734
11246TIP3    H255154  -0.045   1.043  10.422  0.4396 -0.5014 -1.6549
11247TIP3   OH255155   1.042   2.212   5.694 -0.0210 -0.2137 -0.5033
11247TIP3    H155156   0.996   2.163   5.626 -1.9702  0.5536  0.2203
11247TIP3    H255157   1.129   2.229   5.657 -0.6279 -0.8505 -2.2892
11248TIP3   OH255158   2.567   6.138  15.272  0.2643 -0.4482  0.5414
11248TIP3    H155159   2.584   6.086  15.350  0.9415 -0.6475  0.2735
11248TIP3    H255160   2.645   6.127  15.218  0.6148  1.1724  0.6471
11249TIP3   OH255161   2.952   2.722  12.306  0.0065 -0.2015 -0.4420
11249TIP3    H155162   2.979   2.786  12.240 -2.4989  1.0921 -0.3214
11249TIP3    H255163   2.948   2.772  12.388 -1.6214 -0.5559 -0.2686
11250TIP3   OH255164   4.069   1.401   0.356 -0.5142 -0.0319  0.5811
11250TIP3    H155165   4.140   1.441   0.407  0.2134  0.7941 -1.0201
11250TIP3    H255166   4.112   1.337   0.300 -1.0337  0.3974 -0.3317
11251TIP3   OH255167   0.948   1.139  17.192 -0.0841  0.4257  0.0208
11251TIP3    H155168   0.885   1.146  17.120  0.3162 -0.7125 -0.4695
11251TIP3    H255169   1.025   1.187  17.162  1.4597 -2.9053 -1.9499
11252TIP3   OH255170   5.486   5.173  12.821  0.1558 -0.1245  0.2044
11252TIP3    H155171   5.487   5.102  12.757  1.3268 -0.2285  0.3237
11252TIP3    H255172   5.526   5.248  12.776 -1.2287  0.5436  0.0197
11253TIP3   OH255173   0.288   4.427   1.128 -0.7826  0.2386 -0.2538
11253TIP3    H155174   0.339   4.393   1.054 -1.0710 -0.7933  0.0020
11253TIP3    H255175   0.351   4.432   1.200 -0.6933  0.4491 -0.3452
11254TIP3   OH255176   2.791   3.149   2.066  0.3301  0.5157 -0.7282
11254TIP3    H155177   2.839   3.071   2.095 -2.4522 -1.0386  0.1059
11254TIP3    H255178   2.751   3.122   1.983 -0.3861  1.1644 -0.6035
11255TIP3   OH255179   1.054   4.875  16.201 -0.1136  0.4025 -0.4655
11255TIP3    H155180   1.063   4.786  16.166  2.6870  1.1190 -1.8991
11255TIP3    H255181   1.061   4.932  16.124  1.1552  1.8999  0.6769
11256TIP3   OH255182   2.775   1.585  15.264 -0.5649 -0.0140 -0.3749
11256TIP3    H155183   2.707   1.543  15.316  0.2829 -2.2348 -0.9485
11256TIP3    H255184   2.768   1.545  15.177  1.3944 -0.2604 -0.4707
11257TIP3   OH255185   2.806   3.018  16.855  0.2410  0.0995 -0.1932
11257TIP3    H155186   2.731   3.047  16.906  0.8964 -0.3138  1.0362
11257TIP3    H255187   2.878   3.013  16.918  1.1961  0.0357 -1.2484
11258TIP3   OH255188   2.952   5.669  11.525  0.4003  0.7740  0.0993
11258TIP3    H155189   2.888   5.617  11.574 -1.2482  1.0231 -1.6446
11258TIP3    H255190   2.936   5.647  11.433  1.0218  2.8288 -0.5731
11259TIP3   OH255191   2.162   5.264   5.154 -0.6122  0.8828 -0.1232
11259TIP3    H155192   2.202   5.181   5.179 -1.6931  0.3185 -0.2049
11259TIP3    H255193   2.175   5.270   5.060  2.0926  2.2674  0.2525
11260TIP3   OH255194   4.904   2.780  16.082  0.2968 -0.1292  0.5151
11260TIP3    H155195   4.911   2.869  16.118 -2.2649  0.1937  0.3946
11260TIP3    H255196   4.949   2.725  16.146  0.1420  1.0336  1.6658
11261TIP3   OH255197   0.888   3.762   3.301  0.2854  0.1913 -0.2249
11261TIP3    H155198   0.887   3.749   3.206  1.6511  0.0442 -0.2274
11261TIP3    H255199   0.887   3.674   3.338  1.4271  0.2089 -0.1335
11262TIP3   OH255200   0.569   0.918   5.942  0.2091 -0.1310  0.2337
11262TIP3    H155201   0.555   0.938   6.034 -1.3842 -0.8852  0.2003
11262TIP3    H255202   0.526   0.833   5.930 -0.8285  0.5890 -1.4946
11263TIP3   OH255203   0.388   3.688   4.154 -0.2281 -0.2337 -0.2615
11263TIP3    H155204   0.294   3.698   4.166 -0.3220 -0.3803 -0.8386
11263TIP3    H255205   0.397   3.633   4.076  0.3278  1.0800 -1.1768
11264TIP3   OH255206   2.854   5.870  15.386 -0.3160  0.0437  1.0114
11264TIP3    H155207   2.784   5.811  15.413 -0.1184 -1.2241 -1.0284
11264TIP3    H255208   2.832   5.895  15.297  2.2989 -1.2327 -0.0926
11265TIP3   OH255209   0.448   2.769   0.950  0.1561  0.9192 -0.2710
11265TIP3    H155210   0.416   2.852   0.916 -1.0638  0.3377 -0.5969
11265TIP3    H255211   0.452   2.782   1.045 -3.5041  0.2906  0.1121
11266TIP3   OH255212   5.912   5.947  16.846  0.0534  0.2100 -0.3187
11266TIP3    H155213   5.926   5.905  16.762 -1.1844  0.6760 -0.7732
11266TIP3    H255214   5.953   5.888  16.910  2.2535  0.5251 -1.3319
11267TIP3   OH255215   3.541   2.895  16.093 -1.2455  0.7905  0.1719
11267TIP3    H155216   3.497   2.969  16.135 -0.8750  0.6224  0.8803
11267TIP3    H255217   3.609   2.869  16.156  0.7803  1.8690 -1.4532
11268TIP3   OH255218   2.050   5.232  12.006  0.6408 -0.1878  0.2111
11268TIP3    H155219   2.126   5.259  12.058  0.5398  1.4021 -0.4083
11268TIP3    H255220   2.051   5.136  12.010  0.0002 -0.2065  4.0078
11269TIP3   OH255221   3.697   4.880   4.879 -0.2541 -0.1903  0.2959
11269TIP3    H155222   3.780   4.927   4.875 -0.0939 -0.3413  1.5576
11269TIP3    H255223   3.715   4.794   4.841 -0.8293  1.0407 -3.1953
11270TIP3   OH255224   3.902   0.905  14.958 -0.5281  0.1267  0.1777
11270TIP3    H155225   3.865   0.993  14.955 -3.0632 -0.8468  0.5619
11270TIP3    H255226   3.938   0.897  15.047 -3.7280 -0.4203  1.5442
11271TIP3   OH255227   0.825   2.487   3.922  0.5817 -0.1034 -0.1310
11271TIP3    H155228   0.847   2.498   3.830 -0.6252  1.0318 -0.3026
11271TIP3    H255229   0.887   2.420   3.953  0.6162 -0.9522 -1.8929
11272TIP3   OH255230   1.385   5.776  11.623  0.0354 -0.3436 -0.3552
11272TIP3    H155231   1.465   5.820  11.596  0.1164 -0.8341 -0.9122
11272TIP3    H255232   1.317   5.814  11.567 -0.5167  1.5389  1.4200
11273TIP3   OH255233   6.454   4.313  16.509 -0.4018  0.1646 -0.0947
11273TIP3    H155234   6.465   4.220  16.528  1.3438  0.4055  0.2121
11273TIP3    H255235   6.384   4.317  16.443 -1.4996 -1.2346  0.9293
11274TIP3   OH255236   6.209   4.458   3.177  0.4289 -0.6853  0.5203
11274TIP3    H155237   6.216   4.549   3.147  0.2607 -1.5178 -2.3843
11274TIP3    H255238   6.299   4.431   3.194  0.5416 -0.1964  0.7038
11275TIP3   OH255239   3.664   1.125   0.493 -0.3806 -0.0494 -0.2606
11275TIP3    H155240   3.585   1.167   0.460  0.2185 -0.6436 -2.6196
11275TIP3    H255241   3.633   1.048   0.540 -1.2243 -1.9639 -3.6369
11276TIP3   OH255242   3.855   6.209  12.871 -0.2422 -0.7834 -0.3251
11276TIP3    H155243   3.776   6.258  12.893 -0.2327 -1.1255  0.5286
11276TIP3    H255244   3.909   6.214  12.950  0.7675 -0.2297 -1.0222
11277TIP3   OH255245   3.302   2.332   3.338  0.2862  0.7063  0.0034
11277TIP3    H155246   3.302   2.241   3.368 -0.0358  0.2557 -1.2880
11277TIP3    H255247   3.379   2.371   3.378  0.1789 -0.0117  0.9368
11278TIP3   OH255248   3.991   6.115  11.118 -0.4932 -0.3320 -0.2413
11278TIP3    H155249   3.958   6.030  11.090  0.4908 -0.3050 -1.5692
11278TIP3    H255250   3.976   6.173  11.043 -0.9486  0.6142  0.5605
11279TIP3   OH255251   1.360   3.343  16.376 -0.5026  0.2701  0.1105
11279TIP3    H155252   1.367   3.248  16.375  0.8994  0.3484  0.2002
11279TIP3    H255253   1.315   3.364  16.458 -0.5245 -0.3016  0.2453
11280TIP3   OH255254   1.235   5.638   5.246  0.6784 -0.1123  0.1830
11280TIP3    H155255   1.302   5.649   5.314  1.6903  0.0512 -0.7960
11280TIP3    H255256   1.275   5.578   5.183 -0.3328 -0.4474 -0.1496
11281TIP3   OH255257   1.482   3.986  13.013  0.0614  0.0194 -0.1135
11281TIP3    H155258   1.481   3.891  13.029  1.4059 -0.3449 -1.9064
11281TIP3    H255259   1.393   4.014  13.034 -1.3288 -2.1914 -2.3911
11282TIP3   OH255260   4.009   3.590   3.711  0.3175  0.4673 -0.0663
11282TIP3    H155261   4.017   3.520   3.645 -0.0758 -0.2698  0.6445
11282TIP3    H255262   3.987   3.543   3.792  0.6728  1.3709  0.5596
11283TIP3   OH255263   2.286   1.115  11.466 -0.1599  0.9019  0.1308
11283TIP3    H155264   2.278   1.190  11.407 -0.7668  0.5349 -0.2611
11283TIP3    H255265   2.379   1.111  11.487  0.7432 -0.9923 -3.4869
11284TIP3   OH255266   2.337   3.125  14.288 -0.6521 -0.0855 -0.3233
11284TIP3    H155267   2.353   3.032  14.274  1.0335 -0.0411  0.9575
11284TIP3    H255268   2.327   3.161  14.200  3.5049 -0.7358 -1.2924
11285TIP3   OH255269   2.339   6.722   3.137  0.3156  0.0134  0.4145
11285TIP3    H155270   2.345   6.808   3.095 -3.3048  0.9399  1.4978
11285TIP3    H255271   2.275   6.674   3.085  0.8630 -1.3720  0.9591
11286TIP3   OH255272   5.510   4.689  13.404 -0.4208  0.3261 -0.5220
11286TIP3    H155273   5.431   4.644  13.433 -1.0149  1.3875 -0.4118
11286TIP3    H255274   5.478   4.771  13.366  0.5398  0.1213 -1.8144
11287TIP3   OH255275   4.594   6.190  10.608 -0.2998 -0.2981  0.1968
11287TIP3    H155276   4.587   6.108  10.559 -0.4634 -0.8535  1.1360
11287TIP3    H255277   4.630   6.165  10.693  1.3130  0.8315 -0.0937
11288TIP3   OH255278   1.204   5.323  13.173  0.4846  0.4243 -0.0081
11288TIP3    H155279   1.272   5.376  13.215 -0.8731  2.3456 -0.0912
11288TIP3    H255280   1.143   5.301  13.243  0.1004  0.5283 -0.3058
11289TIP3   OH255281   6.368   6.080  12.366 -0.2750 -0.1791  0.4223
11289TIP3    H155282   6.460   6.064  12.386  0.4241  3.6822  0.9669
11289TIP3    H255283   6.356   6.042  12.278  2.3370  0.7141 -0.4054
11290TIP3   OH255284   5.560   2.338   6.299  0.0344 -0.2630 -0.1462
11290TIP3    H155285   5.466   2.349   6.284 -0.0242  0.9386  0.9794
11290TIP3    H255286   5.594   2.427   6.304  1.3332 -0.6831 -1.0277
11291TIP3   OH255287   0.125   1.828   3.885 -0.1302 -0.1637 -0.6110
11291TIP3    H155288   0.191   1.760   3.899 -0.5069 -0.3395  0.3860
11291TIP3    H255289   0.169   1.910   3.909 -0.0949 -0.2130 -0.5078
11292TIP3   OH255290   6.206   6.563  12.959  0.6417  0.4205 -0.3326
11292TIP3    H155291   6.237   6.518  13.037 -0.2753  2.8515  1.5563
11292TIP3    H255292   6.132   6.511  12.928  0.8124 -0.3936  0.6059
11293TIP3   OH255293   2.922   5.001  14.961 -0.6839  0.3241 -0.7570
11293TIP3    H155294   2.870   5.016  14.882 -1.2531 -0.9471 -0.6406
11293TIP3    H255295   2.959   5.087  14.981  0.6699  0.4187 -3.2158
11294TIP3   OH255296   6.243   2.780  14.500  0.4683 -0.5425 -0.0569
11294TIP3    H155297   6.293   2.818  14.427  0.9056  0.0130  0.5258
11294TIP3    H255298   6.210   2.697  14.465  0.7033 -0.3015 -0.8787
11295TIP3   OH255299   6.527   2.846  13.850 -0.1221 -0.3583 -0.6624
11295TIP3    H155300   6.568   2.867  13.934 -1.5837  2.3043 -0.5199
11295TIP3    H255301   6.472   2.770  13.869 -0.6191  0.3399  0.8941
11296TIP3   OH255302   3.357   1.515   5.778  0.5000 -0.5580  0.3077
11296TIP3    H155303   3.267   1.498   5.808  0.9830 -0.8166  1.6491
11296TIP3    H255304   3.351   1.509   5.683 -0.6072 -2.1325  0.4401
11297TIP3   OH255305   4.711   3.725   4.857 -0.1984  0.1823 -0.2031
11297TIP3    H155306   4.691   3.633   4.840 -0.9719  0.6263 -1.9957
11297TIP3    H255307   4.688   3.739   4.948 -0.4772 -1.2904 -0.0279
11298TIP3   OH255308   4.822   4.058   1.610  0.4247  0.1741 -0.0763
11298TIP3    H155309   4.851   4.142   1.574  1.5879  0.1118  0.6511
11298TIP3    H255310   4.841   3.995   1.542 -0.0909  0.4386 -0.4736
11299TIP3   OH255311   4.844   3.645   2.065 -0.3119 -0.9369 -0.6610
11299TIP3    H155312   4.750   3.653   2.082 -0.3887 -0.0033 -1.4460
11299TIP3    H255313   4.851   3.567   2.010 -0.5823 -1.2100 -0.3181
11300TIP3   OH255314   3.854   4.434   0.107 -0.0362 -0.0667 -0.4615
11300TIP3    H155315   3.835   4.479   0.025 -1.6958 -1.6439 -0.9961
11300TIP3    H255316   3.857   4.505   0.172 -0.4852  1.0262 -1.5834
11301TIP3   OH255317   5.490   0.895  12.814  0.1876  0.3692 -0.7048
11301TIP3    H155318   5.570   0.846  12.830  2.3432  3.9072  0.5647
11301TIP3    H255319   5.493   0.918  12.721 -1.3584 -2.4882 -1.5660
11302TIP3   OH255320   3.411   4.581   5.645  0.0158  0.3018  0.3162
11302TIP3    H155321   3.385   4.509   5.587  2.4607  0.1307 -0.6655
11302TIP3    H255322   3.376   4.557   5.731  1.1231 -2.3092  0.1180
11303TIP3   OH255323   5.901   3.656   0.179  0.2763 -0.1824 -0.1579
11303TIP3    H155324   5.888   3.570   0.137 -0.8508 -0.0250 -0.1782
11303TIP3    H255325   5.914   3.716   0.106 -1.3902  0.0432 -0.3197
11304TIP3   OH255326   4.431   6.413  16.632 -0.1966 -0.2486  0.2589
11304TIP3    H155327   4.488   6.424  16.556  0.3799  0.0672  0.7239
11304TIP3    H255328   4.394   6.325  16.622 -0.5879  0.0186 -0.6827
11305TIP3   OH255329   4.689   3.594  14.726  0.0409 -0.3167 -0.2723
11305TIP3    H155330   4.700   3.678  14.681 -2.6975  0.2441 -0.0737
11305TIP3    H255331   4.700   3.615  14.819 -0.7998 -0.0847 -0.2082
11306TIP3   OH255332   2.043   0.427  12.006 -0.0010 -0.4148  0.4211
11306TIP3    H155333   1.991   0.447  11.929  0.2901  0.6866  0.4948
11306TIP3    H255334   2.080   0.341  11.988  1.5974  0.5806 -1.5475
11307TIP3   OH255335   3.811   5.262   2.504  0.1697 -0.3502  0.0863
11307TIP3    H155336   3.838   5.294   2.591  0.4362 -1.1912  0.3186
11307TIP3    H255337   3.747   5.327   2.474 -0.6330 -0.5496  1.3105
11308TIP3   OH255338   5.826   4.286  11.342  0.2730 -0.3190  0.7199
11308TIP3    H155339   5.874   4.267  11.262  1.4080 -1.3300  1.6002
11308TIP3    H255340   5.874   4.358  11.383 -2.1731  2.5634 -1.0148
11309TIP3   OH255341   5.212   2.031  15.453  0.4703  0.5558 -0.1230
11309TIP3    H155342   5.306   2.017  15.443  0.3136 -0.9499  0.1715
11309TIP3    H255343   5.192   2.107  15.399  1.6191  0.0195 -1.3499
11310TIP3   OH255344   5.793   4.355   2.678 -0.1090  0.5899 -0.0746
11310TIP3    H155345   5.794   4.447   2.650 -0.6908  0.3892 -0.7958
11310TIP3    H255346   5.776   4.306   2.597  0.3286 -0.1639  0.2826
11311TIP3   OH255347   1.956   6.170   2.997  0.0265 -0.0203  0.1958
11311TIP3    H155348   1.905   6.101   3.040 -0.0529  1.1143  1.9911
11311TIP3    H255349   1.912   6.183   2.913 -1.5994 -0.2878  0.9577
11312TIP3   OH255350   2.461   2.528  13.528  0.1765 -0.5995  0.3720
11312TIP3    H155351   2.497   2.616  13.535 -0.1968 -0.5435  2.3341
11312TIP3    H255352   2.421   2.525  13.441 -0.5576  1.4738  0.5713
11313TIP3   OH255353   2.199   5.000   0.713 -0.0765 -1.0010 -0.2301
11313TIP3    H155354   2.289   4.971   0.695  0.8961  1.8553 -0.5393
11313TIP3    H255355   2.207   5.051   0.793 -1.5166 -1.0189 -0.0621
11314TIP3   OH255356   3.812   0.589  14.259  0.6132 -0.0263  0.0769
11314TIP3    H155357   3.771   0.649  14.322  0.8608 -0.0405  0.2524
11314TIP3    H255358   3.744   0.574  14.193  0.9610  1.4290 -0.6558
11315TIP3   OH255359   5.834   2.843   3.016 -0.4548  0.2059 -0.2967
11315TIP3    H155360   5.908   2.892   2.978  0.1807 -0.4010  0.1351
11315TIP3    H255361   5.777   2.911   3.052  1.1216  0.6241  1.5721
11316TIP3   OH255362   1.251   2.346   4.472  0.5933 -0.0381 -0.7026
11316TIP3    H155363   1.234   2.280   4.539 -0.9643  1.8193  0.8246
11316TIP3    H255364   1.343   2.370   4.483  1.0099 -1.4652 -0.8832
11317TIP3   OH255365   1.202   0.009  11.775  0.2979  0.1318 -0.3866
11317TIP3    H155366   1.132  -0.005  11.711 -0.8802 -0.5500  1.0140
11317TIP3    H255367   1.206   0.105  11.784 -2.1570  0.1798  1.2570
11318TIP3   OH255368   1.733   0.968  14.070  0.0587  0.1518  0.8470
11318TIP3    H155369   1.677   0.907  14.021  0.6626 -0.1634  0.5266
11318TIP3    H255370   1.761   0.919  14.147  0.4313  0.0628  0.6610
11319TIP3   OH255371   2.749   3.714  16.475  0.0528  0.0552 -0.6142
11319TIP3    H155372   2.807   3.771  16.424  1.5512 -1.4376 -0.6483
11319TIP3    H255373   2.757   3.628  16.434 -2.0178 -0.2835 -0.4557
11320TIP3   OH255374   4.895   3.151   5.044 -0.0193 -0.0909 -0.3140
11320TIP3    H155375   4.950   3.230   5.043  0.1366 -0.1096  1.7496
11320TIP3    H255376   4.809   3.183   5.071  0.4437 -0.7483  2.2603
11321TIP3   OH255377   6.623   4.295  14.034 -0.1585  1.2223 -0.3070
11321TIP3    H155378   6.687   4.290  14.104 -0.8293  2.2389  0.4165
11321TIP3    H255379   6.543   4.259  14.071 -0.1774  0.5359 -0.9934
11322TIP3   OH255380   6.469   1.211  13.568 -0.1613 -0.0903 -0.0994
11322TIP3    H155381   6.384   1.172  13.548  1.1557 -2.0157 -2.4197
11322TIP3    H255382   6.529   1.137  13.571  1.6482  1.3315  0.2544
11323TIP3   OH255383   1.776   6.600   5.666  0.4392 -0.0547  0.1149
11323TIP3    H155384   1.803   6.663   5.599 -0.1880 -0.8369 -0.9031
11323TIP3    H255385   1.789   6.646   5.749  4.5492 -0.1701 -0.2362
11324TIP3   OH255386   0.731   6.147   5.927 -0.5068  0.1762  0.1952
11324TIP3    H155387   0.749   6.163   5.834  0.2065  4.0689  0.8232
11324TIP3    H255388   0.811   6.174   5.972 -1.1244 -0.8570  2.0058
11325TIP3   OH255389   0.398   1.626   5.590  0.6303 -0.3722 -0.2608
11325TIP3    H155390   0.435   1.570   5.522  1.2856 -2.0357  1.4037
11325TIP3    H255391   0.331   1.572   5.633  0.4576  0.5152  0.6415
11326TIP3   OH255392   6.616   0.427  16.786 -0.0164  0.4033 -0.5563
11326TIP3    H155393   6.658   0.474  16.714 -0.0607 -0.0071 -0.8517
11326TIP3    H255394   6.678   0.433  16.859  0.4850 -0.0770 -0.9428
11327TIP3   OH255395   5.263   0.295  16.746  0.6651 -0.4737 -0.8639
11327TIP3    H155396   5.350   0.254  16.739  0.4851 -0.9470 -0.4077
11327TIP3    H255397   5.219   0.272  16.664  0.9050 -0.3840 -1.0215
11328TIP3   OH255398   6.029   2.450   5.808 -0.0178 -0.5699 -0.1372
11328TIP3    H155399   5.959   2.510   5.832  1.3242  0.5413  1.2135
11328TIP3    H255400   6.064   2.419   5.892  1.1431 -1.0431 -0.7669
11329TIP3   OH255401   1.391   1.725   4.695 -0.3534  0.1677 -0.1340
11329TIP3    H155402   1.362   1.665   4.765  0.5669  0.7244  0.7557
11329TIP3    H255403   1.433   1.668   4.631 -1.6343 -0.4148 -0.4931
11330TIP3   OH255404   5.392   4.655   1.656  0.1316  0.4749 -0.4353
11330TIP3    H155405   5.385   4.669   1.751  1.7843  1.2736 -0.3842
11330TIP3    H255406   5.323   4.592   1.636 -0.2330  0.2503  1.3066
11331TIP3   OH255407   6.163   4.086   4.067 -0.4123  0.0465 -0.2693
11331TIP3    H155408   6.210   4.038   3.999  1.5982 -0.5086  1.4280
11331TIP3    H255409   6.229   4.142   4.108 -1.7071  0.8572  0.8188
11332TIP3   OH255410   4.634   2.321   3.330  0.3965  0.5294 -0.8380
11332TIP3    H155411   4.711   2.374   3.349 -0.5774  1.8460 -0.3767
11332TIP3    H255412   4.614   2.340   3.239  0.4511  0.4308 -0.8698
11333TIP3   OH255413   0.700   3.054   2.090 -0.1280 -0.1600 -0.1049
11333TIP3    H155414   0.722   2.963   2.069 -1.5151 -0.1709 -1.7606
11333TIP3    H255415   0.608   3.063   2.064 -0.5191  1.2870  1.5720
11334TIP3   OH255416   5.127   4.657   0.141  0.4914 -0.0319 -0.1863
11334TIP3    H155417   5.161   4.744   0.121 -0.4638  0.2607 -0.6133
11334TIP3    H255418   5.203   4.599   0.135  1.0670  0.7208 -0.2476
11335TIP3   OH255419   4.792   1.342  15.889  0.3573  0.4583  0.6550
11335TIP3    H155420   4.821   1.405  15.824 -1.0306 -0.2425 -0.6982
11335TIP3    H255421   4.726   1.289  15.845  0.0631 -0.6900  2.3374
11336TIP3   OH255422   2.317   5.896   3.625 -0.5724  0.1701  0.1002
11336TIP3    H155423   2.373   5.824   3.652 -0.0161  0.6862  0.3456
11336TIP3    H255424   2.239   5.888   3.680 -0.2628  0.0938  0.5311
11337TIP3   OH255425   2.340   2.945   2.673  0.1601  0.1086  0.0723
11337TIP3    H155426   2.388   3.018   2.633  0.8811 -0.9704 -1.1252
11337TIP3    H255427   2.298   2.983   2.750  0.4281  1.8022 -0.5715
11338TIP3   OH255428   0.165   3.899   2.868 -0.1145  0.1157  0.1452
11338TIP3    H155429   0.179   3.805   2.854 -1.0948 -0.2893  1.6267
11338TIP3    H255430   0.124   3.904   2.954 -2.7210  1.6760 -1.0724
11339TIP3   OH255431   5.218   4.169   1.661  0.0102  0.3620  0.5883
11339TIP3    H155432   5.154   4.101   1.683  0.7554 -0.3201  0.6634
11339TIP3    H255433   5.302   4.133   1.690  0.3635  1.4731  0.9846
11340TIP3   OH255434   0.327   0.749  14.563  0.1253  0.6592  0.2827
11340TIP3    H155435   0.400   0.794  14.521  1.3554  0.2224  1.8716
11340TIP3    H255436   0.368   0.691  14.627 -1.4927 -1.3551 -0.3890
11341TIP3   OH255437   3.852   2.731   6.393 -0.0511 -0.6890  0.1103
11341TIP3    H155438   3.820   2.671   6.326  1.2835 -1.8458  0.4672
11341TIP3    H255439   3.852   2.680   6.473  0.8849 -0.1460  0.4723
11342TIP3   OH255440   0.056   5.531  14.305 -0.0064 -0.1429  0.4616
11342TIP3    H155441   0.116   5.601  14.332  1.2107 -1.5423  1.5357
11342TIP3    H255442   0.012   5.505  14.386  0.0897 -1.0995  0.2158
11343TIP3   OH255443   4.155   5.703   6.134 -0.2992  0.5341 -0.0808
11343TIP3    H155444   4.113   5.783   6.165 -1.4836  0.6722 -1.8929
11343TIP3    H255445   4.196   5.728   6.050 -0.3662 -0.6548 -0.4865
11344TIP3   OH255446   1.089   5.585  10.688  0.4965  0.3636 -0.6653
11344TIP3    H155447   1.036   5.566  10.611  0.7546  0.7259 -0.9360
11344TIP3    H255448   1.130   5.501  10.709 -0.3237  0.0398 -0.3386
11345TIP3   OH255449   3.577   2.199   0.820  0.4065  0.5345 -0.0114
11345TIP3    H155450   3.635   2.159   0.885 -1.4283 -1.0119  0.7929
11345TIP3    H255451   3.490   2.192   0.860 -0.7941 -0.4549 -2.5981
11346TIP3   OH255452   2.934   2.988  15.791 -0.2479  1.0066  0.0112
11346TIP3    H155453   2.868   3.046  15.751  0.1074  2.2477  1.1646
11346TIP3    H255454   2.971   3.040  15.862 -0.6008 -1.0056  1.7353
11347TIP3   OH255455   0.805   0.719   3.074 -0.1025 -0.4308 -0.6613
11347TIP3    H155456   0.715   0.696   3.097 -0.9988  1.5910 -1.8391
11347TIP3    H255457   0.799   0.809   3.041  2.4324 -0.0713 -0.3633
11348TIP3   OH255458   3.985   2.737  13.690 -0.0835 -0.7775  0.1396
11348TIP3    H155459   3.957   2.774  13.774 -0.5376  0.4909 -0.5592
11348TIP3    H255460   3.971   2.807  13.626 -1.1621 -2.2205 -1.2695
11349TIP3   OH255461   3.491   5.447   4.344 -0.5802 -0.2831 -0.1235
11349TIP3    H155462   3.508   5.520   4.403 -0.6057 -2.3746  2.6873
11349TIP3    H255463   3.405   5.465   4.308 -1.1259  0.4935  1.4716
11350TIP3   OH255464   5.574   4.016   2.601  0.5552 -0.6233  0.1655
11350TIP3    H155465   5.601   4.057   2.683  2.0889 -2.8948  0.8812
11350TIP3    H255466   5.510   3.950   2.627 -0.9477  0.3880 -0.8181
11351TIP3   OH255467   3.368   6.656   2.208 -0.1477 -0.2545 -0.0981
11351TIP3    H155468   3.323   6.691   2.131 -0.1123 -0.6406 -0.2960
11351TIP3    H255469   3.459   6.685   2.198  0.0520 -1.0713 -0.6696
11352TIP3   OH255470   1.929   0.122   0.159  0.1898  0.5646  0.1243
11352TIP3    H155471   1.839   0.156   0.157  0.1151  0.5309  1.4445
11352TIP3    H255472   1.980   0.188   0.114 -0.2645  1.4641  0.8738
11353TIP3   OH255473   1.536   0.127  11.674  0.6223  0.1036 -0.4998
11353TIP3    H155474   1.613   0.097  11.626  0.9897 -1.4252  0.9770
11353TIP3    H255475   1.463   0.080  11.635  1.2143 -3.2672  1.9660
11354TIP3   OH255476   0.950   3.678   5.121  0.1726  0.3702 -0.1889
11354TIP3    H155477   0.878   3.735   5.147  1.6317  2.7954 -1.1745
11354TIP3    H255478   0.917   3.632   5.043  0.1084  2.5945 -1.5704
11355TIP3   OH255479   6.099   6.037   0.933 -0.3196 -0.0406 -0.0548
11355TIP3    H155480   6.144   6.070   1.011 -1.9419  1.2609  0.3902
11355TIP3    H255481   6.165   6.041   0.864  1.4102 -1.9657  1.3345
11356TIP3   OH255482   0.088   1.232   4.857 -0.2861 -0.4964  0.8528
11356TIP3    H155483   0.152   1.282   4.906 -0.4156 -0.8604  1.3984
11356TIP3    H255484   0.136   1.155   4.825 -0.3839 -0.6345  1.0364
11357TIP3   OH255485   6.225   6.268  15.074  0.3228 -0.0702  0.8202
11357TIP3    H155486   6.318   6.256  15.093 -0.0843 -1.7136  2.0517
11357TIP3    H255487   6.183   6.273  15.160 -0.8892 -1.0371  0.3195
11358TIP3   OH255488   1.711   1.582   3.610  0.5787 -0.0838  0.7548
11358TIP3    H155489   1.719   1.629   3.527 -0.6579  0.8405  1.1223
11358TIP3    H255490   1.789   1.526   3.614  0.6207 -0.2229 -1.0616
11359TIP3   OH255491   6.362   1.708   5.306 -0.4468  0.4644  0.4908
11359TIP3    H155492   6.426   1.778   5.318  0.0304  0.1678 -0.2495
11359TIP3    H255493   6.292   1.747   5.255 -0.9467  0.8364  1.4438
11360TIP3   OH255494   0.731   5.923   4.234  0.3362 -0.2746 -0.2712
11360TIP3    H155495   0.794   5.891   4.170  0.7930  1.7122 -0.8966
11360TIP3    H255496   0.687   5.996   4.190 -1.2016 -0.5265  0.7599
11361TIP3   OH255497   1.991   2.500  15.096 -0.4230 -0.7108 -0.2180
11361TIP3    H155498   2.012   2.413  15.131 -2.4408 -0.9376  0.5431
11361TIP3    H255499   1.907   2.523  15.137  0.0676  1.6192 -0.3756
11362TIP3   OH255500   2.388   4.774  14.085  0.0872 -0.4090 -0.3914
11362TIP3    H155501   2.482   4.789  14.098 -0.2638  1.2914  0.4555
11362TIP3    H255502   2.361   4.722  14.161  0.2064 -0.2777 -0.2592
11363TIP3   OH255503   5.927   3.299   2.325  0.1400  0.1593 -0.0076
11363TIP3    H155504   5.918   3.257   2.411  0.7392  1.8371  0.9208
11363TIP3    H255505   6.004   3.354   2.334 -0.1807  0.8732 -1.4196
11364TIP3   OH255506   5.823   1.310   1.556 -0.1175  0.0612  0.0465
11364TIP3    H155507   5.886   1.290   1.487 -1.6890 -1.7951 -0.9392
11364TIP3    H255508   5.872   1.294   1.637  0.7882 -1.0470 -0.6835
11365TIP3   OH255509   4.086   1.894   4.289  0.7356  0.4332 -0.0959
11365TIP3    H155510   4.099   1.816   4.343 -0.2752 -0.8573 -1.6294
11365TIP3    H255511   3.991   1.904   4.282  0.7656 -0.2650 -2.6700
11366TIP3   OH255512   2.162   6.661  13.223  0.3742 -0.5338 -0.4711
11366TIP3    H155513   2.172   6.695  13.312 -0.0895 -0.0205 -0.6111
11366TIP3    H255514   2.098   6.589  13.232 -2.7643  1.9729 -0.9196
11367TIP3   OH255515   0.262   3.580   1.616 -0.6921  0.3178  0.5560
11367TIP3    H155516   0.346   3.595   1.660  0.4611  2.1786 -2.0142
11367TIP3    H255517   0.282   3.513   1.550 -1.6294 -0.2651  0.8489
11368TIP3   OH255518   6.179   2.654  13.624 -0.1273 -0.0177 -0.6899
11368TIP3    H155519   6.222   2.713  13.686  0.3262 -1.1889  0.1430
11368TIP3    H255520   6.251   2.619  13.571  0.0058 -1.9093  0.6472
11369TIP3   OH255521   1.011   0.041   2.724  0.0832 -0.1778  0.2850
11369TIP3    H155522   1.013   0.137   2.724  1.0301 -0.1727 -0.3673
11369TIP3    H255523   1.004   0.016   2.816 -0.4192  0.5214  0.4388
11370TIP3   OH255524   3.386   5.201   5.798 -0.6858  0.1298  0.1960
11370TIP3    H155525   3.479   5.183   5.814 -0.0894  0.6042 -2.3942
11370TIP3    H255526   3.351   5.120   5.762 -0.8855  0.4274 -0.2899
11371TIP3   OH255527   3.109   1.735  16.126  0.0451  0.2540  0.3116
11371TIP3    H155528   3.052   1.756  16.200 -1.7499  1.3117 -1.2553
11371TIP3    H255529   3.069   1.658  16.086  0.5616  0.1258  0.0305
11372TIP3   OH255530   1.679   4.061   2.828 -0.3847 -0.3075 -0.4899
11372TIP3    H155531   1.596   4.104   2.808 -0.0344 -0.1919 -1.7711
11372TIP3    H255532   1.707   4.101   2.910 -1.2621  0.1374 -0.3963
11373TIP3   OH255533   3.511   0.374  13.462 -0.7074  0.4175  0.7801
11373TIP3    H155534   3.425   0.332  13.471 -0.6026 -0.1132 -0.4767
11373TIP3    H255535   3.491   0.465  13.444 -1.0342  0.1973 -0.0134
11374TIP3   OH255536   1.733   6.124  15.313  0.4924 -0.0223 -0.2222
11374TIP3    H155537   1.821   6.142  15.345  0.4812  1.0988 -0.7454
11374TIP3    H255538   1.747   6.077  15.231  0.5153 -3.3222  1.5120
11375TIP3   OH255539   0.438   3.696  14.604  0.3994  0.4857  0.1103
11375TIP3    H155540   0.380   3.760  14.563 -1.4262  0.5011  2.4913
11375TIP3    H255541   0.428   3.712  14.698 -0.5867 -3.5752  0.8897
11376TIP3   OH255542   1.199   3.821   0.879 -0.1337  0.2886  0.2863
11376TIP3    H155543   1.280   3.851   0.837  0.1240  0.6290  1.0092
11376TIP3    H255544   1.208   3.849   0.970  0.3209 -2.3532  1.1327
11377TIP3   OH255545   1.762   6.732   5.056 -0.1991  0.6823 -0.4281
11377TIP3    H155546   1.811   6.793   5.112 -0.9995 -1.0068  2.3395
11377TIP3    H255547   1.821   6.657   5.045 -0.7138  0.2614 -0.3481
11378TIP3   OH255548   6.761   3.916  13.813 -0.3768  0.0661 -0.0463
11378TIP3    H155549   6.841   3.912  13.761 -1.0605 -0.9568 -1.0763
11378TIP3    H255550   6.760   4.004  13.850  1.1206  0.1493 -0.1676
11379TIP3   OH255551   2.224   3.850  12.894 -1.0850 -0.1293  0.4970
11379TIP3    H155552   2.161   3.788  12.856  0.2379 -1.2494  0.0620
11379TIP3    H255553   2.272   3.885  12.819  0.2535 -0.9138  0.9527
11380TIP3   OH255554   6.712   6.320   6.207  0.2862  0.1530 -0.0844
11380TIP3    H155555   6.643   6.256   6.226 -0.1809  0.5541 -0.4296
11380TIP3    H255556   6.788   6.266   6.185  0.4436 -0.3195  1.4745
11381TIP3   OH255557   3.638   5.042   2.555 -0.0080  0.0510 -0.3914
11381TIP3    H155558   3.701   5.108   2.528 -1.3783  1.8896  0.6590
11381TIP3    H255559   3.612   4.998   2.474  0.0313  1.6657 -1.3140
11382TIP3   OH255560   5.767   5.689   5.066 -0.8288 -0.2401 -0.4634
11382TIP3    H155561   5.801   5.772   5.098 -2.4225  1.0679 -1.9571
11382TIP3    H255562   5.834   5.656   5.006  0.4455 -0.8087  1.1912
11383TIP3   OH255563   3.340   2.729   2.745 -0.1349  0.6837  0.1704
11383TIP3    H155564   3.412   2.687   2.792 -2.0886 -1.6265  1.3293
11383TIP3    H255565   3.382   2.773   2.671  2.4517 -0.5093  0.8043
11384TIP3   OH255566   6.773   0.675  11.773  0.0002  1.0935 -0.1569
11384TIP3    H155567   6.868   0.681  11.783 -0.0666 -0.5142  2.5212
11384TIP3    H255568   6.739   0.735  11.839 -0.8326  0.9125 -0.4135
11385TIP3   OH255569   2.483   2.746  12.663  0.3846  0.1474 -0.2827
11385TIP3    H155570   2.431   2.700  12.597  1.6247 -0.0538 -1.1396
11385TIP3    H255571   2.512   2.826  12.620  1.2871 -0.0300 -0.0254
11386TIP3   OH255572   4.367   5.494   0.614 -0.3594  0.5591 -0.7918
11386TIP3    H155573   4.309   5.422   0.639  0.5634 -0.0191 -0.2629
11386TIP3    H255574   4.454   5.455   0.613  0.0709  1.5083 -1.1893
11387TIP3   OH255575   5.854   5.483  12.088 -0.7963  0.1075 -0.1325
11387TIP3    H155576   5.821   5.495  11.999 -2.4658 -0.4931  0.3731
11387TIP3    H255577   5.824   5.561  12.135 -1.7378 -0.5472  0.3871
11388TIP3   OH255578   2.905   3.732   3.907  0.3258  0.0583  0.2216
11388TIP3    H155579   2.874   3.818   3.935  2.1012  0.3561  1.4801
11388TIP3    H255580   2.936   3.691   3.988 -0.3025 -1.7021 -0.3863
11389TIP3   OH255581   6.441   0.426   3.810  0.2678 -0.3657  0.3244
11389TIP3    H155582   6.422   0.414   3.902 -1.9893  2.7156  0.3959
11389TIP3    H255583   6.362   0.398   3.764  0.8065 -0.4685 -0.5859
11390TIP3   OH255584   6.411   3.330  13.054  0.0755 -0.1403  0.0351
11390TIP3    H155585   6.361   3.408  13.077 -0.8265 -0.0337 -2.0854
11390TIP3    H255586   6.503   3.356  13.067 -0.2984  0.4925  1.5296
11391TIP3   OH255587   5.127   1.986  16.554  0.1413  0.0110 -0.5225
11391TIP3    H155588   5.177   1.912  16.588  0.2155 -0.5845 -1.8717
11391TIP3    H255589   5.101   2.034  16.632 -1.2707 -2.2980  0.5495
11392TIP3   OH255590   5.321   1.756  16.255 -0.7996  0.3215 -0.0921
11392TIP3    H155591   5.233   1.790  16.245  0.2267  2.9302 -0.9928
11392TIP3    H255592   5.369   1.790  16.180  1.7489  1.7373  2.0117
11393TIP3   OH255593   3.608   5.541   0.658  0.2123 -0.0785  0.1871
11393TIP3    H155594   3.662   5.616   0.680  1.7323 -0.5433 -1.6337
11393TIP3    H255595   3.543   5.575   0.596  0.3282 -0.0730  0.0665
11394TIP3   OH255596   0.994   0.597   3.228 -0.2350 -0.8715  0.4027
11394TIP3    H155597   1.069   0.655   3.211 -1.3599  0.5089 -0.0482
11394TIP3    H255598   0.918   0.649   3.203 -1.2786 -2.7267 -0.4126
11395TIP3   OH255599   0.920   3.291   1.910 -0.2322  0.3390 -0.0823
11395TIP3    H155600   0.873   3.272   1.828 -0.0250 -1.0251  0.0923
11395TIP3    H255601   0.852   3.297   1.976 -0.4383  1.8275 -0.3816
11396TIP3   OH255602   3.357   4.316   3.057  0.1443 -1.1811  0.3862
11396TIP3    H155603   3.289   4.272   3.107 -0.0120 -2.2155 -0.6639
11396TIP3    H255604   3.318   4.399   3.030 -0.0542 -0.9828  1.2797
11397TIP3   OH255605   3.372   3.190  11.978 -0.1101  0.5318  0.3308
11397TIP3    H155606   3.382   3.201  12.073  0.2381  0.8828  0.2526
11397TIP3    H255607   3.420   3.263  11.940 -0.7323  0.7173 -0.1052
11398TIP3   OH255608   3.980   2.521  14.718 -0.3787  0.2131 -0.2156
11398TIP3    H155609   4.002   2.442  14.768  1.3437  0.5477 -0.3997
11398TIP3    H255610   3.896   2.499  14.676 -1.3182 -0.4817  1.8652
11399TIP3   OH255611   3.977   1.367   2.191 -0.3882  0.1138 -0.8917
11399TIP3    H155612   4.030   1.294   2.222 -0.4855 -0.1433 -1.3245
11399TIP3    H255613   3.910   1.326   2.136 -2.1552  0.2043  1.0387
11400TIP3   OH255614   4.150   0.826  15.732  0.2689 -0.1210 -0.6382
11400TIP3    H155615   4.104   0.908  15.751  0.8065  0.0511 -0.0395
11400TIP3    H255616   4.150   0.820  15.636 -0.7164  0.0302 -0.6607
11401TIP3   OH255617   6.489   6.760   1.794 -0.0296  0.4719  0.1153
11401TIP3    H155618   6.489   6.724   1.883 -0.3773 -0.0134 -0.0792
11401TIP3    H255619   6.408   6.810   1.789 -0.9061 -0.9808 -0.5163
11402TIP3   OH255620   2.050   3.220   5.638  0.4499 -0.0607  0.0960
11402TIP3    H155621   1.988   3.266   5.695  0.1871  0.6446 -0.7187
11402TIP3    H255622   2.073   3.141   5.685 -0.5996 -0.0211  0.6997
11403TIP3   OH255623   6.320   6.299  12.521  0.1120  0.0664 -0.3068
11403TIP3    H155624   6.331   6.375  12.465 -0.3101  1.5043  1.4598
11403TIP3    H255625   6.337   6.224  12.464  2.6955  1.5242 -1.6082
11404TIP3   OH255626   0.247   2.540   0.947  0.2479 -0.0823 -0.0736
11404TIP3    H155627   0.312   2.597   0.905  1.1237 -1.0683 -0.0812
11404TIP3    H255628   0.254   2.457   0.901 -2.2930  0.2746 -1.2932
11405TIP3   OH255629   2.122   0.900   6.356  0.3813 -0.2150 -0.2395
11405TIP3    H155630   2.138   0.809   6.330  0.6519  0.3123 -2.0169
11405TIP3    H255631   2.209   0.938   6.367  0.3413 -0.7043  2.8176
11406TIP3   OH255632   2.543   1.326  16.725 -0.0134  0.1214 -0.1261
11406TIP3    H155633   2.536   1.410  16.679  0.2544 -0.1006 -0.5788
11406TIP3    H255634   2.529   1.347  16.817 -0.8946  0.5281 -0.3438
11407TIP3   OH255635   6.716   1.075   4.208 -0.4682 -0.0168 -0.3997
11407TIP3    H155636   6.795   1.048   4.254 -0.5104 -0.4752 -0.5959
11407TIP3    H255637   6.660   1.112   4.277 -1.4547 -2.6997  0.3634
11408TIP3   OH255638   1.979   5.708  14.849  0.9204 -0.2457  0.0419
11408TIP3    H155639   2.033   5.754  14.785 -0.6396  1.0413 -0.4187
11408TIP3    H255640   1.937   5.777  14.899 -0.1779 -1.2011  0.4836
11409TIP3   OH255641   0.184   1.010  12.479  0.1223 -0.3717 -0.0339
11409TIP3    H155642   0.103   1.024  12.431 -0.2385  0.9240  0.8960
11409TIP3    H255643   0.246   1.072  12.440  0.1209 -0.0379  0.4915
11410TIP3   OH255644   0.016   2.315   1.646  0.5698  0.3213  0.1911
11410TIP3    H155645  -0.049   2.283   1.709 -0.4398  1.3242 -0.3177
11410TIP3    H255646  -0.002   2.267   1.565  1.3026 -0.3264  0.3964
11411TIP3   OH255647   6.762   4.717   3.322  0.0038  0.1906  0.3201
11411TIP3    H155648   6.719   4.800   3.299  1.8282  1.0904  0.0101
11411TIP3    H255649   6.741   4.658   3.250  1.7417  1.5504 -1.4076
11412TIP3   OH255650   0.544   4.239   5.776 -0.2093 -0.2081  0.1424
11412TIP3    H155651   0.635   4.271   5.775 -0.3092  0.1371 -1.5996
11412TIP3    H255652   0.527   4.219   5.868  2.2890 -2.1946  0.2844
11413TIP3   OH255653   4.329   0.614   0.215 -0.3279 -0.4784  0.0208
11413TIP3    H155654   4.314   0.629   0.308  2.0425  1.7653  0.1719
11413TIP3    H255655   4.338   0.702   0.178  2.4982 -1.2894 -1.5740
11414TIP3   OH255656   2.387   1.220   0.094  0.2686 -0.0933  0.0355
11414TIP3    H155657   2.432   1.141   0.122  1.4235 -0.7562 -3.2583
11414TIP3    H255658   2.313   1.190   0.042 -0.5688  1.0188  0.5281
11415TIP3   OH255659   4.459   3.023   0.607  0.3024  0.7004  0.3137
11415TIP3    H155660   4.531   3.083   0.626 -0.1550  0.9037  1.4649
11415TIP3    H255661   4.438   3.038   0.515 -0.4159  2.9592  0.8055
11416TIP3   OH255662   3.792   0.123  13.825 -0.0600 -0.0757  0.7555
11416TIP3    H155663   3.772   0.062  13.896 -1.8109 -0.0108  0.3772
11416TIP3    H255664   3.887   0.134  13.828  0.3606 -2.8703  0.8140
11417TIP3   OH255665   5.494   5.889  14.247  0.1920 -0.0518 -0.0836
11417TIP3    H155666   5.465   5.977  14.271 -0.4095 -0.1423 -0.4728
11417TIP3    H255667   5.561   5.868  14.312  0.2084  0.6181  0.1258
11418TIP3   OH255668   5.896   0.923  14.402 -0.1433 -0.0603  0.0344
11418TIP3    H155669   5.831   0.929  14.333 -0.1088 -3.5743 -0.4709
11418TIP3    H255670   5.965   0.867  14.366  1.3548  0.4552  1.8922
11419TIP3   OH255671   0.366   5.109   4.654  0.4700  0.6900  0.7175
11419TIP3    H155672   0.447   5.103   4.604  0.1582 -1.2507  0.3551
11419TIP3    H255673   0.325   5.190   4.624  0.4284 -0.2367 -2.0253
11420TIP3   OH255674   3.790   4.681  14.232  0.8731  0.5461  0.1651
11420TIP3    H155675   3.709   4.732  14.234 -0.3578 -1.3323  1.3294
11420TIP3    H255676   3.768   4.603  14.181  1.6503 -0.4228  1.2696
11421TIP3   OH255677   0.237   6.545  12.827  0.2356  0.1932 -1.0926
11421TIP3    H155678   0.268   6.456  12.812  1.0312  0.5053 -1.3057
11421TIP3    H255679   0.278   6.598  12.759 -0.1842  0.7429 -0.9356
11422TIP3   OH255680   1.670   1.120  15.276 -0.1698  0.3246  0.2854
11422TIP3    H155681   1.728   1.053  15.313 -1.1633 -0.7065  0.0547
11422TIP3    H255682   1.728   1.191  15.250  1.4265 -1.8332 -2.5972
11423TIP3   OH255683   2.359   0.992   4.001  0.2203  0.1136 -0.3113
11423TIP3    H155684   2.347   0.906   3.962  0.3822  0.6617 -1.6382
11423TIP3    H255685   2.271   1.029   4.007  0.1361 -0.1905  0.3891
11424TIP3   OH255686   5.953   4.923  13.964 -0.5261  0.1512 -0.1298
11424TIP3    H155687   5.943   5.005  13.914 -0.5774 -0.6789 -1.5264
11424TIP3    H255688   6.043   4.895  13.945 -0.8758 -0.6891 -0.5758
11425TIP3   OH255689   5.545   1.941   5.632 -0.0388 -0.4971  0.0174
11425TIP3    H155690   5.464   1.952   5.583  0.0479  1.2624  0.2100
11425TIP3    H255691   5.606   2.003   5.592  0.8118 -0.8478  0.7295
11426TIP3   OH255692   5.421   1.425  13.469 -0.0962  0.2043 -1.0663
11426TIP3    H155693   5.464   1.354  13.517 -1.7698 -1.0688 -1.3619
11426TIP3    H255694   5.478   1.441  13.394 -0.2301 -1.6533 -1.6217
11427TIP3   OH255695   6.215   5.102  15.424  0.3502  0.3070 -0.3642
11427TIP3    H155696   6.196   5.022  15.373 -1.3152  0.8085 -0.5912
11427TIP3    H255697   6.130   5.130  15.457  1.1114  1.2234  0.9021
11428TIP3   OH255698   3.865   5.053   6.197 -0.0478 -0.0435 -0.4874
11428TIP3    H155699   3.947   5.074   6.242 -0.4619  1.6432 -0.4389
11428TIP3    H255700   3.818   5.137   6.193 -2.1226 -1.1015  0.1883
11429TIP3   OH255701   3.622   5.464   2.501 -0.0148 -0.5741 -0.8351
11429TIP3    H155702   3.637   5.515   2.580  1.3965 -2.6997  0.3657
11429TIP3    H255703   3.552   5.510   2.456  1.0706  2.3178  0.1822
11430TIP3   OH255704   6.749   2.472   2.860  0.7911 -0.1419 -0.0906
11430TIP3    H155705   6.787   2.480   2.773 -1.1371 -1.0471 -1.0665
11430TIP3    H255706   6.727   2.379   2.869  2.3398 -0.3856  2.0084
11431TIP3   OH255707   3.688   3.285  11.538 -0.3545 -0.2188  0.1172
11431TIP3    H155708   3.751   3.242  11.596  1.1731  0.5719 -0.8820
11431TIP3    H255709   3.700   3.379  11.554 -0.8350 -0.0345 -0.5316
11432TIP3   OH255710   4.197   4.012   0.825 -0.1323 -0.1700 -0.6279
11432TIP3    H155711   4.253   3.947   0.783 -0.8757 -1.3063  0.0599
11432TIP3    H255712   4.223   4.010   0.917 -0.3293  0.3242 -0.5624
11433TIP3   OH255713   4.102   1.471  11.527 -0.6277 -0.1516  0.0461
11433TIP3    H155714   4.185   1.455  11.482  0.1929 -0.0906  1.4836
11433TIP3    H255715   4.076   1.386  11.561 -0.6363 -0.0001  0.4295
11434TIP3   OH255716   4.118   3.681   4.677 -0.2442  0.2228  0.0590
11434TIP3    H155717   4.154   3.720   4.597  0.1176 -0.5966 -0.1842
11434TIP3    H255718   4.029   3.717   4.682  0.0582  1.0358 -0.1807
11435TIP3   OH255719   4.550   4.568  12.629 -0.0291 -0.6388 -0.3829
11435TIP3    H155720   4.537   4.508  12.556 -0.2048 -0.4194 -0.5343
11435TIP3    H255721   4.462   4.598  12.651  0.0667 -0.3631 -0.3722
11436TIP3   OH255722   6.002   4.967   1.264  0.3178  0.2199 -0.0964
11436TIP3    H155723   6.057   4.989   1.339 -1.0217  0.2996  0.9050
11436TIP3    H255724   6.019   4.874   1.248 -0.5063 -0.1966  1.3088
11437TIP3   OH255725   6.056   4.687   2.757  0.1689  0.0954  0.1101
11437TIP3    H155726   6.036   4.679   2.850  1.6393 -0.2084  0.4345
11437TIP3    H255727   6.121   4.618   2.741 -1.9118 -1.5777 -1.7492
11438TIP3   OH255728   2.266   0.105  14.269 -0.3939  0.4642  0.6139
11438TIP3    H155729   2.186   0.055  14.254 -1.3489  2.4227 -1.6861
11438TIP3    H255730   2.236   0.196  14.274  1.6778  1.3172 -0.9032
11439TIP3   OH255731   3.118   2.100  12.236  0.6758  0.7196 -0.5348
11439TIP3    H155732   3.026   2.082  12.218  0.6601 -0.1228  0.3272
11439TIP3    H255733   3.166   2.059  12.164  0.5298 -1.2637  0.4461
11440TIP3   OH255734   1.835   4.185  14.153 -0.1285 -0.4372 -0.4618
11440TIP3    H155735   1.910   4.174  14.210  0.4400 -3.1241 -1.5634
11440TIP3    H255736   1.857   4.259  14.097 -0.0653  1.2807  1.7058
11441TIP3   OH255737   2.986   3.199  14.863 -0.6109 -0.3987  0.1974
11441TIP3    H155738   3.021   3.151  14.788 -1.1150 -3.4454  1.7350
11441TIP3    H255739   3.062   3.245  14.900 -0.1722  0.3437 -1.5588
11442TIP3   OH255740   4.791   6.357   2.014 -0.4901 -0.2382 -0.1982
11442TIP3    H155741   4.710   6.348   2.065 -0.5285 -3.1575 -0.6106
11442TIP3    H255742   4.764   6.402   1.934 -1.6576 -0.8350 -0.1708
11443TIP3   OH255743   2.395   1.728  10.509 -0.2439  0.1160  0.8049
11443TIP3    H155744   2.340   1.777  10.448 -0.0747 -0.4225  0.2051
11443TIP3    H255745   2.403   1.642  10.469  0.9590  0.1601  0.9329
11444TIP3   OH255746   4.490   1.848   1.298  0.2193 -0.6936  0.4273
11444TIP3    H155747   4.585   1.838   1.289  0.1327 -0.8139 -0.4482
11444TIP3    H255748   4.462   1.886   1.214 -0.5232 -0.7843  0.6274
11445TIP3   OH255749   0.837   6.674   0.569 -0.0221 -0.5833  0.2323
11445TIP3    H155750   0.848   6.762   0.531 -0.7515 -0.4701  0.2676
11445TIP3    H255751   0.807   6.690   0.658  3.3670 -0.8039  1.5511
11446TIP3   OH255752   1.263   2.123  12.244 -0.6928 -0.4957 -0.6987
11446TIP3    H155753   1.185   2.081  12.279 -0.1911 -1.5989 -0.8787
11446TIP3    H255754   1.235   2.158  12.160 -0.9727 -0.9824 -0.8121
11447TIP3   OH255755   6.766   6.239   3.599  0.0090 -0.6142 -0.2192
11447TIP3    H155756   6.785   6.168   3.537 -0.3923 -0.1416 -0.8978
11447TIP3    H255757   6.769   6.197   3.685  1.1858 -1.1526 -0.5061
11448TIP3   OH255758   0.974   3.811   6.371  0.4848  0.5547 -0.7843
11448TIP3    H155759   0.970   3.906   6.360 -0.0379  0.5708 -0.4766
11448TIP3    H255760   0.959   3.796   6.464 -2.5287  0.0282 -1.2463
11449TIP3   OH255761   1.991   2.121   2.964  0.5601  0.3951 -0.6404
11449TIP3    H155762   2.045   2.090   3.037 -0.1457  1.9203  0.5971
11449TIP3    H255763   1.910   2.150   3.005 -0.2999  0.2905 -2.1918
11450TIP3   OH255764   5.522   0.019   5.006 -0.1796  0.2102 -0.0324
11450TIP3    H155765   5.506  -0.034   5.084  0.3633  1.0569  0.6744
11450TIP3    H255766   5.437   0.055   4.983 -0.2660  0.3192  0.4471
11451TIP3   OH255767   5.567   5.230   3.260  0.3391  0.2964  0.6355
11451TIP3    H155768   5.592   5.193   3.344  3.2199 -1.1061 -0.6822
11451TIP3    H255769   5.532   5.156   3.210 -1.5082  1.1471  0.6032
11452TIP3   OH255770   3.774   4.627  16.301 -0.4211 -0.6794  0.1561
11452TIP3    H155771   3.724   4.555  16.261 -1.0841 -0.0200 -0.2295
11452TIP3    H255772   3.853   4.585  16.336  0.9250 -1.1732 -3.0540
11453TIP3   OH255773   3.795   6.547  12.267 -0.0684  0.1205 -0.2873
11453TIP3    H155774   3.702   6.524  12.269  0.0000 -0.2051 -0.6310
11453TIP3    H255775   3.840   6.464  12.287  0.1036  0.7669  2.3655
11454TIP3   OH255776   1.567   3.820   2.739  0.1775 -0.1498  0.1506
11454TIP3    H155777   1.540   3.771   2.816 -0.6691  0.5630  0.3249
11454TIP3    H255778   1.604   3.901   2.775  2.0571 -0.8467 -0.1051
11455TIP3   OH255779   2.501   2.833   5.528 -0.6622  0.5094  0.4317
11455TIP3    H155780   2.546   2.917   5.518 -0.7091  0.6981  1.6577
11455TIP3    H255781   2.561   2.779   5.579 -0.2736 -0.5150 -1.0203
11456TIP3   OH255782   3.658   1.079   4.577  0.0275  0.7886  0.0156
11456TIP3    H155783   3.582   1.110   4.627  0.6560  3.3692 -0.4571
11456TIP3    H255784   3.626   1.070   4.487 -0.2993 -0.5874  0.2577
11457TIP3   OH255785   0.796   6.713  10.978 -0.0874 -0.1135 -0.0346
11457TIP3    H155786   0.775   6.783  10.916 -0.3827  0.9590  1.2311
11457TIP3    H255787   0.891   6.707  10.976  0.2092  2.4082  1.9633
11458TIP3   OH255788   0.494   6.640  12.046 -0.0530  0.2894  0.4991
11458TIP3    H155789   0.560   6.575  12.069  0.3809  0.5553  0.0352
11458TIP3    H255790   0.545   6.717  12.020 -0.5177  0.0818 -1.0963
11459TIP3   OH255791   5.062   2.056   4.273 -0.4576 -0.3428 -0.6397
11459TIP3    H155792   5.085   2.021   4.359 -1.2897  0.5326 -0.0495
11459TIP3    H255793   5.140   2.104   4.245 -0.2452 -0.4898 -0.3037
11460TIP3   OH255794   5.364   0.283  12.041 -0.4171 -0.4930  0.2182
11460TIP3    H155795   5.300   0.294  12.111  1.0396  2.6742  1.2504
11460TIP3    H255796   5.437   0.237  12.083 -0.3786 -0.4673  0.1789
11461TIP3   OH255797   2.669   2.173   4.214  0.2113  0.6755  0.6426
11461TIP3    H155798   2.645   2.121   4.137  1.5212  0.4599  0.3599
11461TIP3    H255799   2.585   2.190   4.258 -0.5225  0.5020 -0.6257
11462TIP3   OH255800   2.434   1.053  11.051  0.6133  0.5794  0.0827
11462TIP3    H155801   2.421   0.996  11.126 -2.8093  1.3148  0.1990
11462TIP3    H255802   2.403   1.003  10.976  2.6764  0.3813 -0.7088
11463TIP3   OH255803   5.291   2.658   6.246 -0.1538  0.2349  0.5317
11463TIP3    H155804   5.286   2.573   6.203 -2.0783  0.5577 -0.0140
11463TIP3    H255805   5.274   2.721   6.176 -2.5081  0.8098  1.5065
11464TIP3   OH255806   5.935   0.298  15.264  0.1604 -0.2203 -0.1328
11464TIP3    H155807   5.910   0.390  15.258  2.9067  0.6235  0.3359
11464TIP3    H255808   5.939   0.280  15.358  1.2077 -0.3190 -0.1857
11465TIP3   OH255809   4.515   1.338  14.443 -0.2118 -0.1243 -0.0039
11465TIP3    H155810   4.548   1.400  14.378 -0.7331  1.7787  1.4768
11465TIP3    H255811   4.575   1.348  14.517  0.3930 -2.2841 -0.1397
11466TIP3   OH255812   6.535   2.774   1.066 -0.7976  0.4445  0.1389
11466TIP3    H155813   6.616   2.722   1.067 -1.3881 -0.5530 -1.1719
11466TIP3    H255814   6.559   2.854   1.020 -1.3990 -1.5207 -4.1138
11467TIP3   OH255815   2.959   2.875   4.942  0.2283 -0.5914 -0.1739
11467TIP3    H155816   2.974   2.907   4.853 -0.2588 -1.5965 -0.6446
11467TIP3    H255817   2.892   2.807   4.931  2.4631 -3.0677  0.4697
11468TIP3   OH255818   2.538   2.116   5.816 -0.1379 -0.4161 -0.2836
11468TIP3    H155819   2.581   2.178   5.875  0.8096  0.5913 -1.9484
11468TIP3    H255820   2.466   2.079   5.867  1.2447 -0.3488  1.8139
11469TIP3   OH255821   0.352   4.359   5.266 -0.0321  0.0286 -0.3708
11469TIP3    H155822   0.418   4.291   5.280  0.5940  0.4896 -0.9946
11469TIP3    H255823   0.346   4.405   5.350  0.1636 -0.2582 -0.1983
11470TIP3   OH255824   5.325   0.688   1.309 -0.3537  0.2126 -0.0490
11470TIP3    H155825   5.341   0.602   1.348 -0.1567  1.1380  2.0730
11470TIP3    H255826   5.385   0.692   1.235  0.3572 -1.1027  0.4188
11471TIP3   OH255827   1.337   1.972  15.615 -0.4159  0.2398 -0.6981
11471TIP3    H155828   1.352   1.906  15.547 -0.2869  0.0178 -0.4528
11471TIP3    H255829   1.327   2.054  15.566  0.6294  0.2390 -0.9362
11472TIP3   OH255830   4.653   6.623  12.710  0.3523  0.1592  0.7689
11472TIP3    H155831   4.740   6.631  12.748  1.0028 -1.1560 -0.3495
11472TIP3    H255832   4.664   6.562  12.637 -1.3331  0.6470  0.0456
11473TIP3   OH255833   6.163   6.750   0.536 -0.2153  0.0597 -0.4755
11473TIP3    H155834   6.233   6.718   0.480 -0.3411 -1.0681 -0.0181
11473TIP3    H255835   6.187   6.722   0.624  0.0674  1.9535  0.0986
11474TIP3   OH255836   1.545   0.343   4.792 -0.5196 -0.2087 -0.0212
11474TIP3    H155837   1.488   0.288   4.846  0.2388  0.1300  1.1542
11474TIP3    H255838   1.489   0.415   4.764 -0.5342  0.4524  1.6375
11475TIP3   OH255839   4.548   5.198   5.132 -0.1521 -0.2602 -0.3640
11475TIP3    H155840   4.510   5.123   5.086  1.4027 -1.0338 -0.4372
11475TIP3    H255841   4.613   5.233   5.071 -0.8627  1.1754 -0.3334
11476TIP3   OH255842   3.876   1.670  16.826 -0.2470  0.2404 -0.0468
11476TIP3    H155843   3.814   1.604  16.796  0.4603  0.0537 -1.1473
11476TIP3    H255844   3.855   1.682  16.919 -3.5334  1.9354 -0.8480
11477TIP3   OH255845   6.102   0.134  11.557 -0.1625  0.3581 -0.1182
11477TIP3    H155846   6.172   0.070  11.543 -0.9192 -0.2653 -1.1302
11477TIP3    H255847   6.148   0.213  11.586  1.0339  0.2024 -1.4912
11478TIP3   OH255848   1.386   6.334  11.685  0.0803  0.1273 -0.2416
11478TIP3    H155849   1.438   6.274  11.739 -0.0782 -0.3668 -0.6349
11478TIP3    H255850   1.446   6.363  11.616  0.4964  1.3067  0.5779
11479TIP3   OH255851   6.683   1.235   3.582 -0.3377  0.2427  0.3622
11479TIP3    H155852   6.692   1.303   3.649 -0.8007  1.5414 -0.8429
11479TIP3    H255853   6.595   1.248   3.546 -0.5640 -1.2302  0.3354
11480TIP3   OH255854   3.820   6.583  16.988 -0.2673 -0.4869 -0.3970
11480TIP3    H155855   3.804   6.677  16.989 -1.2304 -0.6299  0.5691
11480TIP3    H255856   3.860   6.565  16.903  2.2322  1.1376  0.3488
11481TIP3   OH255857   5.375   2.340   4.046 -0.0317 -0.0258  0.2929
11481TIP3    H155858   5.450   2.399   4.052 -0.2837  0.3616 -0.4020
11481TIP3    H255859   5.346   2.330   4.137  1.1958 -0.6215  0.6482
11482TIP3   OH255860   4.734   1.742   3.257  0.1236 -0.0882 -0.2487
11482TIP3    H155861   4.721   1.650   3.279 -0.5799 -0.4245 -1.8857
11482TIP3    H255862   4.677   1.789   3.317  2.3324 -0.4468  2.3348
11483TIP3   OH255863   2.079   4.716  17.123 -0.1512 -0.4807  0.0305
11483TIP3    H155864   2.089   4.639  17.066 -1.9524 -1.1059  0.5102
11483TIP3    H255865   2.126   4.785  17.076 -1.1788 -1.0818 -2.0129
11484TIP3   OH255866   0.023   1.739  11.387  0.1239 -0.2290  0.2689
11484TIP3    H155867   0.093   1.673  11.383  1.0365  0.7436 -1.6727
11484TIP3    H255868  -0.058   1.689  11.374  0.5996 -1.1862  0.8533
11485TIP3   OH255869   4.599   5.570   4.882  1.0294  0.1793  0.0458
11485TIP3    H155870   4.618   5.520   4.961 -0.3098 -0.5266 -0.0431
11485TIP3    H255871   4.577   5.503   4.817 -0.0532  0.8357 -0.2920
11486TIP3   OH255872   2.277   6.568   0.785 -0.4563  0.2404  0.0949
11486TIP3    H155873   2.247   6.532   0.868 -0.4893  1.9659  0.8767
11486TIP3    H255874   2.256   6.661   0.791  0.1766  0.5157 -1.5720
11487TIP3   OH255875   0.347   3.163  11.926  0.1005 -0.5578 -0.0891
11487TIP3    H155876   0.254   3.156  11.903 -0.4119 -0.4009  1.8139
11487TIP3    H255877   0.357   3.112  12.006  1.0476  1.6625  1.3060
11488TIP3   OH255878   5.215   0.867   0.258 -0.2968 -0.0664 -0.2677
11488TIP3    H155879   5.247   0.939   0.312 -0.5919  0.2507 -0.5129
11488TIP3    H255880   5.251   0.788   0.299 -1.5362  0.0543  1.1409
11489TIP3   OH255881   3.578   4.598   3.790  0.1768  0.2958  0.1538
11489TIP3    H155882   3.541   4.669   3.842  1.4521  0.4683  0.8559
11489TIP3    H255883   3.652   4.566   3.841  0.8459 -0.2146 -1.0706
11490TIP3   OH255884   6.743   5.069  15.252  0.4799 -0.0204 -0.4729
11490TIP3    H155885   6.680   5.009  15.213  1.1007 -0.4593 -0.8095
11490TIP3    H255886   6.689   5.134  15.298 -0.2242 -0.1651 -1.0811
11491TIP3   OH255887   2.406   4.249  12.190 -0.0554 -0.1738 -0.2771
11491TIP3    H155888   2.360   4.165  12.196  1.1205 -0.7977  0.2220
11491TIP3    H255889   2.384   4.282  12.103 -1.6469 -0.3289  0.0380
11492TIP3   OH255890   0.808   2.231   4.640  0.3899 -0.4181 -0.1523
11492TIP3    H155891   0.830   2.164   4.704  0.2081  0.2711  0.6482
11492TIP3    H255892   0.713   2.242   4.648  0.5290  0.4935  0.2844
11493TIP3   OH255893   0.179   2.274   0.270  0.2833 -0.1961 -0.4826
11493TIP3    H155894   0.122   2.342   0.305 -0.7209 -1.8716  1.3206
11493TIP3    H255895   0.125   2.228   0.205  0.5610 -0.0069 -0.8502
11494TIP3   OH255896   4.913   2.979   0.030 -0.1374 -0.2783 -0.3660
11494TIP3    H155897   4.899   3.053   0.089 -1.2448 -0.8995  0.1785
11494TIP3    H255898   4.864   3.002  -0.049 -0.5327 -0.4466 -0.1731
11495TIP3   OH255899   3.294   2.630  17.110  0.1142 -0.1116  0.0075
11495TIP3    H155900   3.228   2.615  17.178  0.1959 -0.2131  0.0634
11495TIP3    H255901   3.300   2.547  17.063 -1.0908  0.4206 -1.1456
11496TIP3   OH255902   0.703   5.282  15.279 -0.4383  0.6179  0.3349
11496TIP3    H155903   0.781   5.228  15.280  1.0391  2.5948 -0.6642
11496TIP3    H255904   0.659   5.258  15.197 -0.1580  0.4636  0.2284
11497TIP3   OH255905   0.816   1.108   3.576  0.2028  0.5652 -0.2579
11497TIP3    H155906   0.911   1.104   3.563  0.1638  3.4416 -2.5317
11497TIP3    H255907   0.800   1.195   3.612 -1.5349 -0.4454  1.6488
11498TIP3   OH255908   3.847   4.588  17.099  0.1802  0.2394 -0.3572
11498TIP3    H155909   3.791   4.665  17.091 -1.5599 -1.0904 -1.9771
11498TIP3    H255910   3.870   4.565  17.008  0.6726 -1.1318  0.0813
11499TIP3   OH255911   4.991   5.795  12.783  0.2069 -0.2541 -0.0349
11499TIP3    H155912   4.904   5.834  12.789  0.2474 -0.3393  1.2913
11499TIP3    H255913   5.040   5.854  12.726 -0.5350  0.1279 -0.2905
11500TIP3   OH255914   2.420   0.904  12.469  0.1580  0.1772  0.2476
11500TIP3    H155915   2.442   0.988  12.510  1.8819  0.1831 -0.5735
11500TIP3    H255916   2.324   0.902  12.467  0.0825  1.8991  0.7470
11501TIP3   OH255917   5.084   2.262   5.176 -0.5342  0.3486  0.7967
11501TIP3    H155918   5.078   2.241   5.270 -2.7116 -0.4604  0.5319
11501TIP3    H255919   4.993   2.275   5.149 -0.0391 -0.4946 -1.4444
11502TIP3   OH255920   6.782   3.396  13.500 -0.0766  0.6186 -0.0204
11502TIP3    H155921   6.851   3.370  13.440 -1.3791  2.1852 -2.3275
11502TIP3    H255922   6.706   3.344  13.474 -0.0748 -0.4639  1.9367
11503TIP3   OH255923   0.133   1.381  12.754  0.0571 -0.2412 -0.6636
11503TIP3    H155924   0.091   1.419  12.831  0.6805 -1.3591  0.2470
11503TIP3    H255925   0.065   1.327  12.714  0.1549 -0.8382 -0.0448
11504TIP3   OH255926   6.578   6.173   4.408  0.1790 -0.1256  0.4871
11504TIP3    H155927   6.527   6.159   4.487  0.2331  1.4987  0.8572
11504TIP3    H255928   6.525   6.234   4.356  0.6499 -0.2929 -0.2033
11505TIP3   OH255929   5.310   2.386  12.632 -0.0192 -0.8155  0.1467
11505TIP3    H155930   5.332   2.318  12.568  0.4286 -0.3986 -0.1529
11505TIP3    H255931   5.303   2.466  12.580 -0.6744 -0.6547  0.4778
11506TIP3   OH255932   5.580   3.142  14.855  0.0513  0.0166 -0.3943
11506TIP3    H155933   5.486   3.139  14.841 -0.3359  1.8807  1.3978
11506TIP3    H255934   5.602   3.056  14.891 -0.9412 -0.4110 -0.7790
11507TIP3   OH255935   6.469   2.212  13.956 -0.4191 -0.4266 -0.5164
11507TIP3    H155936   6.555   2.218  13.997 -0.3488  0.8828 -0.8202
11507TIP3    H255937   6.486   2.221  13.862 -0.7241 -1.9997 -0.7531
11508TIP3   OH255938   2.791   0.157  16.531 -0.0176  1.2750 -0.1297
11508TIP3    H155939   2.719   0.126  16.586 -0.3126  1.6848 -0.2814
11508TIP3    H255940   2.750   0.219  16.470  0.8200  3.4129  1.3515
11509TIP3   OH255941   5.688   4.048  16.504  0.1883 -0.5075 -0.0981
11509TIP3    H155942   5.612   4.013  16.550  0.4724 -0.6172  0.2986
11509TIP3    H255943   5.762   4.000  16.540  0.5466  0.2399  0.2015
11510TIP3   OH255944   5.899   2.515   3.021 -0.5401  0.0671  0.2252
11510TIP3    H155945   5.886   2.472   3.105  1.5189  1.5029  1.3746
11510TIP3    H255946   5.821   2.570   3.009 -0.8791 -0.1947  1.1766
11511TIP3   OH255947   2.856   5.404  11.526 -0.2706  0.4695 -0.0560
11511TIP3    H155948   2.775   5.395  11.575  0.1061  0.8496  0.6373
11511TIP3    H255949   2.838   5.472  11.461 -0.5916  0.3584 -0.0817
11512TIP3   OH255950   2.120   1.642  13.393  0.0930  0.2577 -0.1549
11512TIP3    H155951   2.181   1.702  13.436  0.1752  0.8095 -1.0122
11512TIP3    H255952   2.172   1.565  13.371  0.0190 -0.0890  0.8259
11513TIP3   OH255953   5.330   3.789   2.863 -0.4013  0.2664  0.1476
11513TIP3    H155954   5.358   3.851   2.796  0.8300 -0.5556 -0.1308
11513TIP3    H255955   5.347   3.703   2.824  0.3670 -0.2221  1.5119
11514TIP3   OH255956   6.361   4.629  15.355 -0.3546  0.1205 -0.3640
11514TIP3    H155957   6.371   4.534  15.344  0.2598  0.0291  0.8668
11514TIP3    H255958   6.442   4.657  15.397 -1.3035  0.8825  1.0172
11515TIP3   OH255959   2.177   5.071   5.384  0.1757 -0.4408 -0.1761
11515TIP3    H155960   2.251   5.038   5.436  0.5535 -0.1451 -0.5280
11515TIP3    H255961   2.101   5.061   5.442  0.2865 -1.8532 -0.2298
11516TIP3   OH255962   4.813   5.370  12.299  0.2962 -0.7275 -0.5793
11516TIP3    H155963   4.878   5.440  12.304  0.4252 -0.8133 -1.0695
11516TIP3    H255964   4.805   5.339  12.390  0.3759 -0.2095 -0.3910
11517TIP3   OH255965   3.476   5.856   2.998  0.3322  0.0992  0.1411
11517TIP3    H155966   3.458   5.762   2.990  0.2554  0.0843  0.4667
11517TIP3    H255967   3.443   5.894   2.916 -0.4165 -0.0412  0.3701
11518TIP3   OH255968   3.923   3.328   4.805  0.3059 -0.1330 -0.1002
11518TIP3    H155969   3.872   3.331   4.885  1.6159 -2.3870  0.9256
11518TIP3    H255970   3.883   3.259   4.753 -1.4888  2.2932 -2.2304
11519TIP3   OH255971   0.175   4.647  14.160  0.2847  0.4732  0.1083
11519TIP3    H155972   0.263   4.669  14.129 -0.1600  4.0759  0.9655
11519TIP3    H255973   0.116   4.683  14.094 -0.5782  0.0191  0.6122
11520TIP3   OH255974   1.416   5.009   4.298  0.1315  0.4208 -0.2682
11520TIP3    H155975   1.355   5.052   4.238  0.8727 -0.6502 -1.8721
11520TIP3    H255976   1.362   4.946   4.346 -0.5388  1.5368  0.4732
11521TIP3   OH255977   5.168   6.673  14.820 -0.1112 -0.1241  0.0956
11521TIP3    H155978   5.149   6.767  14.817  1.0071  0.1610  1.1340
11521TIP3    H255979   5.186   6.648  14.730  1.4275  1.0779  0.0418
11522TIP3   OH255980   6.600   3.703   1.213  0.4303  0.2617 -0.5016
11522TIP3    H155981   6.655   3.712   1.291 -0.6602  0.2070  0.3082
11522TIP3    H255982   6.545   3.626   1.232 -0.8937  1.1481 -0.6429
11523TIP3   OH255983   2.601   2.750  10.464 -0.3976 -0.4804 -0.1213
11523TIP3    H155984   2.654   2.785  10.536 -0.3631 -0.0608 -0.3456
11523TIP3    H255985   2.647   2.780  10.385 -1.5813  0.8702 -0.3411
11524TIP3   OH255986   0.396   2.253   1.301 -0.2379 -0.3311  0.1385
11524TIP3    H155987   0.452   2.176   1.302  0.0558 -0.1261  1.5394
11524TIP3    H255988   0.444   2.317   1.250 -0.3894 -0.9869 -0.8581
11525TIP3   OH255989   2.856   5.607   2.355 -0.2274  0.2595  0.3243
11525TIP3    H155990   2.896   5.661   2.423 -0.8100  0.3634  0.5893
11525TIP3    H255991   2.901   5.523   2.362  0.6330  0.6718 -0.0402
11526TIP3   OH255992   3.536   4.309   1.106  0.5572 -0.2621  1.0822
11526TIP3    H155993   3.557   4.340   1.018 -0.0411 -1.0149  0.6606
11526TIP3    H255994   3.454   4.353   1.128  0.2586 -0.7294  0.9107
11527TIP3   OH255995   2.376   5.568   0.328 -0.1050 -0.1201  0.1966
11527TIP3    H155996   2.289   5.559   0.288  0.0194  0.4055 -0.1935
11527TIP3    H255997   2.376   5.504   0.399 -1.1934  0.5942  0.8626
11528TIP3   OH255998   4.511   3.800   1.178  0.1345  0.1382  0.0767
11528TIP3    H155999   4.505   3.705   1.173  0.5661  0.1601 -1.4934
11528TIP3    H256000   4.492   3.830   1.089  1.9391  1.3913  0.0556
11529TIP3   OH256001   3.458   5.432  16.521 -0.1871  0.0127 -0.0411
11529TIP3    H156002   3.484   5.399  16.608  1.3701  0.7638 -0.1920
11529TIP3    H256003   3.499   5.372  16.460  0.1239  0.4557 -0.2731
11530TIP3   OH256004   3.664   1.246  13.891 -0.1268  0.5091 -0.0557
11530TIP3    H156005   3.749   1.257  13.934  0.3183  0.8374 -0.9879
11530TIP3    H256006   3.605   1.304  13.940  0.2381  0.4730  0.4391
11531TIP3   OH256007   1.639   1.477  16.632  0.1866 -0.0832  0.1856
11531TIP3    H156008   1.715   1.495  16.687  0.4224 -1.5039  0.3818
11531TIP3    H256009   1.625   1.557  16.581  2.0078  0.0887 -0.0926
11532TIP3   OH256010   1.058   2.681   2.230  0.1241 -0.1855  0.3626
11532TIP3    H156011   1.145   2.715   2.254  0.1231  1.4153 -1.6044
11532TIP3    H256012   1.065   2.663   2.137 -1.8740  0.7404 -0.0154
11533TIP3   OH256013   3.503   1.120  11.253  0.0742 -0.2340  0.1378
11533TIP3    H156014   3.454   1.049  11.212 -1.8592  1.8445 -1.4226
11533TIP3    H256015   3.459   1.134  11.337  0.5375 -0.9373  0.5019
11534TIP3   OH256016   1.907   2.661   4.613 -0.2503  0.0768 -0.4213
11534TIP3    H156017   1.815   2.680   4.597 -1.2591 -1.0011  3.1866
11534TIP3    H256018   1.906   2.585   4.672  2.9558 -0.1075 -0.4319
11535TIP3   OH256019   5.525   4.796  14.511 -0.0293  0.0490  0.0506
11535TIP3    H156020   5.511   4.783  14.418 -2.1559 -1.2839  0.4752
11535TIP3    H256021   5.478   4.724  14.553  0.1336  1.0799  2.1781
11536TIP3   OH256022   0.728   0.564   1.396 -0.5615 -0.4068 -0.4421
11536TIP3    H156023   0.765   0.633   1.451 -0.7650 -0.0887 -0.7017
11536TIP3    H256024   0.762   0.482   1.434  2.7440 -0.0806 -2.3155
11537TIP3   OH256025   4.582   3.417  11.303  0.8274 -0.2043 -0.5654
11537TIP3    H156026   4.643   3.376  11.241  1.3248 -0.6876  0.2232
11537TIP3    H256027   4.576   3.508  11.273  1.5123 -0.2845 -0.9787
11538TIP3   OH256028   5.744   3.021  11.750  0.3693 -0.0898 -0.2503
11538TIP3    H156029   5.732   2.962  11.675  1.1882  0.3164 -0.7121
11538TIP3    H256030   5.687   3.096  11.731 -0.1924 -0.4334  0.0336
11539TIP3   OH256031   4.367   4.642  14.098 -0.4585 -0.0494 -0.3775
11539TIP3    H156032   4.362   4.630  14.193 -0.0230 -2.6876 -0.6123
11539TIP3    H256033   4.276   4.643  14.069 -0.6364  1.9379  0.1447
11540TIP3   OH256034   1.300   3.443   2.362  0.3923  0.1934 -0.7000
11540TIP3    H156035   1.209   3.414   2.367  0.3961  0.2623 -0.2652
11540TIP3    H256036   1.329   3.413   2.275  0.3011 -0.8245 -0.3898
11541TIP3   OH256037   6.238   5.026   0.814 -0.8415  0.1003  0.1670
11541TIP3    H156038   6.248   4.931   0.818 -0.6691  0.0852 -0.5721
11541TIP3    H256039   6.153   5.042   0.855 -0.6866 -0.3309  0.6713
11542TIP3   OH256040   4.596   3.805   4.231 -0.3236  0.3113 -0.0683
11542TIP3    H156041   4.671   3.852   4.194  1.0607 -1.1517  0.7771
11542TIP3    H256042   4.558   3.759   4.156  1.0306 -0.7505 -0.1438
11543TIP3   OH256043   4.674   1.457   3.309  0.0839 -0.1619 -0.3467
11543TIP3    H156044   4.590   1.414   3.297  0.5425 -0.9041 -0.9459
11543TIP3    H256045   4.737   1.401   3.265  0.8603  0.5340 -0.1564
11544TIP3   OH256046   4.837   6.040  11.900 -0.2248 -0.8265  0.3171
11544TIP3    H156047   4.888   5.976  11.949 -0.4911 -1.1445  0.1759
11544TIP3    H256048   4.900   6.109  11.879  0.1355 -1.1947  0.1840
11545TIP3   OH256049   0.351   3.208  10.938  0.7364 -0.3145  0.2023
11545TIP3    H156050   0.288   3.149  10.897 -0.4001  1.1896 -0.2915
11545TIP3    H256051   0.371   3.272  10.869  1.4938  0.2198  0.9079
11546TIP3   OH256052   4.805   2.749  14.794  0.1648  0.2656  0.2275
11546TIP3    H156053   4.743   2.808  14.838  1.3064  1.5555  0.1808
11546TIP3    H256054   4.866   2.723  14.863  0.2632 -0.0519  0.0215
11547TIP3   OH256055   4.914   3.099  16.087 -0.2314 -0.1491  0.2562
11547TIP3    H156056   4.859   3.137  16.018  0.3071  2.3291  1.0843
11547TIP3    H256057   5.003   3.122  16.061  0.2508 -1.7888  0.3186
11548TIP3   OH256058   1.171   6.760   2.516  0.3600  0.0769  0.1097
11548TIP3    H156059   1.243   6.711   2.557  0.4636  0.5102  0.4577
11548TIP3    H256060   1.114   6.783   2.589  0.8681  1.3932  0.1129
11549TIP3   OH256061   1.820   1.819   1.651 -0.0127  0.3221 -0.3622
11549TIP3    H156062   1.784   1.730   1.646  1.4709 -0.3212 -0.4494
11549TIP3    H256063   1.855   1.826   1.740  2.6668 -0.4113 -1.2444
11550TIP3   OH256064   0.062   3.306   4.669  0.1737 -0.5693  0.0552
11550TIP3    H156065   0.136   3.288   4.611  1.8685 -0.9182  2.1994
11550TIP3    H256066   0.087   3.384   4.718  0.4859 -2.2418  2.7953
11551TIP3   OH256067   2.839   3.996   4.068  0.1114  0.2159 -0.0707
11551TIP3    H156068   2.759   4.021   4.022 -0.8628 -1.5416  0.6041
11551TIP3    H256069   2.818   4.007   4.160 -0.0552 -2.0749  0.2147
11552TIP3   OH256070   6.177   2.503  12.049 -0.0316  0.3237  0.0165
11552TIP3    H156071   6.086   2.533  12.046 -0.3694 -0.7490 -1.2889
11552TIP3    H256072   6.208   2.530  12.136 -1.4499  1.0923  0.3147
11553TIP3   OH256073   4.079   4.568   2.660 -0.1304 -0.1211  0.3704
11553TIP3    H156074   4.040   4.557   2.574 -0.7677 -1.1160  0.7703
11553TIP3    H256075   4.116   4.656   2.659  1.1277 -0.6289 -1.4095
11554TIP3   OH256076   3.112   3.179   5.666 -0.0552  0.6324  0.4438
11554TIP3    H156077   3.198   3.165   5.704 -0.7460  0.3718  1.9868
11554TIP3    H256078   3.080   3.092   5.646  0.1334  0.7442 -0.3926
11555TIP3   OH256079   4.439   3.889  15.552  0.2406 -0.1021 -0.0913
11555TIP3    H156080   4.524   3.914  15.587 -1.1596  2.1043  2.0660
11555TIP3    H256081   4.435   3.794  15.564  2.8487 -0.4797 -1.5129
11556TIP3   OH256082   0.162   5.458   2.891 -0.3139  0.0674  0.3587
11556TIP3    H156083   0.171   5.551   2.911 -2.8641  0.1248  1.6063
11556TIP3    H256084   0.113   5.456   2.809 -1.9052 -0.1206  1.2791
11557TIP3   OH256085   2.722   2.678  14.592  0.3371  0.4136 -0.4582
11557TIP3    H156086   2.677   2.750  14.549  0.2180 -0.1966 -1.3954
11557TIP3    H256087   2.709   2.693  14.686 -0.3013  1.1992 -0.6660
11558TIP3   OH256088   0.798   5.333  16.640 -0.2216 -0.0860  0.0657
11558TIP3    H156089   0.880   5.311  16.684  0.0385  1.3128  0.3499
11558TIP3    H256090   0.729   5.309  16.702  0.0865  0.6777  0.7156
11559TIP3   OH256091   6.502   6.183  11.193 -0.2015 -0.7023  0.3096
11559TIP3    H156092   6.576   6.223  11.146  1.2332 -1.5866  1.7073
11559TIP3    H256093   6.432   6.248  11.187  1.0101  0.6112 -0.2157
11560TIP3   OH256094   6.649   2.747  16.364 -0.5428  0.5204  0.0721
11560TIP3    H156095   6.739   2.779  16.363  0.0055 -0.9564 -0.0829
11560TIP3    H256096   6.632   2.723  16.272 -0.4871 -0.7686  0.3798
11561TIP3   OH256097   3.865   0.178   1.763  0.1391 -0.0107 -0.2559
11561TIP3    H156098   3.900   0.228   1.689  1.9818 -1.0369 -0.1525
11561TIP3    H256099   3.879   0.234   1.839 -0.7373  0.5884 -0.5222
11562TIP3   OH256100   0.374   4.504  16.759  0.1225  0.6700  0.1808
11562TIP3    H156101   0.340   4.590  16.735  1.3661  0.7002 -1.6207
11562TIP3    H256102   0.458   4.497  16.714  0.3706 -1.2277  0.8283
11563TIP3   OH256103   5.295   6.671   4.403 -0.0490 -0.1394  0.3788
11563TIP3    H156104   5.288   6.690   4.310 -1.2450  0.2143  0.5235
11563TIP3    H256105   5.322   6.580   4.408 -1.6572 -0.6806 -0.3191
11564TIP3   OH256106   1.481   1.696   5.246  0.2248  0.3151 -0.0718
11564TIP3    H156107   1.467   1.614   5.198  0.4724  0.0811  0.2521
11564TIP3    H256108   1.559   1.735   5.206  1.5913 -0.8207  1.3786
11565TIP3   OH256109   5.233   4.019   5.219  0.3012  0.4247 -0.1682
11565TIP3    H156110   5.302   3.979   5.272 -0.6009 -0.2997  0.5049
11565TIP3    H256111   5.279   4.056   5.144  1.8392  2.8082  1.7913
11566TIP3   OH256112   2.403   0.262  10.864 -0.2065  0.0289 -0.4043
11566TIP3    H156113   2.406   0.195  10.932  2.0295  0.2095 -0.2398
11566TIP3    H256114   2.334   0.322  10.892  0.8644  0.2809  1.9299
11567TIP3   OH256115   2.504   1.482   2.962  0.4788  0.6131  0.0225
11567TIP3    H156116   2.442   1.555   2.949 -0.7629 -0.2650  0.8005
11567TIP3    H256117   2.569   1.517   3.023 -0.6193  0.8120  1.1285
11568TIP3   OH256118   4.818   3.740   6.127  0.0650 -0.1234 -0.3582
11568TIP3    H156119   4.814   3.714   6.219  0.1496  0.4363 -0.1887
11568TIP3    H256120   4.852   3.663   6.081  1.1035 -0.0462  0.2368
11569TIP3   OH256121   0.107   5.201  12.479  0.1640 -0.0587  0.0438
11569TIP3    H156122   0.017   5.198  12.513  0.0425 -0.8398 -0.3044
11569TIP3    H256123   0.103   5.263  12.407  0.5753  2.1298  1.8161
11570TIP3   OH256124   2.742   2.637   4.946 -0.5492  0.2949  0.4025
11570TIP3    H156125   2.770   2.547   4.928  1.4088  0.7208  1.0311
11570TIP3    H256126   2.652   2.629   4.976 -0.2081 -1.5480  1.0570
11571TIP3   OH256127   3.101   1.994   2.329 -0.0708 -0.0400  0.2850
11571TIP3    H156128   3.059   1.926   2.277 -0.8731 -1.2503  2.3656
11571TIP3    H256129   3.172   1.949   2.375  1.8952  1.4203 -1.1613
11572TIP3   OH256130   0.533   1.985  17.006  0.5383 -0.5637  0.4463
11572TIP3    H156131   0.519   1.892  16.988  0.4978 -0.3390 -0.7134
11572TIP3    H256132   0.624   1.990  17.038  0.1756 -1.1367  1.6432
11573TIP3   OH256133   6.210   4.003  16.760 -0.0191 -0.1216 -0.2182
11573TIP3    H156134   6.162   4.086  16.758 -2.2857 -1.3397  0.3509
11573TIP3    H256135   6.233   3.987  16.669 -1.0364  0.3435 -0.5770
11574TIP3   OH256136   0.588   0.414   2.619 -0.3119  0.8879  0.8860
11574TIP3    H156137   0.681   0.415   2.593 -0.1871 -0.5132  1.1820
11574TIP3    H256138   0.573   0.324   2.647 -1.9898  0.8825  0.0565
11575TIP3   OH256139   3.853   5.827  11.356  0.1172  0.3006 -0.0719
11575TIP3    H156140   3.881   5.817  11.265 -0.8872  0.6422 -0.4285
11575TIP3    H256141   3.822   5.917  11.362  0.0155  0.2268  0.5615
11576TIP3   OH256142   6.277   3.185   1.998  0.5977  0.2928 -0.2223
11576TIP3    H156143   6.318   3.099   2.013 -1.5833 -0.8862 -0.5387
11576TIP3    H256144   6.192   3.178   2.042  0.8197  2.7354  0.7043
11577TIP3   OH256145   1.874   0.323  12.974  0.1996 -0.2525 -0.0686
11577TIP3    H156146   1.914   0.284  13.052 -3.0038 -0.6567  1.5345
11577TIP3    H256147   1.866   0.250  12.912  0.6616 -0.4594  0.1124
11578TIP3   OH256148   1.966   1.661   4.703 -0.3723  0.1180  0.2605
11578TIP3    H156149   2.054   1.677   4.670 -0.3179  0.6832  0.6649
11578TIP3    H256150   1.951   1.568   4.687 -0.5484  0.4479 -1.8373
11579TIP3   OH256151   5.420   2.770   5.693 -0.2600 -0.5931 -0.6353
11579TIP3    H156152   5.466   2.829   5.633  0.6506 -1.3450 -0.6989
11579TIP3    H256153   5.329   2.798   5.689  0.3442  1.7745  0.4496
11580TIP3   OH256154   6.550   4.224  16.052  0.0495  0.1258 -0.0526
11580TIP3    H156155   6.632   4.273  16.046  0.8866 -1.2878 -0.6857
11580TIP3    H256156   6.486   4.279  16.007  0.6995  1.1332  0.2230
11581TIP3   OH256157   4.817   2.231   1.398 -0.0001 -0.2203  0.1069
11581TIP3    H156158   4.880   2.300   1.421  1.1343 -1.2802  0.3086
11581TIP3    H256159   4.871   2.152   1.392 -1.5368 -1.4544  1.7132
11582TIP3   OH256160   3.989   4.022   1.780 -0.1232  0.5111 -0.8137
11582TIP3    H156161   3.915   4.006   1.839  0.7659 -1.1778 -0.0868
11582TIP3    H256162   3.987   4.117   1.764 -1.8398  0.6454 -0.0448
11583TIP3   OH256163   2.498   2.873  15.348  0.0021 -0.4072 -0.5628
11583TIP3    H156164   2.583   2.857  15.390  0.2446  0.1574 -0.8151
11583TIP3    H256165   2.458   2.941  15.402 -0.0842 -0.3417 -0.7096
11584TIP3   OH256166   6.074   3.216   1.013 -0.1255  0.4871 -0.4730
11584TIP3    H156167   5.980   3.234   1.012 -0.2145  0.0348 -0.4730
11584TIP3    H256168   6.094   3.197   1.104 -0.0571  0.4590 -0.4940
11585TIP3   OH256169   4.353   5.128   1.483  0.3349 -0.2785  0.0966
11585TIP3    H156170   4.309   5.050   1.516  0.1794 -0.3730 -0.3248
11585TIP3    H256171   4.362   5.185   1.560  0.2377 -0.6112  0.3562
11586TIP3   OH256172   1.321   0.522  17.057 -0.3521  0.4451 -0.1320
11586TIP3    H156173   1.371   0.504  17.137 -1.0726  1.7681  0.6534
11586TIP3    H256174   1.385   0.560  16.997 -0.1286  0.8933  0.3818
11587TIP3   OH256175   4.960   1.600   4.468  0.0578 -0.4134 -0.4222
11587TIP3    H156176   4.953   1.508   4.445  1.1063 -0.4997 -0.4575
11587TIP3    H256177   5.051   1.611   4.496 -0.0139  0.6299 -0.5385
11588TIP3   OH256178   5.699   5.507  13.414 -0.1976  0.1338 -0.0686
11588TIP3    H156179   5.643   5.442  13.455 -1.3660  0.1015 -1.6451
11588TIP3    H256180   5.707   5.576  13.480 -3.0814  0.6960 -0.1707
11589TIP3   OH256181   0.179   3.888  13.327  0.0731 -0.4130 -0.1021
11589TIP3    H156182   0.118   3.815  13.338  1.5326 -1.9146 -1.5283
11589TIP3    H256183   0.265   3.851  13.345  0.7772  1.1941  0.0041
11590TIP3   OH256184   3.682   6.316   5.497 -0.1082  0.0412  0.3436
11590TIP3    H156185   3.612   6.258   5.464  0.6960 -0.5334 -0.4014
11590TIP3    H256186   3.671   6.315   5.592  0.1267 -1.6908  0.3950
11591TIP3   OH256187   1.961   5.831  12.479 -0.6838 -0.1668 -0.4728
11591TIP3    H156188   1.958   5.918  12.440 -0.1671 -0.6392 -1.6209
11591TIP3    H256189   1.939   5.772  12.407 -1.7925 -0.9507  0.4699
11592TIP3   OH256190   0.947   2.410   3.245  0.4898  0.2099  0.4039
11592TIP3    H156191   0.978   2.500   3.236  0.9700  0.1200  1.0119
11592TIP3    H256192   0.856   2.418   3.272  0.5109  0.5147  0.3832
11593TIP3   OH256193   2.899   0.379   5.619  0.1211 -0.3880 -0.2611
11593TIP3    H156194   2.953   0.331   5.682  0.6099 -0.5663 -0.8035
11593TIP3    H256195   2.961   0.432   5.569  0.1544 -2.2992 -2.4379
11594TIP3   OH256196   5.972   5.623   5.387  0.4700  0.6022 -0.5600
11594TIP3    H156197   5.962   5.529   5.397  0.7242  0.7375  1.4172
11594TIP3    H256198   6.037   5.634   5.317 -1.3322 -0.5746 -2.5482
11595TIP3   OH256199   5.873   5.606   3.630 -0.1559  0.0607  0.2746
11595TIP3    H156200   5.859   5.541   3.698  0.4940  0.8810  1.2217
11595TIP3    H256201   5.842   5.688   3.669 -1.4585  0.2530 -1.0823
11596TIP3   OH256202   4.373   4.831   3.796 -0.0105 -0.3796  0.6761
11596TIP3    H156203   4.387   4.900   3.860 -0.8736 -0.0395  0.5117
11596TIP3    H256204   4.340   4.757   3.847 -1.8481  0.2733  0.5105
11597TIP3   OH256205   0.435   3.209   5.717 -0.4135  0.3468 -1.1375
11597TIP3    H156206   0.448   3.250   5.631  0.6406  0.9030 -0.7344
11597TIP3    H256207   0.391   3.276   5.769  1.2344  1.0090 -0.5042
11598TIP3   OH256208   3.513   2.089   4.181 -0.4626 -0.8142 -0.2099
11598TIP3    H156209   3.432   2.137   4.201 -0.0689 -0.9816  1.9768
11598TIP3    H256210   3.564   2.092   4.262  0.7396 -2.6642 -0.8242
11599TIP3   OH256211   0.169   4.134  17.139  0.2329  0.0813  0.0438
11599TIP3    H156212   0.093   4.168  17.186 -0.6053  1.7563 -2.3248
11599TIP3    H256213   0.134   4.104  17.055  1.9510 -0.8333 -0.3844
11600TIP3   OH256214   3.571   6.694  16.040 -0.4565 -0.7062 -0.0494
11600TIP3    H156215   3.550   6.749  15.964 -1.0512 -0.1776  0.4880
11600TIP3    H256216   3.516   6.728  16.110 -0.0648 -1.3265  0.5685
11601TIP3   OH256217   2.303   1.947   5.567 -0.2447 -0.2916  0.2413
11601TIP3    H156218   2.231   2.007   5.544  1.6196  2.0497  0.1168
11601TIP3    H256219   2.371   1.967   5.504  1.9312  0.3695  2.6126
11602TIP3   OH256220   4.850   4.720   2.397 -0.3313  0.0883  0.6589
11602TIP3    H156221   4.898   4.700   2.317  0.5404  3.2431  0.2576
11602TIP3    H256222   4.770   4.669   2.390  0.4694 -1.0223 -1.3790
11603TIP3   OH256223   0.498   5.779  11.957  0.2112  0.0954 -0.4561
11603TIP3    H156224   0.565   5.761  12.024  0.7795 -0.0921 -1.0677
11603TIP3    H256225   0.415   5.769  12.004  0.6071  1.5901  0.6484
11604TIP3   OH256226   4.807   1.911  14.895 -0.1614  0.2645  0.3391
11604TIP3    H156227   4.741   1.881  14.957 -1.0743 -0.6594 -1.0363
11604TIP3    H256228   4.826   1.835  14.840 -0.9062  1.5332 -1.8313
11605TIP3   OH256229   0.829   3.593   2.428 -0.6371 -0.0633  0.4341
11605TIP3    H156230   0.759   3.654   2.406  0.4023  1.7712  1.9588
11605TIP3    H256231   0.784   3.520   2.471 -1.8660 -0.2914 -1.1397
11606TIP3   OH256232   2.494   5.810   1.480 -0.1531 -0.2887  0.6481
11606TIP3    H156233   2.573   5.757   1.480 -0.7611 -1.2323  0.5215
11606TIP3    H256234   2.522   5.897   1.508  1.0161 -0.4629  0.0598
11607TIP3   OH256235   1.646   0.206   1.050  0.0106 -0.4871 -0.3631
11607TIP3    H156236   1.715   0.232   1.111 -0.8241  0.7233  0.0950
11607TIP3    H256237   1.590   0.147   1.100 -0.2032 -0.1542 -0.2018
11608TIP3   OH256238   3.471   1.491   3.404  0.1278  0.2612  0.2640
11608TIP3    H156239   3.497   1.474   3.494  0.5591 -1.0986 -0.1048
11608TIP3    H256240   3.377   1.472   3.402  0.3965 -1.1496  0.1090
11609TIP3   OH256241   3.239   4.964   1.358 -0.2909 -0.0025 -0.3546
11609TIP3    H156242   3.219   4.985   1.267 -1.2302  2.0007  0.2593
11609TIP3    H256243   3.166   4.910   1.387 -0.8446  0.7318 -0.3493
11610TIP3   OH256244   4.948   2.746  12.093 -0.2648  0.4588  0.0886
11610TIP3    H156245   5.042   2.763  12.094 -0.2932  0.6191 -0.0255
11610TIP3    H256246   4.927   2.729  12.001 -0.4315  0.8774  0.0482
11611TIP3   OH256247   1.932   4.954   5.935 -0.1732  0.3734 -0.0969
11611TIP3    H156248   1.949   4.887   6.001 -1.8085 -1.8986 -1.8326
11611TIP3    H256249   1.846   4.989   5.959 -0.5213 -0.0664 -0.6875
11612TIP3   OH256250   2.203   0.381  10.979  0.3345  0.5260  0.5756
11612TIP3    H156251   2.186   0.453  11.039  0.5535  1.8686 -0.8989
11612TIP3    H256252   2.132   0.319  10.996 -0.7263  1.7636  0.9036
11613TIP3   OH256253   5.859   6.106   5.919 -0.1668  0.1568 -0.2471
11613TIP3    H156254   5.772   6.146   5.925 -0.7076 -1.1578  1.5238
11613TIP3    H256255   5.902   6.127   6.002 -0.6108 -3.0186  0.9572
11614TIP3   OH256256   5.714   5.351  16.289 -0.2047  0.1377  0.0711
11614TIP3    H156257   5.761   5.280  16.245 -0.9315 -1.2685  1.4739
11614TIP3    H256258   5.622   5.333  16.272 -0.4270  0.3284  1.0213
11615TIP3   OH256259   0.861   4.364   4.120  0.2950  0.6215 -0.1757
11615TIP3    H156260   0.941   4.328   4.082  0.2219  1.9188 -1.6201
11615TIP3    H256261   0.796   4.295   4.108  1.3988 -0.9718  2.1418
11616TIP3   OH256262   3.166   0.830  11.054  0.3024  0.1056 -0.0153
11616TIP3    H156263   3.091   0.839  10.995  1.5034 -2.3913 -2.1292
11616TIP3    H256264   3.133   0.777  11.127 -0.3560  0.3223 -0.1515
11617TIP3   OH256265   3.322   5.048   4.544  0.3709  0.3367  0.5299
11617TIP3    H156266   3.347   4.998   4.621  0.8435  2.0757  1.5690
11617TIP3    H256267   3.399   5.044   4.487  0.0731 -0.8345  0.1971
11618TIP3   OH256268   6.016   1.919  14.855 -0.1631  0.5711 -0.0125
11618TIP3    H156269   5.983   1.865  14.784 -2.8978  0.0373  1.5006
11618TIP3    H256270   6.017   1.861  14.931  1.0916  1.5307  0.7445
11619TIP3   OH256271   0.479   5.858   0.901  0.6483  0.5690 -0.7914
11619TIP3    H156272   0.546   5.918   0.935  0.3089  0.0913  0.8058
11619TIP3    H256273   0.396   5.904   0.917  0.3333 -0.5350  1.0629
11620TIP3   OH256274   4.803   6.654   3.940  0.2745  0.1888 -0.0125
11620TIP3    H156275   4.729   6.596   3.955  1.6744 -1.9206 -0.7572
11620TIP3    H256276   4.801   6.672   3.846 -0.7031  2.2332  0.3478
11621TIP3   OH256277   3.758   1.857  15.814 -0.0216 -0.0120  0.1777
11621TIP3    H156278   3.759   1.952  15.804  0.2046 -0.0171  0.1355
11621TIP3    H256279   3.848   1.830  15.795 -0.1882 -0.2810 -0.2669
11622TIP3   OH256280   4.328   6.733   2.807 -0.1656 -0.0916  0.2741
11622TIP3    H156281   4.310   6.720   2.900  0.0125  0.4425  0.3894
11622TIP3    H256282   4.314   6.647   2.767  0.2150 -0.4313  0.8657
11623TIP3   OH256283   2.776   0.665  15.127 -0.1544  0.5673 -0.0864
11623TIP3    H156284   2.686   0.677  15.099  0.2124 -0.8440 -2.0368
11623TIP3    H256285   2.779   0.577  15.163  0.5024  0.5059 -0.2698
11624TIP3   OH256286   4.152   1.967  13.819 -0.1862  0.1642  0.1191
11624TIP3    H156287   4.242   1.995  13.832 -0.2811  0.7037 -0.3430
11624TIP3    H256288   4.155   1.909  13.743  0.0408 -1.2913  1.1918
11625TIP3   OH256289   4.694   1.041   0.111 -0.5421 -0.7174  0.0194
11625TIP3    H156290   4.728   1.115   0.061 -1.9022 -0.0381  0.0546
11625TIP3    H256291   4.729   1.054   0.199 -1.4714  0.4017  0.2474
11626TIP3   OH256292   0.495   3.206   2.774  0.4395 -0.6413  0.4728
11626TIP3    H156293   0.435   3.272   2.740 -0.9514 -1.7369  0.7086
11626TIP3    H256294   0.443   3.126   2.779  0.9115 -0.8962  3.9057
11627TIP3   OH256295   4.201   4.235   2.788  0.0193 -0.1573 -0.0115
11627TIP3    H156296   4.188   4.175   2.714 -0.5736 -0.8551  0.6380
11627TIP3    H256297   4.277   4.198   2.834  1.3777  1.1589 -1.1095
11628TIP3   OH256298   0.349   5.864  14.132 -0.3141  0.0467 -0.2009
11628TIP3    H156299   0.434   5.889  14.096  0.0643 -0.3253  0.4121
11628TIP3    H256300   0.356   5.770  14.146 -1.1774 -0.1452 -1.0529
11629TIP3   OH256301   4.592   1.474   5.177 -0.4447  0.0428 -0.3109
11629TIP3    H156302   4.623   1.403   5.120 -0.8447 -0.2160 -0.2071
11629TIP3    H256303   4.585   1.550   5.119  4.9526  1.5205  0.4287
11630TIP3   OH256304   5.300   1.304  13.831  0.0089 -0.2232 -0.5245
11630TIP3    H156305   5.261   1.217  13.825 -2.4719  0.7729 -0.1406
11630TIP3    H256306   5.270   1.349  13.752  1.8637  0.0965 -1.0848
11631TIP3   OH256307   2.492   2.088  13.572 -0.5428 -0.3555 -0.2897
11631TIP3    H156308   2.464   2.122  13.487  0.9677 -2.8953 -1.9359
11631TIP3    H256309   2.576   2.132  13.590 -0.2702 -0.7078 -0.7076
11632TIP3   OH256310   5.071   3.269  13.925  0.9853 -0.2213  0.1075
11632TIP3    H156311   5.021   3.256  14.005  2.0325 -1.7667  0.5588
11632TIP3    H256312   5.155   3.303  13.954  1.2423 -0.4320 -0.3732
11633TIP3   OH256313   5.595   4.108  12.965  0.3640  0.5099  0.5693
11633TIP3    H156314   5.583   4.023  13.008  1.2139  0.4552  0.7063
11633TIP3    H256315   5.519   4.159  12.993 -0.6774 -0.5053 -0.2836
11634TIP3   OH256316   5.846   0.736  11.682 -0.2774  0.1350  0.2927
11634TIP3    H156317   5.778   0.801  11.667 -1.2653 -0.9569 -0.1409
11634TIP3    H256318   5.803   0.652  11.666  0.6056 -0.7146  2.1146
11635TIP3   OH256319   6.605   0.201   5.722  0.5128  0.0822  0.5827
11635TIP3    H156320   6.544   0.247   5.780  0.2830 -1.8972  1.9959
11635TIP3    H256321   6.688   0.200   5.770  0.7088 -0.3364  0.2354
11636TIP3   OH256322   3.266   3.058   4.960 -0.4408 -0.2043  0.2396
11636TIP3    H156323   3.262   3.014   4.876 -0.0842 -1.5319  0.8918
11636TIP3    H256324   3.195   3.020   5.011 -0.2353  0.0995  0.7649
11637TIP3   OH256325   4.199   4.969   0.443 -0.5180  0.2026  0.6905
11637TIP3    H156326   4.126   4.951   0.383  0.8297 -1.3873 -0.5639
11637TIP3    H256327   4.229   5.056   0.418 -0.7180  0.0398 -0.1626
11638TIP3   OH256328   3.917   0.417   1.096 -0.2083  0.1275  0.1422
11638TIP3    H156329   3.843   0.394   1.039  0.1246  0.1935 -0.3264
11638TIP3    H256330   3.877   0.459   1.172 -0.6450  0.2490 -0.1530
11639TIP3   OH256331   1.364   5.245  14.232 -0.6662  0.1128 -0.0738
11639TIP3    H156332   1.306   5.272  14.160 -1.3522 -0.4846  0.2504
11639TIP3    H256333   1.356   5.150  14.235  0.8663 -0.0522 -0.4645
11640TIP3   OH256334   2.621   2.570   3.633 -0.1560  0.0392 -0.5699
11640TIP3    H156335   2.645   2.510   3.703 -0.3891 -1.3285 -1.6128
11640TIP3    H256336   2.703   2.614   3.610  0.1775 -0.4320 -0.2960
11641TIP3   OH256337   4.818   0.164   1.132  0.4658 -0.1655  0.0043
11641TIP3    H156338   4.872   0.101   1.084  2.4587  1.2294  0.2964
11641TIP3    H256339   4.876   0.238   1.148 -1.9234  2.0131 -0.7556
11642TIP3   OH256340   3.077   0.893   2.525  0.2690  0.3915  0.4274
11642TIP3    H156341   3.092   0.922   2.614 -0.0022 -1.4007  1.0969
11642TIP3    H256342   3.164   0.888   2.486  0.7687 -1.9713  1.6770
11643TIP3   OH256343   3.589   5.159  15.062  0.2142 -0.0266  0.3547
11643TIP3    H156344   3.549   5.104  15.130  1.0451  0.6990  1.4646
11643TIP3    H256345   3.519   5.219  15.036 -0.6397 -1.4446 -0.7230
11644TIP3   OH256346   4.346   1.050   5.993 -0.8430  0.0515  0.1980
11644TIP3    H156347   4.419   0.988   5.985  0.1627  1.2113  0.0630
11644TIP3    H256348   4.269   0.995   6.010  0.1974 -1.1627  1.1895
11645TIP3   OH256349   2.608   5.409   3.680 -0.0831 -0.1159 -0.0961
11645TIP3    H156350   2.699   5.396   3.705 -0.2881  0.5988  1.1198
11645TIP3    H256351   2.581   5.326   3.642  0.9751 -0.4389 -0.1705
11646TIP3   OH256352   6.564   5.454  11.821 -0.0089 -0.3938  0.0353
11646TIP3    H156353   6.639   5.418  11.773 -0.1736 -0.5841 -0.0806
11646TIP3    H256354   6.517   5.506  11.756 -0.2106 -0.6199 -0.0015
11647TIP3   OH256355   4.731   0.554   1.213  0.0680 -0.8516 -0.0070
11647TIP3    H156356   4.655   0.505   1.183 -0.4197  0.1918 -0.5203
11647TIP3    H256357   4.716   0.644   1.183 -0.9984  0.6233  4.1618
11648TIP3   OH256358   3.054   0.305  13.797  0.4773  0.8652  0.1630
11648TIP3    H156359   3.041   0.216  13.765  1.5291  1.1816 -1.2628
11648TIP3    H256360   3.086   0.295  13.886  0.6011 -0.1738  0.0095
11649TIP3   OH256361   3.944   3.164  12.161  0.4346  0.3864 -0.1513
11649TIP3    H156362   4.009   3.113  12.114 -0.0148  0.0971 -0.4754
11649TIP3    H256363   3.881   3.191  12.093 -1.4195 -1.8660  0.5529
11650TIP3   OH256364   1.158   2.689   6.608 -0.0688  0.0965  0.4835
11650TIP3    H156365   1.159   2.747   6.684  1.4703 -2.3924  2.5396
11650TIP3    H256366   1.212   2.733   6.543 -0.4276  1.7408  1.2460
11651TIP3   OH256367   3.251   6.731   4.875  0.1533 -0.1128 -0.4307
11651TIP3    H156368   3.293   6.801   4.924  0.3027  0.2407 -1.0556
11651TIP3    H256369   3.282   6.742   4.785 -2.3209  1.0203 -1.2136
11652TIP3   OH256370   4.303   3.184  11.034 -0.1127  0.1186  0.0650
11652TIP3    H156371   4.277   3.257  10.977 -1.2856 -0.4606 -0.1887
11652TIP3    H256372   4.224   3.164  11.085  0.3000 -0.7172  0.3989
11653TIP3   OH256373   2.689   5.087  16.725  0.2101  0.0558  0.0461
11653TIP3    H156374   2.755   5.022  16.703 -1.0768 -2.2201  2.3924
11653TIP3    H256375   2.727   5.135  16.799 -0.9504 -1.8391  1.9828
11654TIP3   OH256376   6.148   4.398   1.601 -0.3530 -0.0412  0.1219
11654TIP3    H156377   6.176   4.460   1.667 -0.8887  0.4377 -0.0964
11654TIP3    H256378   6.136   4.450   1.522 -0.3642 -0.4947 -0.1810
11655TIP3   OH256379   3.408   3.421  16.787  0.1619  0.5648 -0.5992
11655TIP3    H156380   3.480   3.370  16.749  0.1573  0.5836 -0.6321
11655TIP3    H256381   3.452   3.491  16.836  0.1723  0.4432 -0.4324
11656TIP3   OH256382   6.084   5.576   5.702  0.4034 -0.8604 -0.1969
11656TIP3    H156383   6.064   5.592   5.610  3.5171 -3.8584 -1.5920
11656TIP3    H256384   6.011   5.521   5.733 -1.2374  1.0657 -0.3891
11657TIP3   OH256385   2.141   0.373   1.850  0.1924  0.2186 -0.1080
11657TIP3    H156386   2.199   0.449   1.862  0.8545 -0.0474 -1.4337
11657TIP3    H256387   2.200   0.298   1.851 -0.1201 -0.0561 -1.4291
11658TIP3   OH256388   6.395   0.895  14.816 -0.5900  0.4066 -0.6379
11658TIP3    H156389   6.471   0.864  14.865 -1.9255 -1.2210  0.5533
11658TIP3    H256390   6.400   0.851  14.732 -0.2812  0.2075 -0.5154
11659TIP3   OH256391   5.464   1.779   2.688 -0.5033 -0.2088  0.3990
11659TIP3    H156392   5.385   1.797   2.638  0.4627 -1.7851 -1.8115
11659TIP3    H256393   5.455   1.688   2.716  0.5645 -0.4612 -0.0206
11660TIP3   OH256394   4.957   3.948  15.286  0.1497  0.0261 -0.1479
11660TIP3    H156395   4.866   3.977  15.299  0.4057  0.0769  1.8313
11660TIP3    H256396   4.970   3.953  15.191 -0.9753  2.9142 -0.2592
11661TIP3   OH256397   5.704   4.681  15.253 -0.2020 -0.0692  0.4123
11661TIP3    H156398   5.620   4.640  15.236 -0.2879 -0.1484  0.9853
11661TIP3    H256399   5.686   4.747  15.320  0.4082 -1.0294  1.5733
11662TIP3   OH256400   4.678   2.720  16.527  0.0673  0.2275 -0.0651
11662TIP3    H156401   4.744   2.661  16.490  1.8512  1.6979  0.5704
11662TIP3    H256402   4.636   2.760  16.450 -0.2795 -0.9151 -0.4852
11663TIP3   OH256403   1.705   2.867  15.907 -1.1887  1.0320  0.1771
11663TIP3    H156404   1.671   2.838  15.822 -2.0718 -2.0396  1.4688
11663TIP3    H256405   1.630   2.906  15.951 -1.4836  0.0357  0.5887
11664TIP3   OH256406   0.276   4.567  10.538 -0.3586  0.6204 -0.1540
11664TIP3    H156407   0.283   4.618  10.457 -0.9043 -0.1065 -0.6716
11664TIP3    H256408   0.360   4.581  10.582  0.1854  0.5462 -1.1415
11665TIP3   OH256409   1.317   1.044   2.621  0.0637 -0.6219 -0.5159
11665TIP3    H156410   1.245   1.017   2.564 -0.0414  0.7475 -1.0680
11665TIP3    H256411   1.396   1.031   2.569  0.2525 -2.1504  0.0998
11666TIP3   OH256412   1.522   6.490  13.094 -0.0059 -0.1901 -0.1206
11666TIP3    H156413   1.566   6.494  13.009  0.0357  1.3896 -0.0537
11666TIP3    H256414   1.514   6.582  13.121 -2.5929 -0.4519  0.2589
11667TIP3   OH256415   2.117   2.563   3.426 -0.1554 -0.3510 -0.4755
11667TIP3    H156416   2.176   2.637   3.417 -0.6258  0.2163  0.7996
11667TIP3    H256417   2.174   2.487   3.436  0.3383  0.0015 -0.6099
11668TIP3   OH256418   0.981   5.037   2.959 -1.1162 -0.3160 -0.0635
11668TIP3    H156419   0.959   4.946   2.978 -1.8312 -0.3589 -1.0379
11668TIP3    H256420   1.076   5.041   2.971 -1.1015 -1.1383  0.1721
11669TIP3   OH256421   6.001   2.441   4.133  0.4906 -0.1158  0.0907
11669TIP3    H156422   5.951   2.403   4.062 -1.4717 -0.9873  1.8428
11669TIP3    H256423   5.989   2.536   4.123 -0.5287 -0.2707 -0.2181
11670TIP3   OH256424   5.974   6.236  11.703  0.4820  0.6850  0.1253
11670TIP3    H156425   5.914   6.304  11.673  0.0015  1.0231  1.7848
11670TIP3    H256426   6.060   6.279  11.702  0.5518  0.5565 -1.1242
11671TIP3   OH256427   5.013   3.775  16.077  0.6242 -0.4330 -0.8942
11671TIP3    H156428   5.077   3.846  16.068  0.2672 -0.1007 -0.8221
11671TIP3    H256429   5.013   3.755  16.170  0.4915 -0.3052 -0.8654
11672TIP3   OH256430   1.780   0.582  10.957 -0.1891 -0.1867  0.4088
11672TIP3    H156431   1.720   0.563  10.884  0.0451 -1.0508  0.4231
11672TIP3    H256432   1.867   0.572  10.919 -0.0214  1.5563  0.2617
11673TIP3   OH256433   4.096   2.651   3.304 -0.5323  0.3635 -0.1271
11673TIP3    H156434   4.177   2.698   3.286  0.9387 -1.8010  0.4448
11673TIP3    H256435   4.122   2.580   3.362 -3.4657  1.5911  3.0307
11674TIP3   OH256436   3.588   6.317  16.071 -0.0770  0.3761 -0.4513
11674TIP3    H156437   3.606   6.299  15.979  0.9559 -1.5565  0.0784
11674TIP3    H256438   3.543   6.239  16.103  1.0047  0.3278  1.0550
11675TIP3   OH256439   6.256   4.963   4.763 -0.1419  0.0686  0.2180
11675TIP3    H156440   6.333   4.948   4.709  1.0030  1.6957  1.2903
11675TIP3    H256441   6.290   4.979   4.851 -1.5412  2.1242  0.4809
11676TIP3   OH256442   3.375   5.384   1.414 -0.5252 -0.2060  0.2737
11676TIP3    H156443   3.305   5.319   1.413  1.1096 -2.0311 -0.2817
11676TIP3    H256444   3.372   5.424   1.328  0.1121 -1.4439 -0.3515
11677TIP3   OH256445   3.430   4.077  16.936 -0.7667  0.3356  0.4556
11677TIP3    H156446   3.356   4.032  16.895 -0.5162 -0.5761  0.9582
11677TIP3    H256447   3.461   4.139  16.870  0.4831 -2.0007 -1.3081
11678TIP3   OH256448   4.094   4.290  13.499  0.4302  0.2321 -0.1314
11678TIP3    H156449   4.051   4.215  13.539 -0.1492  0.4826 -0.2793
11678TIP3    H256450   4.095   4.269  13.405 -0.1297  0.6011 -0.2242
11679TIP3   OH256451   0.485   6.464  16.962 -0.2714 -0.6496  0.6139
11679TIP3    H156452   0.546   6.507  16.902 -0.4753 -1.4332 -0.1820
11679TIP3    H256453   0.479   6.374  16.929 -1.8545 -0.5886  0.6677
11680TIP3   OH256454   4.634   6.050  14.249  0.2973  0.0484  0.3016
11680TIP3    H156455   4.607   5.971  14.295 -0.1859 -0.2007 -0.3962
11680TIP3    H256456   4.579   6.052  14.170  2.0398 -0.2712 -0.9721
11681TIP3   OH256457   4.464   3.325   0.779 -0.4887 -0.3158 -0.4846
11681TIP3    H156458   4.519   3.404   0.776  0.5632 -0.9648  0.8818
11681TIP3    H256459   4.422   3.329   0.865 -1.3218 -0.6705 -0.8703
11682TIP3   OH256460   1.805   2.672  14.052 -0.1086  0.0363 -0.2811
11682TIP3    H156461   1.843   2.665  13.965 -0.3330  0.4777 -0.4205
11682TIP3    H256462   1.712   2.690  14.036 -0.4075 -1.1479  0.0522
11683TIP3   OH256463   2.230   1.340  11.268 -0.0241  0.1313  0.2066
11683TIP3    H156464   2.237   1.320  11.174 -2.1500  1.1970 -0.2421
11683TIP3    H256465   2.139   1.321  11.289  0.2714  0.4960  1.9307
11684TIP3   OH256466   1.060   1.961  13.302  0.0280  0.2036 -0.2686
11684TIP3    H156467   1.071   2.009  13.384 -1.6092 -1.6604  1.1548
11684TIP3    H256468   1.005   1.886  13.325 -0.7181 -0.2789 -3.1379
11685TIP3   OH256469   2.811   4.879  16.588  0.3275  0.0051  0.2319
11685TIP3    H156470   2.830   4.841  16.673 -0.8533 -0.0678  0.4823
11685TIP3    H256471   2.746   4.820  16.549  3.0463 -1.7451 -2.0815
11686TIP3   OH256472   2.413   5.267  15.102 -0.0199 -0.1147  0.1765
11686TIP3    H156473   2.332   5.317  15.106  0.9905  1.5045  1.3972
11686TIP3    H256474   2.390   5.182  15.139 -1.2832  0.1130 -0.0416
11687TIP3   OH256475   2.460   2.529  16.675  0.0271 -0.7735 -0.5833
11687TIP3    H156476   2.421   2.616  16.688 -1.9023 -1.7592  0.8378
11687TIP3    H256477   2.537   2.529  16.731  1.8078  0.9583 -2.8382
11688TIP3   OH256478   1.321   4.506  15.776  0.2697  0.1357 -0.5977
11688TIP3    H156479   1.350   4.595  15.756  1.2758 -0.0531 -0.0724
11688TIP3    H256480   1.320   4.502  15.872  0.2066 -0.4006 -0.6145
11689TIP3   OH256481   0.720   6.239  14.096 -0.7960 -0.0040  0.0260
11689TIP3    H156482   0.759   6.168  14.046 -0.2031  0.4540 -0.1799
11689TIP3    H256483   0.629   6.213  14.108 -1.0004 -0.0575 -1.4397
11690TIP3   OH256484   1.807   6.312  13.437 -0.2150  0.0861  0.3749
11690TIP3    H156485   1.807   6.374  13.510 -0.8646 -0.1662  0.5976
11690TIP3    H256486   1.794   6.366  13.359 -3.2919  0.0661  0.7546
11691TIP3   OH256487   3.862   2.888   2.817  0.2077 -0.2547 -0.0507
11691TIP3    H156488   3.934   2.930   2.864  1.3608  0.1213 -2.0216
11691TIP3    H256489   3.865   2.797   2.845  0.2310  0.1406  1.2884
11692TIP3   OH256490   3.000   2.957   5.602 -0.1032  0.5043 -0.6320
11692TIP3    H156491   2.910   2.987   5.618 -0.3405 -0.7718  0.6886
11692TIP3    H256492   2.991   2.890   5.534 -0.1161  0.5129 -0.6387
11693TIP3   OH256493   4.507   0.354  11.537 -0.1486  0.0068 -0.3223
11693TIP3    H156494   4.585   0.301  11.522  0.5078  0.4326  1.3825
11693TIP3    H256495   4.476   0.376  11.449  1.0544 -1.0150 -1.0367
11694TIP3   OH256496   5.505   3.418   0.996 -1.2636  0.1634  0.2566
11694TIP3    H156497   5.477   3.326   0.995 -3.7508  0.8240  1.3452
11694TIP3    H256498   5.463   3.456   0.918 -2.1088  0.8289  1.0184
11695TIP3   OH256499   5.491   4.386  11.202 -0.4321  0.4806  0.1198
11695TIP3    H156500   5.426   4.326  11.238 -0.9158 -0.5097 -2.2019
11695TIP3    H256501   5.440   4.448  11.150  0.3673  0.5035 -0.6570
11696TIP3   OH256502   0.339   5.466   5.263  0.1179 -0.0935 -0.4241
11696TIP3    H156503   0.424   5.461   5.218  0.7236  0.7350  0.5774
11696TIP3    H256504   0.302   5.550   5.235 -0.4568 -0.5290 -0.9893
11697TIP3   OH256505   4.261   3.966   1.727 -0.0926  0.0775  0.1806
11697TIP3    H156506   4.167   3.946   1.721  0.1156 -0.9470  0.0839
11697TIP3    H256507   4.265   4.048   1.776 -1.1223  1.0592 -1.3180
11698TIP3   OH256508   5.154   1.617   5.897  0.5148 -0.2662  0.2207
11698TIP3    H156509   5.074   1.642   5.944  0.8807  1.6872 -0.1029
11698TIP3    H256510   5.200   1.557   5.956 -0.3238  0.0087  1.1719
11699TIP3   OH256511   6.288   2.020  15.544 -0.7417  0.4360 -0.3611
11699TIP3    H156512   6.369   2.070  15.536  0.1127 -0.5748  1.4824
11699TIP3    H256513   6.265   2.026  15.637 -1.3096 -1.5215 -0.3395
11700TIP3   OH256514   0.816   6.178   3.453  0.1119 -0.2011  0.4770
11700TIP3    H156515   0.791   6.092   3.484  1.1494 -1.2010 -1.2939
11700TIP3    H256516   0.909   6.170   3.431  0.0125  1.0939 -0.5716
11701TIP3   OH256517   1.360   6.770  16.831 -0.3042  0.8867  0.1698
11701TIP3    H156518   1.432   6.747  16.889 -1.1645  0.5538  1.1262
11701TIP3    H256519   1.350   6.694  16.773 -0.4386  0.5811  0.5916
11702TIP3   OH256520   5.126   4.620   0.935 -0.1448  0.5152  0.1048
11702TIP3    H156521   5.103   4.549   0.876 -1.3842  0.2326  0.8733
11702TIP3    H256522   5.124   4.581   1.023 -1.2697  1.5560  0.5803
11703TIP3   OH256523   2.585   5.575   0.134  0.1092  0.0831 -0.2827
11703TIP3    H156524   2.670   5.573   0.179 -0.5403  1.9184  1.1141
11703TIP3    H256525   2.520   5.572   0.204 -1.0254 -1.5329 -1.3491
11704TIP3   OH256526   6.337   3.388   3.422 -0.3519  0.2056  0.7645
11704TIP3    H156527   6.406   3.351   3.476 -1.5420  0.3344  2.4664
11704TIP3    H256528   6.287   3.444   3.482  0.2436  3.1177 -1.2405
11705TIP3   OH256529   6.735   4.436  16.048 -0.2080 -0.2950  0.1871
11705TIP3    H156530   6.671   4.507  16.048 -0.7213 -0.6333 -2.5716
11705TIP3    H256531   6.820   4.481  16.046 -0.4622  0.2079  0.4138
11706TIP3   OH256532   2.322   6.291  15.769 -0.6996  0.1405  0.1923
11706TIP3    H156533   2.301   6.275  15.677  0.6629  0.4007 -0.1947
11706TIP3    H256534   2.381   6.219  15.793  1.6506  1.8278 -0.1714
11707TIP3   OH256535   3.402   3.665  11.195  0.2661  0.1188 -0.4952
11707TIP3    H156536   3.389   3.745  11.145 -1.3260  0.5384  0.5225
11707TIP3    H256537   3.425   3.599  11.129 -0.3744  0.9663 -1.5959
11708TIP3   OH256538   1.090   6.063  10.596 -0.9283 -0.5208  0.1488
11708TIP3    H156539   1.167   6.042  10.543 -0.2128 -0.1760  1.0229
11708TIP3    H256540   1.069   5.981  10.640  1.0016  0.1252  2.4690
11709TIP3   OH256541   5.408   1.616  13.753  0.0836  0.2116 -0.2850
11709TIP3    H156542   5.395   1.632  13.846  0.7642  1.1167 -0.3325
11709TIP3    H256543   5.420   1.521  13.745 -2.0712 -0.1745  0.2767
11710TIP3   OH256544   2.305   1.648  15.393  0.0503  0.4094 -0.4240
11710TIP3    H156545   2.244   1.592  15.441 -0.3633  1.2594  0.0741
11710TIP3    H256546   2.249   1.709  15.344  0.4851  0.5683 -0.7295
11711TIP3   OH256547   5.498   2.148  14.423 -0.4525 -0.5465  0.3026
11711TIP3    H156548   5.489   2.055  14.442  2.8388 -0.9195  0.7134
11711TIP3    H256549   5.524   2.188  14.507  1.0954  0.1673 -0.4721
11712TIP3   OH256550   0.858   2.588   0.922 -0.5226 -0.2391  0.1285
11712TIP3    H156551   0.875   2.675   0.958  0.1985 -0.7492  1.0995
11712TIP3    H256552   0.944   2.547   0.919 -1.0210 -1.4326  1.1147
11713TIP3   OH256553   3.700   0.003   5.186  0.9221  0.0499 -0.3295
11713TIP3    H156554   3.780  -0.008   5.135  2.2232 -0.4811  1.6891
11713TIP3    H256555   3.696  -0.075   5.241  0.0385  0.9414  0.9313
11714TIP3   OH256556   1.081   2.581   4.193  0.3858 -0.1611 -0.5637
11714TIP3    H156557   1.053   2.670   4.216 -0.6539 -0.1963 -1.5737
11714TIP3    H256558   1.023   2.556   4.120  2.1345 -0.8191 -1.7968
11715TIP3   OH256559   5.049   2.406  14.559  0.0789 -0.1422 -0.0300
11715TIP3    H156560   5.129   2.363  14.530 -0.2348 -0.6168 -0.1937
11715TIP3    H256561   5.057   2.410  14.654  0.4934  0.2096 -0.0750
11716TIP3   OH256562   5.308   6.485  11.591 -0.6717 -0.4301  0.0925
11716TIP3    H156563   5.383   6.464  11.535 -0.8765 -2.5178  0.4997
11716TIP3    H256564   5.327   6.573  11.624  1.1503 -0.5327 -0.5322
11717TIP3   OH256565   2.699   3.269  17.209  0.4507  0.2057 -0.0552
11717TIP3    H156566   2.783   3.314  17.217  1.4807 -1.8402  1.5527
11717TIP3    H256567   2.713   3.184  17.251 -2.0724 -0.7009 -0.8650
11718TIP3   OH256568   2.319   5.317  11.500  0.1017 -0.2494  0.5645
11718TIP3    H156569   2.266   5.250  11.544 -1.3082  0.0016 -0.6538
11718TIP3    H256570   2.324   5.287  11.410  1.5596  0.0610  0.5287
11719TIP3   OH256571   0.958   2.063   4.449 -0.5556  0.0424  0.4258
11719TIP3    H156572   0.921   2.114   4.521  1.0868  1.5194  0.2982
11719TIP3    H256573   0.938   2.114   4.371  0.6897  0.2695  0.2410
11720TIP3   OH256574   6.182   6.723  16.352  0.1500 -0.3082  0.3272
11720TIP3    H156575   6.164   6.653  16.415 -0.5436  1.1753  1.8741
11720TIP3    H256576   6.277   6.737  16.358  0.0697 -0.0905  1.1597
11721TIP3   OH256577   4.777   5.154   0.399  0.0087  0.4342 -0.7070
11721TIP3    H156578   4.845   5.087   0.401  0.6348  1.0448 -1.2805
11721TIP3    H256579   4.764   5.173   0.306  1.4814  2.7393 -0.5076
11722TIP3   OH256580   4.922   3.412   1.236  0.4623  0.0036  0.2784
11722TIP3    H156581   5.008   3.370   1.240  1.1091  1.3689  1.4069
11722TIP3    H256582   4.907   3.445   1.324 -1.2948 -0.2973  0.1294
11723TIP3   OH256583   2.623   4.612   0.426 -0.2368  0.1580 -0.1882
11723TIP3    H156584   2.530   4.607   0.449 -0.2006  2.2521  0.5677
11723TIP3    H256585   2.624   4.655   0.340  0.0613  0.8911  0.1763
11724TIP3   OH256586   4.043   4.494   3.404  0.2241  0.0507  0.1866
11724TIP3    H156587   3.988   4.473   3.479  0.1583  2.3252  0.8716
11724TIP3    H256588   4.115   4.431   3.407 -0.1840 -0.3633  1.7165
11725TIP3   OH256589   0.721   5.381   0.463  0.4943 -0.6085 -0.2336
11725TIP3    H156590   0.713   5.473   0.487  0.3484 -0.8575  0.7061
11725TIP3    H256591   0.764   5.382   0.377 -0.0306  0.3510 -0.5033
11726TIP3   OH256592   4.268   6.552   2.018  0.2166 -0.2836 -0.2455
11726TIP3    H156593   4.315   6.471   2.000 -1.1393 -1.1775  0.1167
11726TIP3    H256594   4.176   6.533   1.997 -0.1167  1.1950 -0.2947
11727TIP3   OH256595   1.509   5.027   2.316  0.0040  0.1443 -0.4578
11727TIP3    H156596   1.462   5.082   2.379  1.9807  0.6818  0.6278
11727TIP3    H256597   1.572   5.086   2.274  2.2649 -1.2209  0.8169
11728TIP3   OH256598   0.802   2.801  16.188  0.0182  0.5871  0.3493
11728TIP3    H156599   0.799   2.706  16.174 -0.6654  0.8954 -2.0857
11728TIP3    H256600   0.852   2.812  16.269  0.9655 -1.8001  0.1621
11729TIP3   OH256601   6.418   6.047   4.588 -0.0146 -0.2933  0.0557
11729TIP3    H156602   6.436   6.114   4.654 -0.0995 -0.5226  0.3162
11729TIP3    H256603   6.325   6.026   4.600 -0.1948  0.1148 -0.5601
11730TIP3   OH256604   1.666   6.693  12.198 -0.2088 -0.1930  0.4235
11730TIP3    H156605   1.604   6.724  12.133  1.5406 -2.9308 -2.8493
11730TIP3    H256606   1.611   6.662  12.270 -2.5504 -0.7260 -1.4714
11731TIP3   OH256607   5.406   4.006  11.987 -0.0760 -0.4831  0.1524
11731TIP3    H156608   5.482   3.951  12.004  0.9606  0.2700 -1.7264
11731TIP3    H256609   5.434   4.066  11.918 -1.3072  2.0713  1.6817
11732TIP3   OH256610   4.494   1.046  14.990 -0.3122  0.6192  0.3009
11732TIP3    H156611   4.528   0.981  15.052 -1.4745 -1.5306 -1.1980
11732TIP3    H256612   4.557   1.118  14.994  1.6593 -1.0490  1.2213
11733TIP3   OH256613   1.812   6.726  11.910  0.5801  0.0175 -0.5197
11733TIP3    H156614   1.730   6.766  11.938  0.1288 -1.4879  0.4097
11733TIP3    H256615   1.785   6.658  11.848  1.1823 -0.0064 -0.7585
11734TIP3   OH256616   3.733   1.733  13.023  0.2729  0.5924 -0.7859
11734TIP3    H156617   3.775   1.686  13.095 -0.6084  0.4650 -0.3409
11734TIP3    H256618   3.794   1.804  13.001  0.1308  1.2105  0.7283
11735TIP3   OH256619   4.374   3.089   1.956  0.0939 -0.2446 -0.1680
11735TIP3    H156620   4.408   3.013   2.004 -2.9302 -1.5412  0.2053
11735TIP3    H256621   4.326   3.139   2.022  0.8179  1.2184 -0.7162
11736TIP3   OH256622   5.180   1.022   2.286  0.2667  0.0449  0.0558
11736TIP3    H156623   5.273   0.998   2.284  0.8493  2.1192 -0.9935
11736TIP3    H256624   5.180   1.114   2.312 -1.4587  0.2192 -0.4454
11737TIP3   OH256625   0.322   2.320  15.568  0.1593 -0.1224  0.2375
11737TIP3    H156626   0.265   2.381  15.521  1.0879  0.9633  0.4838
11737TIP3    H256627   0.262   2.268  15.622 -1.0285 -1.8482 -2.5053
11738TIP3   OH256628   5.551   2.282   4.425 -0.2639 -0.0755 -0.4757
11738TIP3    H156629   5.611   2.350   4.395  0.1803 -0.0544  0.4301
11738TIP3    H256630   5.531   2.305   4.515 -0.4832 -0.8863 -0.3063
11739TIP3   OH256631   4.372   0.535   2.611  0.0806  0.2383 -0.0652
11739TIP3    H156632   4.467   0.532   2.618  0.3202  4.1519  0.1393
11739TIP3    H256633   4.354   0.576   2.527 -1.3898  0.8876  0.5304
11740TIP3   OH256634   3.214   6.031   5.272 -0.0522  0.5854 -0.2857
11740TIP3    H156635   3.173   6.081   5.201  0.1856 -0.4049 -1.1374
11740TIP3    H256636   3.141   6.003   5.327 -0.2571  1.1789 -0.2499
11741TIP3   OH256637   2.059   4.107   1.050 -0.4799  0.1938 -0.0661
11741TIP3    H156638   2.064   4.188   1.000  2.0781 -0.0675 -0.3843
11741TIP3    H256639   2.062   4.134   1.141 -2.0716  0.5194 -0.0784
11742TIP3   OH256640   0.834   4.267   2.586 -0.0182  0.5818 -0.1995
11742TIP3    H156641   0.809   4.305   2.670  0.7429  0.2852  0.1730
11742TIP3    H256642   0.856   4.342   2.531 -0.6723  0.7860 -0.1913
11743TIP3   OH256643   3.860   5.888  13.498  0.0763 -0.2474 -0.0354
11743TIP3    H156644   3.955   5.887  13.502  0.0916  0.5028 -0.1161
11743TIP3    H256645   3.839   5.884  13.405  0.0069 -1.1499  0.0088
11744TIP3   OH256646   3.990   2.349   4.670 -0.1348  0.2237 -0.5453
11744TIP3    H156647   4.018   2.427   4.622 -1.0765 -0.1439 -1.7648
11744TIP3    H256648   3.900   2.369   4.696 -0.3046 -0.3570 -0.6811
11745TIP3   OH256649   4.406   2.056  13.984  0.1464  0.1323  0.5459
11745TIP3    H156650   4.479   2.109  13.954 -1.1308  1.3814 -0.5137
11745TIP3    H256651   4.363   2.109  14.051 -0.7739  0.2003 -0.0722
11746TIP3   OH256652   4.266   5.372   0.217  0.4851  0.3486  0.0063
11746TIP3    H156653   4.242   5.440   0.280  0.8402  0.8886 -0.4307
11746TIP3    H256654   4.204   5.385   0.145 -1.7517 -1.9839  1.3336
11747TIP3   OH256655   5.900   6.703   4.192 -0.3047 -0.5283  0.2858
11747TIP3    H156656   5.848   6.709   4.112 -0.8260  0.3975  0.6794
11747TIP3    H256657   5.836   6.704   4.263  0.2093 -0.2280  0.7536
11748TIP3   OH256658   0.367   3.691  11.828  0.4749  0.7166  0.4720
11748TIP3    H156659   0.362   3.595  11.829 -0.5119  0.7587  1.8138
11748TIP3    H256660   0.300   3.718  11.765  1.7160  0.5157 -0.9921
11749TIP3   OH256661   2.020   5.078   3.456  0.2650 -0.3794  0.0489
11749TIP3    H156662   2.087   5.110   3.395  1.2932  1.0312  1.8339
11749TIP3    H256663   2.055   5.097   3.543 -2.2058 -0.1027  1.0625
11750TIP3   OH256664   6.273   4.860  14.926 -0.1619  0.5142  0.6872
11750TIP3    H156665   6.270   4.908  15.009  0.7620 -1.0462  1.6653
11750TIP3    H256666   6.351   4.805  14.933 -1.3750 -1.4312 -0.1887
11751TIP3   OH256667   5.875   4.675  11.688  0.4218  0.4316 -0.0405
11751TIP3    H156668   5.925   4.729  11.749 -2.6753  2.4060  0.9442
11751TIP3    H256669   5.941   4.644  11.625  2.9502  2.3134  1.4879
11752TIP3   OH256670   6.010   5.174  13.089  0.3172  0.2909 -0.5076
11752TIP3    H156671   5.976   5.191  13.177  1.5292  0.7724 -0.1107
11752TIP3    H256672   6.103   5.194  13.095  0.8037 -1.4824 -1.4202
11753TIP3   OH256673   0.178   1.240  14.876 -0.1966  0.7876  0.1596
11753TIP3    H156674   0.091   1.281  14.878 -0.8043 -0.4052  2.8226
11753TIP3    H256675   0.234   1.304  14.921  0.3719  1.5611 -1.5678
11754TIP3   OH256676   4.252   5.603  11.337  0.0491 -0.1782  0.1501
11754TIP3    H156677   4.333   5.614  11.387  0.4190 -0.0432 -0.4678
11754TIP3    H256678   4.280   5.605  11.245 -0.6365 -0.2738 -0.0669
11755TIP3   OH256679   1.674   1.340   3.105  0.5003 -0.2821 -0.0314
11755TIP3    H156680   1.610   1.300   3.165 -3.0177  0.1897 -3.0729
11755TIP3    H256681   1.688   1.428   3.140 -0.0523 -0.5882  1.0135
11756TIP3   OH256682   0.587   5.518   4.621  0.0187 -0.9540 -0.5039
11756TIP3    H156683   0.682   5.516   4.632  0.0432 -0.8346 -0.6803
11756TIP3    H256684   0.572   5.480   4.535 -0.0674 -0.6559 -0.6212
11757TIP3   OH256685   0.678   6.467   6.723 -0.0792  0.1460  0.1255
11757TIP3    H156686   0.723   6.520   6.788  0.9685 -0.2879 -0.2309
11757TIP3    H256687   0.616   6.414   6.773  1.1388 -0.6286  0.8571
11758TIP3   OH256688   2.816   1.115  15.344  0.7883 -0.1629 -0.0275
11758TIP3    H156689   2.889   1.068  15.302  1.4280 -0.2468  1.1365
11758TIP3    H256690   2.780   1.052  15.407  1.2234  0.6570  1.0648
11759TIP3   OH256691   3.074   5.804  16.135 -0.2406 -0.4125  0.1725
11759TIP3    H156692   3.101   5.824  16.045  0.1505  0.0528  0.3896
11759TIP3    H256693   3.084   5.709  16.142 -1.4584 -0.6269 -0.6580
11760TIP3   OH256694   0.599   0.723  13.991  0.0436 -0.3101  0.0373
11760TIP3    H156695   0.591   0.677  14.074 -2.6225  0.1308  0.1051
11760TIP3    H256696   0.537   0.796  13.998  0.4729  0.3122 -1.9760
11761TIP3   OH256697   3.313   3.440   3.926  0.4411 -0.3453 -0.2118
11761TIP3    H156698   3.394   3.390   3.931  0.8298  0.2606 -0.2335
11761TIP3    H256699   3.244   3.375   3.931  0.9204 -0.8089  0.6260
11762TIP3   OH256700   2.620   2.720  16.153  0.2858  0.4662 -0.0424
11762TIP3    H156701   2.620   2.625  16.145 -1.6335  0.5111 -1.4882
11762TIP3    H256702   2.683   2.750  16.087  1.1941  0.2026  0.6958
11763TIP3   OH256703   5.992   6.574  16.704 -0.3745  0.0927  0.4273
11763TIP3    H156704   6.001   6.501  16.643  0.0152  0.9342 -0.5473
11763TIP3    H256705   6.015   6.537  16.789  0.7642 -0.6921 -0.2033
11764TIP3   OH256706   6.620   4.593  13.384 -0.4202 -0.9638  0.6259
11764TIP3    H156707   6.565   4.640  13.448 -0.3262 -1.0702  0.7843
11764TIP3    H256708   6.606   4.501  13.405  0.0388 -0.9829  0.8480
11765TIP3   OH256709   1.339   0.198  12.598 -0.3078  0.0433 -0.0066
11765TIP3    H156710   1.346   0.194  12.503  1.2469 -0.9375  0.1047
11765TIP3    H256711   1.428   0.218  12.627 -0.8451  0.7421  1.2428
11766TIP3   OH256712   4.727   3.465   5.495 -0.2926 -0.5469 -0.5786
11766TIP3    H156713   4.747   3.534   5.558 -1.0152  0.7759 -1.7364
11766TIP3    H256714   4.809   3.451   5.448  0.0272 -0.9527  0.0865
11767TIP3   OH256715   2.372   5.909   3.345  0.8218  0.0869 -0.1886
11767TIP3    H156716   2.308   5.849   3.306 -1.4677  2.4557 -0.3358
11767TIP3    H256717   2.361   5.898   3.439 -1.7971  2.2495 -0.1282
11768TIP3   OH256718   6.589   0.566   4.291  0.1665 -0.5516  0.6568
11768TIP3    H156719   6.558   0.573   4.381 -0.3211 -0.6348  0.4956
11768TIP3    H256720   6.580   0.655   4.256  1.1679 -0.3148  0.9431
11769TIP3   OH256721   1.359   2.626   1.383  0.2789  0.0573 -0.2373
11769TIP3    H156722   1.420   2.673   1.440  0.5782  0.3726 -0.8124
11769TIP3    H256723   1.322   2.558   1.439  1.1425 -0.1247  0.1226
11770TIP3   OH256724   4.732   3.090   1.486 -0.4792  0.1219  0.2060
11770TIP3    H156725   4.781   3.110   1.407 -1.0674  1.5936  0.1905
11770TIP3    H256726   4.661   3.032   1.456 -1.0308  1.1140 -0.4734
11771TIP3   OH256727   6.311   6.607   0.342 -0.2560  1.0165 -0.6706
11771TIP3    H156728   6.232   6.593   0.289 -1.2008  1.9753  0.4382
11771TIP3    H256729   6.364   6.667   0.290  0.2262 -0.3850 -1.8659
11772TIP3   OH256730   6.282   1.450  13.006  0.0604  0.1384 -0.0284
11772TIP3    H156731   6.245   1.374  12.962 -0.5819  1.2516 -1.5124
11772TIP3    H256732   6.363   1.469  12.957 -0.7535  1.5020 -0.9076
11773TIP3   OH256733   0.977   1.138   5.030 -0.5627  0.2233  0.0805
11773TIP3    H156734   1.064   1.176   5.022  0.4778 -1.8747  0.6722
11773TIP3    H256735   0.950   1.119   4.940  0.1887 -0.3239 -0.0413
11774TIP3   OH256736   0.530   1.243  11.655  0.2204 -0.1281 -0.5867
11774TIP3    H156737   0.608   1.229  11.708 -0.7538 -0.4383  0.8281
11774TIP3    H256738   0.494   1.326  11.686 -1.1767 -1.0362  0.3594
11775TIP3   OH256739   5.277   1.371   1.353  0.1860  0.3075 -0.3201
11775TIP3    H156740   5.197   1.377   1.300 -0.4374 -1.3813  0.3631
11775TIP3    H256741   5.249   1.330   1.435  1.9206 -1.5527 -0.5574
11776TIP3   OH256742   6.663   6.531  17.007  0.7320 -0.1191 -0.1019
11776TIP3    H156743   6.595   6.536  16.941  0.1545  1.7624  0.5898
11776TIP3    H256744   6.728   6.595  16.980  0.5015  0.6605  1.1125
11777TIP3   OH256745   5.903   0.926  13.052 -0.3644 -1.0447  0.2730
11777TIP3    H156746   5.824   0.975  13.074  1.4789  0.8643  3.4555
11777TIP3    H256747   5.953   0.985  12.996  0.9529  0.0165  2.4452
11778TIP3   OH256748   4.024   2.627  15.994  0.1723  0.1574 -0.5749
11778TIP3    H156749   4.034   2.717  16.026  0.0891  0.3824 -1.1778
11778TIP3    H256750   4.090   2.577  16.043 -1.5637 -0.0060  1.7979
11779TIP3   OH256751   2.279   5.929   0.203 -0.6112 -0.2046  0.2907
11779TIP3    H156752   2.216   6.001   0.200 -0.1444  0.1632 -0.9110
11779TIP3    H256753   2.320   5.937   0.289 -1.5647  0.0975  0.7301
11780TIP3   OH256754   4.785   6.527   4.717 -0.8235  0.0173  0.1362
11780TIP3    H156755   4.728   6.463   4.759  0.6115  0.1177  2.4305
11780TIP3    H256756   4.873   6.499   4.740 -0.0922  1.8138 -0.3354
11781TIP3   OH256757   0.121   2.463  11.119 -0.0301 -0.0752 -0.1165
11781TIP3    H156758   0.157   2.471  11.207  2.1705  1.0729 -1.0434
11781TIP3    H256759   0.169   2.528  11.067 -2.9360  0.9953 -1.6838
11782TIP3   OH256760   1.917   1.797  17.205 -0.3011  0.2034 -0.0100
11782TIP3    H156761   1.855   1.730  17.178 -0.3865 -0.0485  0.8064
11782TIP3    H256762   1.934   1.780  17.297  1.4135 -0.0832 -0.3351
11783TIP3   OH256763   3.371   1.120  12.544  0.2330 -0.2733 -0.1986
11783TIP3    H156764   3.372   1.213  12.567  1.4757 -0.1233 -0.7736
11783TIP3    H256765   3.349   1.119  12.451  0.2715 -0.5513 -0.2055
11784TIP3   OH256766   4.841   3.351  15.735 -0.0120  0.2029 -0.2618
11784TIP3    H156767   4.910   3.416  15.749 -1.6001  1.9782 -0.2834
11784TIP3    H256768   4.772   3.399  15.690 -1.4095 -1.4293  0.0374
11785TIP3   OH256769   1.283   6.658   4.863  0.1032 -0.1264 -0.2411
11785TIP3    H156770   1.249   6.703   4.939  0.5504 -0.5093  0.1914
11785TIP3    H256771   1.377   6.673   4.866  0.4237 -1.9546  0.5212
11786TIP3   OH256772   1.788   5.747   3.833 -0.0211  0.0656  0.3532
11786TIP3    H156773   1.800   5.767   3.926 -0.2430  1.8936  0.0358
11786TIP3    H256774   1.787   5.651   3.829 -0.5781 -0.0632  2.3022
11787TIP3   OH256775   2.521   3.091  11.469  0.0370 -0.0254  0.3018
11787TIP3    H156776   2.434   3.090  11.428  0.2547  0.0630 -0.1759
11787TIP3    H256777   2.559   3.006  11.446  0.4336  0.3056 -0.2902
11788TIP3   OH256778   6.689   2.620  14.099  0.2896 -0.7345 -0.0081
11788TIP3    H156779   6.659   2.704  14.135 -1.6955 -1.2896 -0.2593
11788TIP3    H256780   6.715   2.569  14.175 -4.1922 -2.0345  0.9403
11789TIP3   OH256781   4.666   4.301   3.307  0.0233 -0.7289 -0.2143
11789TIP3    H156782   4.677   4.261   3.221 -1.7308 -0.4783 -0.5782
11789TIP3    H256783   4.694   4.392   3.295 -1.7642 -0.2360 -0.9950
11790TIP3   OH256784   6.649   4.706   3.821  0.2526  0.5412 -0.4824
11790TIP3    H156785   6.712   4.678   3.755  1.1167  0.9238  0.1665
11790TIP3    H256786   6.682   4.671   3.903 -0.5622  0.4608 -0.1777
11791TIP3   OH256787   3.097   4.576  11.965  0.3278  0.0898  0.5539
11791TIP3    H156788   3.012   4.608  11.996 -0.2458 -0.9359  0.0796
11791TIP3    H256789   3.085   4.563  11.871  0.7021 -0.9757  0.6388
11792TIP3   OH256790   2.289   4.280   5.192  0.5805  0.0930 -0.0991
11792TIP3    H156791   2.281   4.374   5.208  1.0995  0.0126  0.6765
11792TIP3    H256792   2.325   4.273   5.104  2.0075  0.6621  0.4084
11793TIP3   OH256793   6.255   3.322  15.271 -0.7447  0.5570 -0.4487
11793TIP3    H156794   6.217   3.288  15.351 -1.3428  1.6065 -0.2659
11793TIP3    H256795   6.308   3.397  15.299  1.5674 -0.8842 -0.6872
11794TIP3   OH256796   2.275   3.877   1.507 -0.2218  0.3604 -0.5560
11794TIP3    H156797   2.206   3.814   1.487 -1.2338  0.7843  1.3828
11794TIP3    H256798   2.310   3.850   1.592  0.1233  1.7238 -0.2286
11795TIP3   OH256799   3.503   2.941   1.210  0.3088 -0.3853 -0.0995
11795TIP3    H156800   3.429   2.915   1.155  0.1482 -2.6964  1.1043
11795TIP3    H256801   3.552   2.860   1.225  1.6079  0.6032  1.3219
11796TIP3   OH256802   1.537   5.965   4.277  0.1874 -0.4061 -0.5088
11796TIP3    H156803   1.543   5.911   4.198 -1.1172 -2.8424  0.9347
11796TIP3    H256804   1.587   5.916   4.342 -0.6661  0.3543  0.7548
11797TIP3   OH256805   1.732   4.792   3.658  0.6426 -0.3511  0.2052
11797TIP3    H156806   1.712   4.796   3.564  0.4635  0.9089  0.2777
11797TIP3    H256807   1.827   4.801   3.663  0.7310 -1.1655  0.1172
11798TIP3   OH256808   1.984   3.950  10.592  0.3513 -0.0239  0.1339
11798TIP3    H156809   2.071   3.928  10.625  1.2631 -0.2738 -2.1798
11798TIP3    H256810   1.992   4.039  10.559  0.4181 -0.7280 -1.9475
11799TIP3   OH256811   3.095   1.906   0.037  0.4230 -0.4612  0.4991
11799TIP3    H156812   3.126   1.996   0.051 -0.2938 -0.0933 -0.1846
11799TIP3    H256813   3.105   1.892  -0.057 -1.2910 -0.3890  0.2782
11800TIP3   OH256814   4.584   0.156   6.126  0.2104 -0.1547 -0.2341
11800TIP3    H156815   4.614   0.089   6.188  0.9853 -1.2303 -1.7114
11800TIP3    H256816   4.655   0.163   6.061 -0.6731  0.7565 -1.1447
11801TIP3   OH256817   4.480   5.873   0.926 -0.6879 -0.1077 -0.1344
11801TIP3    H156818   4.496   5.913   0.840  2.1400  0.8497  0.7092
11801TIP3    H256819   4.416   5.930   0.967 -0.5316  0.6201 -0.8599
11802TIP3   OH256820   6.489   6.505   1.018 -0.1517 -0.0830 -0.7240
11802TIP3    H156821   6.525   6.591   1.037 -2.3255  0.6222  0.5721
11802TIP3    H256822   6.449   6.515   0.931 -0.7959  0.3909 -0.3853
11803TIP3   OH256823   4.640   2.007   4.340  0.0033 -0.3864 -0.3186
11803TIP3    H156824   4.694   1.929   4.330  0.7491 -0.1701  1.4818
11803TIP3    H256825   4.591   1.992   4.421 -0.1857  0.8012 -0.1857
11804TIP3   OH256826   1.690   3.744   5.782 -0.3722  0.2476 -0.0167
11804TIP3    H156827   1.714   3.790   5.863  0.0562  2.3831 -1.2987
11804TIP3    H256828   1.605   3.781   5.758 -0.7392 -0.7515 -0.2956
11805TIP3   OH256829   2.618   5.378  13.976  0.3269  0.0258  0.0284
11805TIP3    H156830   2.608   5.451  13.915  0.0793  1.4249  1.6813
11805TIP3    H256831   2.698   5.398  14.024  0.4880 -1.0246  0.2180
11806TIP3   OH256832   4.575   4.345  14.688  0.3085 -0.6783  0.0306
11806TIP3    H156833   4.524   4.333  14.608  0.6019 -1.3544 -0.0598
11806TIP3    H256834   4.536   4.422  14.730  1.0899  0.5904 -1.4662
11807TIP3   OH256835   2.241   4.302  14.030  0.1995 -0.5718 -0.3047
11807TIP3    H156836   2.201   4.362  14.094 -0.2243 -1.3503  0.1739
11807TIP3    H256837   2.280   4.360  13.965  1.4605  0.2912  1.1342
11808TIP3   OH256838   3.882   5.106  14.525 -0.1759  0.2288 -0.2633
11808TIP3    H156839   3.847   5.191  14.550 -2.1831 -0.7869  0.6015
11808TIP3    H256840   3.895   5.060  14.608 -1.6264 -1.2086 -0.7899
11809TIP3   OH256841   3.863   4.141   0.168  0.1658 -0.2512 -0.3823
11809TIP3    H156842   3.957   4.124   0.167  0.1770 -0.2207 -1.1410
11809TIP3    H256843   3.856   4.235   0.187  0.3211 -0.1446 -0.8240
11810TIP3   OH256844   3.571   6.143  14.584 -0.1300  0.5510  0.0072
11810TIP3    H156845   3.644   6.084  14.565 -0.2337  0.6124 -0.6001
11810TIP3    H256846   3.495   6.099  14.546 -0.5932  0.0082  1.4891
11811TIP3   OH256847   3.262   2.236   0.773 -0.7043  0.0066 -0.1360
11811TIP3    H156848   3.192   2.179   0.741 -0.3325  0.0253 -1.0191
11811TIP3    H256849   3.289   2.196   0.855  0.4538 -1.9255 -1.3706
11812TIP3   OH256850   0.398   6.611  14.288  0.0475 -0.4174 -0.8189
11812TIP3    H156851   0.385   6.701  14.318  1.0434 -0.0451 -1.4332
11812TIP3    H256852   0.340   6.603  14.213 -2.2489 -1.2675  0.9439
11813TIP3   OH256853   3.927   2.370  12.591  0.1502  0.0517 -0.4101
11813TIP3    H156854   3.915   2.462  12.568 -1.6564  0.1784  0.8280
11813TIP3    H256855   3.992   2.372  12.662 -0.0169  0.4097 -0.2636
11814TIP3   OH256856   1.758   2.933   1.833 -0.9163 -0.5531  0.1480
11814TIP3    H156857   1.706   3.012   1.819  0.3650  0.6215  1.6046
11814TIP3    H256858   1.849   2.962   1.829 -0.4197 -1.7382  1.6709
11815TIP3   OH256859   3.847   5.137   3.183 -0.0336  0.1648  0.5359
11815TIP3    H156860   3.867   5.120   3.275  2.1517  1.6333  0.4066
11815TIP3    H256861   3.787   5.211   3.185 -0.4143 -0.1449  0.7823
11816TIP3   OH256862   3.520   4.663  12.014  0.4677 -0.1200  0.1999
11816TIP3    H156863   3.510   4.583  11.961  0.5553  0.9003 -1.4413
11816TIP3    H256864   3.505   4.634  12.104  0.9525 -2.0655 -0.2922
11817TIP3   OH256865   4.793   3.093  11.360 -0.7754  0.3062 -0.5123
11817TIP3    H156866   4.713   3.082  11.309 -0.8608  2.1245 -0.8595
11817TIP3    H256867   4.777   3.173  11.412  1.2669  1.4927 -1.5643
11818TIP3   OH256868   3.453   4.662   0.403  0.4969 -0.0061  0.0174
11818TIP3    H156869   3.460   4.575   0.444  0.8687 -1.2463 -2.4445
11818TIP3    H256870   3.529   4.709   0.435  1.3104 -1.2528  0.0018
11819TIP3   OH256871   5.975   2.378   4.696  0.8693 -0.2638  0.5553
11819TIP3    H156872   6.023   2.428   4.630 -0.1274 -0.5515 -0.4187
11819TIP3    H256873   6.016   2.291   4.695  1.5206  0.0404  1.0476
11820TIP3   OH256874   0.860   5.761  14.796  0.0520 -0.1202  0.1017
11820TIP3    H156875   0.773   5.780  14.829  0.3071  0.8888  0.2136
11820TIP3    H256876   0.872   5.820  14.722  1.0539  0.5552  0.7743
11821TIP3   OH256877   3.276   3.670  13.550  0.6590  0.1611  0.5697
11821TIP3    H156878   3.355   3.625  13.520 -0.3664 -2.1267  1.1085
11821TIP3    H256879   3.245   3.718  13.473  1.2433 -0.9251 -0.3805
11822TIP3   OH256880   1.328   2.874   5.553  0.2231  0.6651  0.2426
11822TIP3    H156881   1.281   2.829   5.623 -2.8003 -0.6039 -2.3391
11822TIP3    H256882   1.273   2.949   5.532  1.8700  1.9118  0.1449
11823TIP3   OH256883   5.410   3.627  16.888  0.4224 -0.0342 -0.1945
11823TIP3    H156884   5.323   3.612  16.924 -0.3838  2.6743 -0.7777
11823TIP3    H256885   5.468   3.570  16.940 -1.5510 -1.3884  0.6576
11824TIP3   OH256886   0.676   1.470  11.927  0.6916 -0.3668 -0.9362
11824TIP3    H156887   0.657   1.543  11.985 -0.1508 -0.6375 -0.8572
11824TIP3    H256888   0.670   1.506  11.838 -0.6760 -0.5331 -0.9327
11825TIP3   OH256889   6.760   5.593   3.218 -0.2883  0.3301 -0.1771
11825TIP3    H156890   6.731   5.673   3.175 -3.8992 -0.6264  0.1287
11825TIP3    H256891   6.781   5.620   3.308  0.3619  1.1724 -0.5670
11826TIP3   OH256892   1.874   1.553   3.205 -0.7526  0.0841 -0.2869
11826TIP3    H156893   1.938   1.534   3.137 -1.2820 -0.3606 -0.6664
11826TIP3    H256894   1.923   1.548   3.287  0.1730  1.8537 -0.6960
11827TIP3   OH256895   4.434   2.666   2.659  0.7673 -0.0118  0.2161
11827TIP3    H156896   4.348   2.707   2.669  0.5467 -0.3171 -0.3517
11827TIP3    H256897   4.419   2.574   2.680  0.5970 -0.3821 -1.3751
11828TIP3   OH256898   0.453   6.235   0.528  0.2506  0.0082 -0.1086
11828TIP3    H156899   0.479   6.148   0.558 -0.5406 -0.4406 -0.7025
11828TIP3    H256900   0.423   6.222   0.438  1.1446  1.0799 -0.5995
11829TIP3   OH256901   0.782   2.654   4.842  0.1320 -0.0763  0.6843
11829TIP3    H156902   0.863   2.705   4.846  0.4046 -0.4515  0.0455
11829TIP3    H256903   0.780   2.605   4.925  1.2441 -1.0886  0.1357
11830TIP3   OH256904   6.778   3.881   0.742  0.3599  0.8264  0.4817
11830TIP3    H156905   6.705   3.887   0.804  1.3724  0.3230  1.7623
11830TIP3    H256906   6.817   3.968   0.742 -0.6390  1.3087 -0.7599
11831TIP3   OH256907   0.526   4.094  11.982 -0.4557 -1.0639 -0.1591
11831TIP3    H156908   0.539   4.168  12.040 -1.8281  0.0981 -1.2697
11831TIP3    H256909   0.439   4.106  11.946 -0.4220 -2.8168 -0.9611
11832TIP3   OH256910   5.067   1.527  13.350  0.2322 -0.5950  0.1521
11832TIP3    H156911   5.123   1.554  13.422  2.8391 -0.2284 -1.8694
11832TIP3    H256912   5.080   1.433  13.343  0.6362 -0.5080 -0.3256
11833TIP3   OH256913   3.836   4.045   4.030 -0.2647  0.4675 -0.1269
11833TIP3    H156914   3.795   3.967   3.992  0.6595 -0.2620  0.3333
11833TIP3    H256915   3.808   4.117   3.974  0.5654 -0.4765 -1.8084
11834TIP3   OH256916   0.943   0.461  12.511 -0.3796  0.4744 -0.6108
11834TIP3    H156917   0.850   0.473  12.493 -0.6208  0.2285  0.3953
11834TIP3    H256918   0.971   0.544  12.549 -0.0710  0.7106 -1.3390
11835TIP3   OH256919   5.309   4.243  14.044 -0.3741  0.1465 -0.0364
11835TIP3    H156920   5.403   4.225  14.050 -0.6394 -1.1879  0.4428
11835TIP3    H256921   5.304   4.330  14.003  1.0777  0.6880  0.8627
11836TIP3   OH256922   1.990   6.578  14.940  0.0218  0.2245 -0.8171
11836TIP3    H156923   2.057   6.608  14.880  2.0052 -1.4375  0.4109
11836TIP3    H256924   2.039   6.535  15.011 -2.2901  0.1007  0.8251
11837TIP3   OH256925   6.373   3.820  15.560 -0.2092  0.6257 -0.0321
11837TIP3    H156926   6.433   3.768  15.614 -0.2814  0.7983  0.2137
11837TIP3    H256927   6.400   3.910  15.573 -0.1821  0.6631 -0.3417
11838TIP3   OH256928   3.165   3.617  13.232  0.1276 -0.4387 -0.6887
11838TIP3    H156929   3.097   3.594  13.169  0.6501 -2.2585 -0.6631
11838TIP3    H256930   3.239   3.562  13.208  1.3433  0.9463 -0.2424
11839TIP3   OH256931   1.043   3.187   5.369 -0.1833  0.0996  0.2495
11839TIP3    H156932   1.016   3.198   5.278  0.1555  0.2604  0.1671
11839TIP3    H256933   0.960   3.180   5.417 -0.4292  1.6675  0.1319
11840TIP3   OH256934   1.007   1.710   0.214 -0.3911  0.1583 -0.8186
11840TIP3    H156935   1.006   1.802   0.241  1.0555 -0.2481  0.7973
11840TIP3    H256936   0.946   1.667   0.273  1.1627 -0.3748  0.4732
11841TIP3   OH256937   6.215   4.165   2.835  0.9508  0.0588 -0.6094
11841TIP3    H156938   6.161   4.244   2.844  0.3656 -0.1827 -1.7402
11841TIP3    H256939   6.287   4.191   2.777  0.1664 -0.4900 -1.8745
11842TIP3   OH256940   6.676   2.131  11.929 -0.4339  0.7250 -0.4589
11842TIP3    H156941   6.763   2.126  11.969 -0.4415  0.4499 -0.4758
11842TIP3    H256942   6.616   2.138  12.004 -0.5498 -1.0367 -0.3437
11843TIP3   OH256943   1.417   3.732   5.746 -0.6364  0.3582  0.0658
11843TIP3    H156944   1.408   3.639   5.767 -1.0452  0.4319  0.2253
11843TIP3    H256945   1.337   3.772   5.781 -0.1784  0.8684  0.5473
11844TIP3   OH256946   4.143   0.924  14.328  0.5995 -0.1501 -0.1077
11844TIP3    H156947   4.191   0.938  14.410  0.6152 -0.3646 -0.0786
11844TIP3    H256948   4.212   0.905  14.264  0.6697  1.0623 -0.4066
11845TIP3   OH256949   1.362   2.122   3.921 -0.3170  0.3103 -0.1382
11845TIP3    H156950   1.335   2.173   3.998 -1.8809 -0.2115 -0.2900
11845TIP3    H256951   1.292   2.137   3.858  0.8259  0.5238 -1.3911
11846TIP3   OH256952   1.412   0.792  16.479  0.2333 -0.0395  0.0338
11846TIP3    H156953   1.441   0.703  16.495  0.9009 -0.1795 -1.6649
11846TIP3    H256954   1.465   0.846  16.537  0.0472 -0.7070  0.8456
11847TIP3   OH256955   0.965   6.399  16.916 -0.1437 -0.9083 -0.2392
11847TIP3    H156956   1.037   6.411  16.855  0.4959 -0.7070  0.5409
11847TIP3    H256957   0.989   6.451  16.993 -2.0770  0.8378 -0.7284
11848TIP3   OH256958   6.453   4.331   3.222  0.5215  0.2766  0.1565
11848TIP3    H156959   6.505   4.363   3.296  0.1447 -0.8437  0.9439
11848TIP3    H256960   6.518   4.300   3.159  0.8762  2.2055 -0.4789
11849TIP3   OH256961   1.710   1.804  12.717 -0.0410 -0.2332 -0.3616
11849TIP3    H156962   1.620   1.834  12.706 -0.0503  0.2461  0.8245
11849TIP3    H256963   1.705   1.734  12.782  0.7574  2.1765  2.5490
11850TIP3   OH256964   3.064   2.109  14.405 -0.3280 -0.4461  1.0929
11850TIP3    H156965   3.072   2.070  14.318  0.1197  0.4268  0.7264
11850TIP3    H256966   2.971   2.126  14.415 -0.2188  0.8293  0.1413
11851TIP3   OH256967   6.153   5.317   0.365  0.3449  0.2554  0.0888
11851TIP3    H156968   6.133   5.268   0.445  2.2887 -2.0965 -0.7358
11851TIP3    H256969   6.077   5.300   0.308 -0.0819  0.1671  0.6669
11852TIP3   OH256970   5.429   5.306   5.720 -0.4329 -0.0056  0.2865
11852TIP3    H156971   5.444   5.304   5.814 -0.2188 -0.3922  0.2467
11852TIP3    H256972   5.404   5.396   5.701 -1.0542 -0.0724  0.7948
11853TIP3   OH256973   3.851   1.678  10.914  0.0109 -0.4892  0.4038
11853TIP3    H156974   3.874   1.612  10.850  0.0181 -0.2747  0.1839
11853TIP3    H256975   3.778   1.726  10.875 -0.4340 -0.7872  0.8438
11854TIP3   OH256976   3.752   1.388  12.020  0.3303  1.1986  0.1870
11854TIP3    H156977   3.780   1.362  12.108  2.2951  2.4406 -0.0096
11854TIP3    H256978   3.656   1.379  12.022  0.5355 -1.9848  1.3592
11855TIP3   OH256979   4.997   0.335  13.087  0.3527  0.6988  0.1759
11855TIP3    H156980   5.053   0.260  13.106  1.9376  1.6652 -0.4792
11855TIP3    H256981   5.042   0.409  13.127 -1.2018  1.3135  0.8499
11856TIP3   OH256982   1.928   3.572  15.574  0.0475 -0.2063 -0.1651
11856TIP3    H156983   2.007   3.530  15.540 -1.1360 -1.8002 -1.1375
11856TIP3    H256984   1.913   3.529  15.659 -0.6259 -1.0875 -0.7136
11857TIP3   OH256985   2.958   5.105   6.225 -0.6165  0.7554  0.0228
11857TIP3    H156986   2.866   5.090   6.246 -0.9115  2.1400 -0.1923
11857TIP3    H256987   3.000   5.121   6.309 -0.1406 -1.7848  0.3508
11858TIP3   OH256988   0.843   0.953   6.540 -0.1571  0.1750  0.4926
11858TIP3    H156989   0.808   0.888   6.601 -0.3460 -0.2997 -0.1172
11858TIP3    H256990   0.788   1.031   6.555 -0.3437 -0.0047  0.7713
11859TIP3   OH256991   4.766   2.008  15.565  0.1240 -0.5574 -0.2808
11859TIP3    H156992   4.779   2.035  15.655  1.2658  1.3354 -0.9592
11859TIP3    H256993   4.675   2.029  15.546  0.6289  1.7556 -0.3793
11860TIP3   OH256994   2.900   3.123   3.052 -0.0328 -0.0351  0.8835
11860TIP3    H156995   2.829   3.143   3.113  0.0068 -0.7847  1.1993
11860TIP3    H256996   2.926   3.207   3.015 -2.1689  0.0965 -0.4726
11861TIP3   OH256997   1.030   6.786   6.209  0.1985 -0.3248 -0.2567
11861TIP3    H156998   1.108   6.837   6.235 -0.5903  0.3991  0.7701
11861TIP3    H256999   0.959   6.826   6.258 -0.8564 -0.9061 -1.2775
11862TIP3   OH257000   1.940   2.322   1.973 -0.0402 -0.7705  0.1035
11862TIP3    H157001   1.903   2.361   1.894 -1.0282 -1.3387  0.2752
11862TIP3    H257002   1.870   2.267   2.008  0.3518 -0.4621  1.4208
11863TIP3   OH257003   3.546   1.624  14.414 -0.0957 -0.5497 -0.0968
11863TIP3    H157004   3.590   1.696  14.458 -1.7668  0.3937  0.0877
11863TIP3    H257005   3.604   1.549  14.428  0.0318 -0.0210  2.6703
11864TIP3   OH257006   5.841   4.843   4.376 -0.3705 -0.2752  0.1683
11864TIP3    H157007   5.833   4.755   4.341 -0.8471 -0.5585  0.9738
11864TIP3    H257008   5.936   4.860   4.378 -0.3186 -0.4003 -0.8621
11865TIP3   OH257009   4.970   1.483   1.103  0.0266 -0.2435  0.1810
11865TIP3    H157010   4.881   1.518   1.105  0.4209  0.9205 -1.1582
11865TIP3    H257011   5.019   1.540   1.162  0.2370  0.1905 -0.4081
11866TIP3   OH257012   3.262   5.349  16.282  0.5408  0.1577 -0.4180
11866TIP3    H157013   3.253   5.336  16.377 -0.8049 -0.8536 -0.6652
11866TIP3    H257014   3.321   5.279  16.254 -0.2381 -0.4749 -0.5256
11867TIP3   OH257015   2.893   1.673   3.767  0.2489 -0.1102 -0.1030
11867TIP3    H157016   2.888   1.583   3.735 -0.2723  0.5524 -2.0668
11867TIP3    H257017   2.835   1.675   3.843 -1.7762 -0.8952 -1.5429
11868TIP3   OH257018   0.611   3.151  14.943  0.1704  0.1004 -0.2011
11868TIP3    H157019   0.650   3.239  14.943 -0.7495  0.5224  0.1239
11868TIP3    H257020   0.585   3.136  15.033 -0.6724 -0.0526 -0.4665
11869TIP3   OH257021   1.611   6.297   0.937  0.4864 -0.0062  0.5035
11869TIP3    H157022   1.566   6.381   0.923 -1.8969 -1.4660 -1.2919
11869TIP3    H257023   1.699   6.311   0.901  0.5567  2.0234  1.2973
11870TIP3   OH257024   0.107   6.698   1.543 -0.0157  0.0913 -0.3982
11870TIP3    H157025   0.037   6.725   1.484  0.0445 -1.5573 -1.2942
11870TIP3    H257026   0.063   6.673   1.624 -0.4818 -0.8198 -0.9174
11871TIP3   OH257027   2.402   0.506   4.107  0.0482  0.2909 -0.5072
11871TIP3    H157028   2.421   0.599   4.101 -1.0423  0.4732 -1.4953
11871TIP3    H257029   2.307   0.501   4.118  0.3988 -0.6195  3.4045
11872TIP3   OH257030   5.050   0.884   1.710 -0.3542  0.1996 -0.4380
11872TIP3    H157031   5.081   0.857   1.624  0.7999 -1.4363  0.4433
11872TIP3    H257032   5.112   0.952   1.737  1.6759 -1.9491  0.6410
11873TIP3   OH257033   6.314   0.414  14.462  0.3147  0.6196 -0.4014
11873TIP3    H157034   6.359   0.421  14.546 -0.2591  2.1888 -0.1881
11873TIP3    H257035   6.354   0.482  14.408  0.2750  0.0039 -1.2215
11874TIP3   OH257036   0.532   3.793  11.648 -0.5943  0.1607  0.5510
11874TIP3    H157037   0.478   3.814  11.571  1.2707  0.3618 -0.7698
11874TIP3    H257038   0.471   3.752  11.709 -2.1637  0.0300 -1.0067
11875TIP3   OH257039   5.165   5.603   1.289  0.1351  0.4071 -0.1719
11875TIP3    H157040   5.253   5.634   1.264  1.1527 -0.3659  2.1733
11875TIP3    H257041   5.106   5.666   1.247  1.7236  0.6304 -2.3082
11876TIP3   OH257042   4.153   6.479   4.729 -0.1038  0.4503  0.1961
11876TIP3    H157043   4.217   6.532   4.681  0.8373 -1.4257 -0.7389
11876TIP3    H257044   4.069   6.519   4.707  0.5350  1.4154 -0.6331
11877TIP3   OH257045   3.464   0.537  11.185  0.1863 -0.5227  0.1532
11877TIP3    H157046   3.545   0.500  11.220  0.2315  0.5231  1.1951
11877TIP3    H257047   3.411   0.557  11.263 -0.6816 -0.3072 -0.4765
11878TIP3   OH257048   2.111   6.050  16.517 -0.5332  0.0641  0.0605
11878TIP3    H157049   2.170   6.101  16.462 -2.5949  0.6735 -1.7629
11878TIP3    H257050   2.038   6.027  16.459 -1.0760 -2.5447  1.5849
11879TIP3   OH257051   2.541   2.367  14.260 -0.1064  0.3655  0.3493
11879TIP3    H157052   2.477   2.353  14.191  1.5156  1.5377 -1.4945
11879TIP3    H257053   2.604   2.429  14.223  1.5034  0.1137  2.4478
11880TIP3   OH257054   6.235   2.503  11.264  0.0807  0.8334 -0.0799
11880TIP3    H157055   6.162   2.503  11.203 -1.3141 -2.3329  1.3860
11880TIP3    H257056   6.196   2.525  11.349  0.9412 -0.1020  0.5843
11881TIP3   OH257057   6.264   3.289   4.640 -0.0119 -0.0395  0.0146
11881TIP3    H157058   6.287   3.381   4.631 -0.8388  0.1387 -0.3706
11881TIP3    H257059   6.178   3.289   4.682 -0.5580 -0.5812 -1.0594
11882TIP3   OH257060   2.456   5.762   5.628 -0.2664 -0.3837  0.2135
11882TIP3    H157061   2.386   5.734   5.569  0.1820 -4.7402  1.3833
11882TIP3    H257062   2.424   5.737   5.715  2.2473 -1.6201  0.8716
11883TIP3   OH257063   4.958   5.243   2.980 -0.4943  0.1408 -0.3575
11883TIP3    H157064   4.952   5.226   3.074 -0.5214  0.3523 -0.3195
11883TIP3    H257065   4.922   5.331   2.969 -0.0924  0.2920 -0.5089
11884TIP3   OH257066   0.282   4.445  13.629  0.8223  0.4601  0.0175
11884TIP3    H157067   0.211   4.428  13.567  0.5525  1.5120  0.0276
11884TIP3    H257068   0.245   4.422  13.714  0.4104  1.2085  0.0486
11885TIP3   OH257069   0.369   3.286  14.420 -0.3899 -0.9406 -0.1615
11885TIP3    H157070   0.291   3.317  14.466 -0.6848 -1.3739 -0.3666
11885TIP3    H257071   0.429   3.360  14.423 -0.7533 -0.6528  0.1254
11886TIP3   OH257072   3.892   4.376   3.633  0.2998 -0.2429 -0.0186
11886TIP3    H157073   3.853   4.443   3.689 -0.6901 -0.1461 -0.7853
11886TIP3    H257074   3.836   4.299   3.644  0.3784 -0.3743 -0.4968
11887TIP3   OH257075   2.359   3.784  15.813 -0.3219  0.2449 -0.3753
11887TIP3    H157076   2.376   3.748  15.900 -0.1511  0.6649 -0.2324
11887TIP3    H257077   2.266   3.766  15.798 -1.0085  2.3268  0.9437
11888TIP3   OH257078   1.043   3.677  14.149 -0.9901 -0.0902 -0.0377
11888TIP3    H157079   0.950   3.695  14.159 -1.4301 -1.4439 -1.3093
11888TIP3    H257080   1.076   3.748  14.094 -0.9617  1.1054  1.4705
11889TIP3   OH257081   0.869   3.819   3.675  0.5823 -0.1092  0.1557
11889TIP3    H157082   0.959   3.793   3.696  0.7678  1.4042  1.4558
11889TIP3    H257083   0.860   3.906   3.715 -0.8248  0.6387 -1.6770
11890TIP3   OH257084   1.760   3.501  17.034  0.0313 -0.4171 -0.2683
11890TIP3    H157085   1.703   3.527  17.105 -2.5083  1.9481 -2.9066
11890TIP3    H257086   1.718   3.424  16.996 -0.1539 -0.0719 -0.7842
11891TIP3   OH257087   2.273   0.593   1.733  0.1366 -0.0707  0.1100
11891TIP3    H157088   2.366   0.570   1.732  0.4093  0.9878 -0.6047
11891TIP3    H257089   2.264   0.652   1.808  0.4846  1.4371 -0.9825
11892TIP3   OH257090   1.849   4.045   0.779  0.5574 -0.2140  0.0120
11892TIP3    H157091   1.824   4.039   0.687  1.0280 -1.8786 -0.0339
11892TIP3    H257092   1.768   4.068   0.824 -0.1972 -1.5362 -0.5911
11893TIP3   OH257093   5.262   6.281  14.537  0.0314 -0.9583  0.0768
11893TIP3    H157094   5.261   6.352  14.472  0.7498  0.7165  1.8019
11893TIP3    H257095   5.170   6.263  14.554 -0.1604 -0.9180 -0.8549
11894TIP3   OH257096   0.001   4.099   2.712  0.1975  0.0839  0.3842
11894TIP3    H157097   0.028   4.011   2.739  0.1786  0.0390  0.2562
11894TIP3    H257098   0.063   4.158   2.755  1.3196 -0.0840 -0.9726
11895TIP3   OH257099   6.643   4.413   0.292 -0.7083 -0.2836  0.0959
11895TIP3    H157100   6.688   4.368   0.364 -2.1134  1.2565  2.0439
11895TIP3    H257101   6.591   4.345   0.250  0.2009 -1.2363  0.4765
11896TIP3   OH257102   6.566   2.103   3.616 -0.5137 -0.3349  0.1581
11896TIP3    H157103   6.488   2.090   3.562 -1.3124  0.4817  1.0597
11896TIP3    H257104   6.542   2.067   3.701  0.4922 -1.0339  0.1544
11897TIP3   OH257105   1.043   1.376  12.344  0.1039 -0.1980  0.4432
11897TIP3    H157106   1.069   1.362  12.253 -3.4873 -2.1400 -0.4699
11897TIP3    H257107   1.000   1.462  12.343 -1.7005 -1.0605 -0.2494
11898TIP3   OH257108   5.482   4.374   1.988 -0.3088 -0.2509 -0.0512
11898TIP3    H157109   5.566   4.389   2.031  0.0873 -0.7952 -0.6295
11898TIP3    H257110   5.504   4.355   1.897 -0.9795 -1.3135 -0.0110
11899TIP3   OH257111   1.246   1.932   1.981 -0.1580 -0.3044 -0.0432
11899TIP3    H157112   1.180   1.960   2.044  0.8352  1.3790  0.2926
11899TIP3    H257113   1.320   1.991   1.994  0.1894 -0.0360 -2.5900
11900TIP3   OH257114   1.340   3.341  15.648  0.2214  0.5839  0.2756
11900TIP3    H157115   1.318   3.301  15.564  0.3262 -0.8905  0.9233
11900TIP3    H257116   1.287   3.421  15.651  2.0262  2.0726 -2.2716
11901TIP3   OH257117   2.623   4.356   2.098 -0.1148  0.5418  0.1195
11901TIP3    H157118   2.605   4.450   2.093 -1.8973  0.2468  0.4307
11901TIP3    H257119   2.537   4.315   2.096  0.6595 -1.2626 -2.7425
11902TIP3   OH257120   6.247   4.481   2.805  0.3871 -0.4825  0.4147
11902TIP3    H157121   6.183   4.417   2.837  1.1869 -1.5887 -0.1306
11902TIP3    H257122   6.294   4.435   2.736  2.1888  0.0917  1.2106
11903TIP3   OH257123   2.917   6.575   2.873 -0.5262  0.2717 -0.1687
11903TIP3    H157124   2.889   6.553   2.962  0.0198  1.1659  0.2395
11903TIP3    H257125   3.002   6.532   2.863 -0.2228  0.8131  0.0348
11904TIP3   OH257126   3.534   4.874  14.961  0.0095 -0.3169  0.4433
11904TIP3    H157127   3.462   4.812  14.977  0.1231 -0.4668  0.3768
11904TIP3    H257128   3.590   4.866  15.038 -1.4750  1.8429  1.8562
11905TIP3   OH257129   2.805   5.462   1.788  0.3009  0.4543  0.2602
11905TIP3    H157130   2.789   5.516   1.866  0.7343  1.1038 -0.0940
11905TIP3    H257131   2.762   5.379   1.807  0.4887  0.5705  1.2403
11906TIP3   OH257132   1.516   1.070  14.605 -0.1215 -0.2271 -0.5149
11906TIP3    H157133   1.480   1.101  14.688 -0.1822 -0.5939 -0.4044
11906TIP3    H257134   1.464   0.993  14.583  0.6641 -0.8325 -0.3017
11907TIP3   OH257135   1.461   5.874  17.149  0.4259  0.3049  0.7875
11907TIP3    H157136   1.393   5.903  17.210  0.4027 -1.9038  1.8944
11907TIP3    H257137   1.416   5.869  17.064  0.2125  2.4426  0.7135
11908TIP3   OH257138   5.454   0.956   0.501 -0.4994  0.0595  0.1819
11908TIP3    H157139   5.542   0.947   0.539 -0.4460 -1.2550 -0.2142
11908TIP3    H257140   5.455   1.043   0.461  0.7300 -0.0536 -0.0758
11909TIP3   OH257141   4.764   3.616  16.735  0.0690  0.1612  0.3281
11909TIP3    H157142   4.773   3.530  16.694  0.3303  0.6382 -0.6421
11909TIP3    H257143   4.681   3.611  16.783 -0.6656 -0.1610 -0.9201
11910TIP3   OH257144   4.732   0.859  16.530  0.6046 -0.5218  0.2209
11910TIP3    H157145   4.732   0.860  16.626  1.1885 -0.3403  0.2246
11910TIP3    H257146   4.815   0.900  16.506 -0.0777  0.5576 -0.3851
11911TIP3   OH257147   4.244   2.547   4.050 -0.0330  0.6149  0.1742
11911TIP3    H157148   4.181   2.504   3.992 -0.1463  0.6113  0.2982
11911TIP3    H257149   4.194   2.564   4.130  0.0570  0.8287  0.1853
11912TIP3   OH257150   0.199   4.287  14.988  0.1775  0.4289  0.4681
11912TIP3    H157151   0.143   4.363  14.978 -0.7859 -0.5073 -1.7928
11912TIP3    H257152   0.237   4.273  14.901  2.1173 -0.3486  1.3762
11913TIP3   OH257153   5.681   2.033  13.974 -0.2033 -0.0182  0.0312
11913TIP3    H157154   5.702   2.126  13.987  0.6530  0.1634 -2.2492
11913TIP3    H257155   5.766   1.989  13.982 -0.9508 -1.1551  4.2894
11914TIP3   OH257156   2.463   0.636  13.720 -0.3728 -0.0710 -0.5267
11914TIP3    H157157   2.371   0.636  13.692 -0.6272 -1.2578  0.2212
11914TIP3    H257158   2.498   0.553  13.688  0.1262 -0.1281  0.1420
11915TIP3   OH257159   4.259   2.457   2.703 -0.3053 -0.0149  0.1052
11915TIP3    H157160   4.252   2.465   2.799 -2.5514 -1.3001  0.1258
11915TIP3    H257161   4.168   2.459   2.673  0.2473 -1.4717 -1.8386
11916TIP3   OH257162   0.341   4.382  15.978 -0.3721 -0.2246 -0.5748
11916TIP3    H157163   0.418   4.339  15.941 -0.6014  0.3363 -1.7500
11916TIP3    H257164   0.358   4.386  16.072  2.5692  2.7710 -1.0344
11917TIP3   OH257165   5.317   2.831  11.626 -0.2206 -0.1035  0.5883
11917TIP3    H157166   5.340   2.764  11.691 -0.6469 -0.3039  0.5365
11917TIP3    H257167   5.401   2.866  11.597 -0.0275  1.2780  2.5827
11918TIP3   OH257168   6.362   5.865  17.195 -0.2316  0.3234  0.4801
11918TIP3    H157169   6.409   5.948  17.184  0.2510  0.1496  1.2041
11918TIP3    H257170   6.425   5.798  17.170 -1.0855  0.2082 -1.5765
11919TIP3   OH257171   4.053   0.255   0.174  0.1595 -0.1614 -0.0646
11919TIP3    H157172   4.141   0.283   0.149 -0.0004 -0.0169 -0.4851
11919TIP3    H257173   4.063   0.164   0.201  0.3825 -0.2504 -0.4390
11920TIP3   OH257174   5.842   1.590  11.962 -0.4791  0.4120  0.2674
11920TIP3    H157175   5.796   1.630  12.035  0.8420 -0.4998  1.6703
11920TIP3    H257176   5.781   1.596  11.888 -1.3075  2.6053  1.0661
11921TIP3   OH257177   6.401   4.385  14.224  0.9040  0.3826 -0.7890
11921TIP3    H157178   6.413   4.421  14.136  0.6434  0.8965 -0.6167
11921TIP3    H257179   6.312   4.350  14.225 -0.2313  3.0383  0.1711
11922TIP3   OH257180   5.104   1.261  13.284  0.4610  0.0372 -0.2270
11922TIP3    H157181   5.071   1.193  13.225 -0.4692 -0.4850  0.8676
11922TIP3    H257182   5.194   1.233  13.304 -0.5358 -2.0278  1.7902
11923TIP3   OH257183   1.465   6.230   3.065  0.3253 -0.4214  0.1001
11923TIP3    H157184   1.410   6.171   3.013 -1.8544  0.1626  1.6040
11923TIP3    H257185   1.477   6.185   3.148  0.3854  0.3475  0.5166
11924TIP3   OH257186   0.495   5.739   4.786  0.0069 -0.2959 -0.5410
11924TIP3    H157187   0.562   5.801   4.758  0.1238  0.1388  0.6271
11924TIP3    H257188   0.533   5.653   4.769  1.2502 -0.0715  0.8601
11925TIP3   OH257189   1.413   1.766   3.682  0.5208 -0.2688 -0.2353
11925TIP3    H157190   1.445   1.733   3.766 -0.0372  0.6560  0.3634
11925TIP3    H257191   1.415   1.691   3.623  0.8316 -0.9505  0.6358
11926TIP3   OH257192   0.189   4.491  13.244 -0.2385  0.0638  0.2872
11926TIP3    H157193   0.201   4.553  13.315  0.1690  0.4080 -0.0792
11926TIP3    H257194   0.121   4.431  13.275 -1.1313  1.1028  0.3676
11927TIP3   OH257195   2.666   3.198  11.679 -0.0089 -0.6245  0.3271
11927TIP3    H157196   2.637   3.131  11.617 -0.2959  0.6915 -1.0109
11927TIP3    H257197   2.588   3.250  11.698  0.6818  0.8185 -0.5882
11928TIP3   OH257198   2.247   4.100   4.745 -0.3343  0.4121 -0.4048
11928TIP3    H157199   2.233   4.015   4.786  0.5092  1.2318  1.7424
11928TIP3    H257200   2.278   4.080   4.657 -0.7263 -1.4775 -0.1501
11929TIP3   OH257201   2.739   2.382   6.171  0.4047  0.1237 -0.2995
11929TIP3    H157202   2.765   2.464   6.213  1.2524 -0.6466  0.7282
11929TIP3    H257203   2.645   2.375   6.189  0.8688 -0.6053  2.3394
11930TIP3   OH257204   3.434   1.977  16.554  0.1749 -0.2154  0.1815
11930TIP3    H157205   3.378   1.899  16.554  0.6378 -0.5785 -1.3983
11930TIP3    H257206   3.514   1.949  16.599  0.3254 -0.6424 -0.3479
11931TIP3   OH257207   2.718   1.596   3.959 -0.4221  0.3465  0.2926
11931TIP3    H157208   2.768   1.545   4.024  0.3819  0.0839 -0.5170
11931TIP3    H257209   2.634   1.549   3.952  0.4932 -1.2063 -0.8113
11932TIP3   OH257210   5.775   4.045  17.101 -0.0744 -0.3030  0.0629
11932TIP3    H157211   5.739   4.117  17.151 -0.1446 -0.5887  0.4263
11932TIP3    H257212   5.765   4.072  17.009 -0.5145 -0.0500  0.1823
11933TIP3   OH257213   4.371   4.144  13.847  0.2433  0.2933 -0.4373
11933TIP3    H157214   4.339   4.234  13.844 -0.7503 -0.0635 -0.9092
11933TIP3    H257215   4.401   4.126  13.758 -0.1984 -0.0660 -0.5137
11934TIP3   OH257216   0.429   5.454  15.235  0.2168  0.0210 -0.0863
11934TIP3    H157217   0.496   5.399  15.276  0.7463  0.3285 -0.5343
11934TIP3    H257218   0.412   5.413  15.151 -1.7463 -1.3045  0.8776
11935TIP3   OH257219   3.049   2.761   6.536 -0.1423 -0.6733  0.0597
11935TIP3    H157220   2.978   2.699   6.522 -1.2650  0.3045  1.2306
11935TIP3    H257221   3.012   2.846   6.512  1.1103 -0.3099 -0.7069
11936TIP3   OH257222   0.868   4.398  12.004  0.0628 -0.1005  0.3181
11936TIP3    H157223   0.887   4.305  12.018 -1.6645 -0.4452  0.5313
11936TIP3    H257224   0.777   4.399  11.973  0.7898  1.3318 -2.0526
11937TIP3   OH257225   6.491   6.361   1.253 -0.5987  0.3837  0.5008
11937TIP3    H157226   6.580   6.325   1.245 -1.2243 -0.9965 -0.5994
11937TIP3    H257227   6.472   6.398   1.167 -1.3077  0.1854  0.5690
11938TIP3   OH257228   5.346   2.822   0.590  0.0369  0.0684  0.4024
11938TIP3    H157229   5.407   2.890   0.617  0.6158  0.3371 -1.4173
11938TIP3    H257230   5.395   2.769   0.527 -1.4277  0.0577 -0.8060
11939TIP3   OH257231   3.507   5.299  10.859  0.3421 -0.4628 -0.7064
11939TIP3    H157232   3.557   5.331  10.784  0.9116 -1.0519 -0.5878
11939TIP3    H257233   3.433   5.252  10.820  0.0645  0.1183 -0.8859
11940TIP3   OH257234   1.789   1.782  13.691  0.1721 -0.6000  0.3522
11940TIP3    H157235   1.817   1.724  13.620  0.0261  0.0466 -0.2497
11940TIP3    H257236   1.708   1.822  13.659 -1.6049 -2.5783  2.1441
11941TIP3   OH257237   6.482   1.575  17.005  0.1184 -0.4849  0.1955
11941TIP3    H157238   6.444   1.520  17.074 -1.5446  0.1135 -0.2154
11941TIP3    H257239   6.556   1.523  16.972 -0.0978 -1.5226  1.2651
11942TIP3   OH257240   4.258   3.361   0.942 -0.5131  0.3056  0.2402
11942TIP3    H157241   4.262   3.455   0.924 -1.3070 -0.0929 -2.4725
11942TIP3    H257242   4.194   3.353   1.013 -1.3030  1.7426 -0.2591
11943TIP3   OH257243   5.855   0.087  13.448  0.0200  0.0785  0.1896
11943TIP3    H157244   5.944   0.105  13.475 -0.2873  0.9149  0.6639
11943TIP3    H257245   5.819   0.033  13.518 -0.6019  1.7843  1.2329
11944TIP3   OH257246   0.505   2.106   2.698 -0.1730  0.1860  0.2840
11944TIP3    H157247   0.557   2.026   2.694 -0.3139  0.0869  0.4201
11944TIP3    H257248   0.548   2.161   2.763 -1.0954 -0.5149  1.5238
11945TIP3   OH257249   1.420   4.974  14.195  0.5407  0.8533  0.2731
11945TIP3    H157250   1.396   4.958  14.286  1.6519 -2.7852  0.1014
11945TIP3    H257251   1.351   4.931  14.144  2.0771 -0.9312 -0.4171
11946TIP3   OH257252   3.130   4.010  11.647  0.0522 -0.1426  0.1121
11946TIP3    H157253   3.145   3.923  11.684 -1.9857 -0.2633  0.7778
11946TIP3    H257254   3.087   3.994  11.563 -1.8376  0.1793  0.9653
11947TIP3   OH257255   2.667   0.428  14.748 -0.0404  0.0926  0.0341
11947TIP3    H157256   2.594   0.450  14.690 -0.0685  1.1068  0.4400
11947TIP3    H257257   2.653   0.336  14.771 -0.5751 -0.0339 -0.7657
11948TIP3   OH257258   6.301   4.366  16.291  0.2889 -0.3145  0.7516
11948TIP3    H157259   6.342   4.452  16.276 -1.8611  0.9862  1.7743
11948TIP3    H257260   6.257   4.346  16.208  0.9059 -0.5183  0.4660
11949TIP3   OH257261   5.380   3.738   5.970  0.6058  0.3917  0.2015
11949TIP3    H157262   5.403   3.830   5.977  1.2161  0.1631  1.5409
11949TIP3    H257263   5.285   3.735   5.983  0.1200  1.0524 -2.5056
11950TIP3   OH257264   2.983   0.965  10.374  0.6865  0.6707  0.3959
11950TIP3    H157265   3.028   0.905  10.433 -0.7410 -1.1886 -0.3336
11950TIP3    H257266   3.053   1.018  10.337  1.9841 -0.4330  1.1618
11951TIP3   OH257267   1.355   4.602   0.072 -0.1067  0.1672  0.4839
11951TIP3    H157268   1.281   4.637   0.122 -1.2747  0.2674 -1.2064
11951TIP3    H257269   1.318   4.527   0.024  1.0084 -0.0674 -0.0520
11952TIP3   OH257270   0.360   3.181  14.878 -0.3272  0.1747  0.5011
11952TIP3    H157271   0.446   3.150  14.906 -0.4251 -1.0172 -0.4477
11952TIP3    H257272   0.300   3.153  14.947  0.1589  1.9897  1.7364
11953TIP3   OH257273   0.824   5.529   1.111 -0.1005 -0.5432  0.2249
11953TIP3    H157274   0.821   5.517   1.206 -0.0905 -2.5304  0.0038
11953TIP3    H257275   0.814   5.441   1.075 -0.2736  0.1917 -1.6343
11954TIP3   OH257276   4.901   1.047  14.929 -0.3984  0.1169  0.3746
11954TIP3    H157277   4.952   1.052  14.848 -0.8478  0.4919  0.1084
11954TIP3    H257278   4.839   0.976  14.914 -0.8288  0.5227  0.1764
11955TIP3   OH257279   4.606   5.892  12.510 -0.4506  0.2710  0.3324
11955TIP3    H157280   4.559   5.849  12.582 -0.1881 -0.7844 -0.1096
11955TIP3    H257281   4.568   5.854  12.431 -2.3484  3.0600 -0.2338
11956TIP3   OH257282   3.196   6.573   3.766 -0.0405  0.1853  0.3297
11956TIP3    H157283   3.284   6.610   3.765 -0.2670  0.7238 -0.1086
11956TIP3    H257284   3.190   6.528   3.850 -0.0159  1.7647  1.2087
11957TIP3   OH257285   2.029   2.216  16.145  0.1263 -0.2031 -0.2615
11957TIP3    H157286   2.042   2.150  16.077 -0.6519 -0.3848 -0.2437
11957TIP3    H257287   2.102   2.277  16.134 -0.0951 -0.1176 -1.3883
11958TIP3   OH257288   5.947   1.334   2.080  0.1575 -0.1724 -0.2540
11958TIP3    H157289   5.853   1.335   2.063 -0.2282 -1.1783  1.5087
11958TIP3    H257290   5.954   1.299   2.169  2.1984  0.0196 -0.3008
11959TIP3   OH257291   4.045   0.802  16.325 -0.3740 -0.4574  0.1595
11959TIP3    H157292   4.080   0.855  16.253 -1.0329  0.7843  0.7301
11959TIP3    H257293   4.114   0.738  16.343  1.1450  1.1896  0.4929
11960TIP3   OH257294   3.267   2.166   4.299  0.3603 -0.3641 -0.3485
11960TIP3    H157295   3.232   2.163   4.388  1.2488 -0.0993  0.0132
11960TIP3    H257296   3.242   2.253   4.267  0.7403 -0.1492 -0.0678
11961TIP3   OH257297   3.063   3.400   5.130  0.5228  0.3079  0.4567
11961TIP3    H157298   3.111   3.482   5.141  1.1963 -0.0262  0.0535
11961TIP3    H257299   3.059   3.363   5.218  0.3466  0.6982  0.6162
11962TIP3   OH257300   2.862   0.915   4.581  0.4759  0.3503 -0.4512
11962TIP3    H157301   2.951   0.898   4.550  1.8573  1.1573  2.6616
11962TIP3    H257302   2.838   0.836   4.631 -0.6775  0.0773 -1.3767
11963TIP3   OH257303   1.414   2.061   2.933 -0.2776  0.1745 -0.7407
11963TIP3    H157304   1.364   2.128   2.887  1.0904 -0.2633 -3.0732
11963TIP3    H257305   1.382   1.978   2.897  1.4028 -0.1445 -1.6450
11964TIP3   OH257306   4.804   4.685  11.857  0.1631  0.1764 -0.0412
11964TIP3    H157307   4.832   4.684  11.765 -0.4512 -0.1993 -0.2322
11964TIP3    H257308   4.783   4.776  11.875 -2.4130 -0.0961 -1.1502
11965TIP3   OH257309   2.908   1.450   0.657 -0.4693  0.4281 -0.0016
11965TIP3    H157310   2.821   1.414   0.637 -0.8012  0.8887  0.5907
11965TIP3    H257311   2.950   1.458   0.572 -0.8423 -0.2152 -0.2586
11966TIP3   OH257312   4.523   3.894  11.913  0.2991  0.3674 -0.2652
11966TIP3    H157313   4.578   3.921  11.987 -0.3096 -0.1430  0.3844
11966TIP3    H257314   4.578   3.910  11.836  1.9088 -1.3463  0.4335
11967TIP3   OH257315   2.781   6.550   0.793 -0.1057  0.6129  0.2452
11967TIP3    H157316   2.701   6.497   0.798 -1.1881  2.2451  1.7315
11967TIP3    H257317   2.782   6.599   0.875  1.5295  1.9109 -0.4831
11968TIP3   OH257318   5.409   5.013   0.335  0.8308 -0.3234 -0.0211
11968TIP3    H157319   5.378   4.973   0.254  0.7404  1.1411 -0.7443
11968TIP3    H257320   5.343   5.079   0.355  2.3633  1.4175 -0.4375
11969TIP3   OH257321   1.032   5.985  10.936  1.0305 -0.1582 -0.3016
11969TIP3    H157322   1.030   5.948  10.848  1.3718  0.4315 -0.5620
11969TIP3    H257323   1.065   6.074  10.924  1.5294 -0.2245  0.4709
11970TIP3   OH257324   4.799   0.410  15.087 -0.1913  0.1232 -0.0320
11970TIP3    H157325   4.805   0.371  15.175 -0.7706 -1.0133 -0.4680
11970TIP3    H257326   4.707   0.402  15.064  0.2334 -1.1970 -1.4297
11971TIP3   OH257327   1.515   0.640   3.809  0.4481  0.0941 -0.2402
11971TIP3    H157328   1.485   0.551   3.791  2.1244 -1.3534  3.3062
11971TIP3    H257329   1.591   0.652   3.752  0.1472 -0.6582 -0.8191
11972TIP3   OH257330   3.381   5.579   3.001  0.1643 -0.1536 -0.7077
11972TIP3    H157331   3.311   5.528   3.042 -1.0228  2.2680  0.5339
11972TIP3    H257332   3.428   5.516   2.947 -2.0550 -2.2245 -0.4226
11973TIP3   OH257333   2.365   4.015   0.072  0.0496  0.2521  0.7741
11973TIP3    H157334   2.282   3.972   0.091  0.6762 -0.6164  1.6731
11973TIP3    H257335   2.417   4.002   0.151  1.1594  0.4763  0.1045
11974TIP3   OH257336   5.012   2.876   3.844  0.1480 -0.7886 -0.0604
11974TIP3    H157337   4.974   2.802   3.797  0.8423 -1.9949  1.2073
11974TIP3    H257338   5.101   2.849   3.864  1.1706  1.2643 -1.4164
11975TIP3   OH257339   0.070   4.588  12.016 -0.3891 -0.1332 -0.3585
11975TIP3    H157340   0.140   4.639  12.057 -0.5793  0.2361 -0.4897
11975TIP3    H257341   0.107   4.560  11.932 -0.0460 -0.7796 -0.0025
11976TIP3   OH257342   0.998   1.127  16.739 -0.2824  0.4753 -0.3255
11976TIP3    H157343   1.063   1.193  16.763  0.8735 -1.2441  1.6215
11976TIP3    H257344   0.915   1.175  16.736  0.5054  2.0284  0.9848
11977TIP3   OH257345   1.840   4.745  12.904 -0.1779  0.7852 -0.1022
11977TIP3    H157346   1.758   4.696  12.899  0.3574 -0.0634 -0.8575
11977TIP3    H257347   1.813   4.837  12.914 -1.2227  0.6037 -1.1109
11978TIP3   OH257348   1.400   5.506  15.217 -0.0538 -0.1615  0.0948
11978TIP3    H157349   1.484   5.541  15.186 -0.7251 -0.5825 -2.3760
11978TIP3    H257350   1.350   5.489  15.137 -2.6544  0.4081  1.4810
11979TIP3   OH257351   0.569   0.496  16.710 -0.4524 -0.4368 -0.0460
11979TIP3    H157352   0.632   0.503  16.639 -0.4732 -1.1556 -0.1416
11979TIP3    H257353   0.532   0.584  16.718 -0.2492 -0.2822 -0.7412
11980TIP3   OH257354   5.758   6.431   4.899 -0.0228 -0.4938 -0.2965
11980TIP3    H157355   5.672   6.394   4.918 -0.1544 -0.2291 -0.3739
11980TIP3    H257356   5.740   6.514   4.857  0.2605  0.1040  0.7162
11981TIP3   OH257357   5.190   4.773   3.150 -0.5237  0.2387  0.0173
11981TIP3    H157358   5.239   4.692   3.156  1.4633  1.3532 -0.5052
11981TIP3    H257359   5.101   4.749   3.176  0.5268 -1.6134  2.2199
11982TIP3   OH257360   1.487   5.724  14.610 -0.4902 -0.1150  0.1304
11982TIP3    H157361   1.552   5.654  14.607 -0.5773 -0.1510 -1.2399
11982TIP3    H257362   1.520   5.790  14.549 -1.4427  0.1314 -0.1350
11983TIP3   OH257363   3.175   5.587  11.289  0.4424 -0.2059  0.1098
11983TIP3    H157364   3.149   5.504  11.328  1.0612 -0.4214  0.0728
11983TIP3    H257365   3.117   5.598  11.214 -0.5553  0.0638  0.8995
11984TIP3   OH257366   0.880   4.043  15.806  0.0464 -0.5090  0.0622
11984TIP3    H157367   0.909   4.057  15.896  0.7668 -3.3943  0.3585
11984TIP3    H257368   0.792   4.079  15.803  0.1955  0.0710  1.7670
11985TIP3   OH257369   3.596   5.379   1.588 -0.2798 -0.5601 -0.4076
11985TIP3    H157370   3.514   5.364   1.542 -0.4664 -0.9242  0.0416
11985TIP3    H257371   3.571   5.411   1.674  0.0779  0.3744 -0.6353
11986TIP3   OH257372   0.961   0.730   0.050  0.0846  0.4270  0.3970
11986TIP3    H157373   1.026   0.744  -0.018  0.2392 -1.0759  0.2020
11986TIP3    H257374   1.011   0.723   0.131  0.2218 -0.8901  0.2262
11987TIP3   OH257375   3.349   0.048   1.060  0.0346 -0.1149 -0.1251
11987TIP3    H157376   3.282   0.036   0.993  1.1544  0.4997 -1.4042
11987TIP3    H257377   3.432   0.051   1.011  0.9079  0.1043  1.3072
11988TIP3   OH257378   5.552   1.803  16.378  0.6198 -0.2242 -0.3302
11988TIP3    H157379   5.479   1.788  16.318  0.9075 -1.8494 -0.3299
11988TIP3    H257380   5.530   1.885  16.423  0.0936  0.6917 -2.1677
11989TIP3   OH257381   5.438   2.410  14.035 -0.2771 -0.0480  0.1600
11989TIP3    H157382   5.367   2.357  14.071 -0.2960  0.1924  0.4882
11989TIP3    H257383   5.411   2.430  13.946 -1.5072  1.5752  0.8411
11990TIP3   OH257384   4.915   2.980  13.691 -0.3534  0.0840  0.5270
11990TIP3    H157385   4.867   3.049  13.737 -2.0442 -1.0160  0.5124
11990TIP3    H257386   4.997   2.973  13.739  0.3821  2.8341 -0.1573
11991TIP3   OH257387   5.626   2.804   4.873  0.1205 -0.2768 -0.2514
11991TIP3    H157388   5.549   2.850   4.907 -0.2959  1.0304 -2.7044
11991TIP3    H257389   5.594   2.760   4.794  1.7958 -0.0865 -1.0791
11992TIP3   OH257390   5.070   1.834  15.785 -0.1416  0.3145  0.3276
11992TIP3    H157391   5.111   1.749  15.804 -1.7661 -0.1741  1.8552
11992TIP3    H257392   5.144   1.893  15.773  1.0579 -0.8098  1.7017
11993TIP3   OH257393   6.710   5.673  14.810 -0.1162  0.4389  0.1180
11993TIP3    H157394   6.725   5.687  14.904  0.5365  1.8306 -0.1705
11993TIP3    H257395   6.647   5.741  14.786  0.6778  0.9061 -0.6975
11994TIP3   OH257396   6.246   4.533   6.215 -0.3858 -0.0412 -0.4286
11994TIP3    H157397   6.325   4.571   6.176  1.3843 -1.7645  1.1900
11994TIP3    H257398   6.207   4.482   6.145  0.6151 -0.0883 -0.9713
11995TIP3   OH257399   4.569   0.158   0.750  0.4519  0.1511 -0.0959
11995TIP3    H157400   4.570   0.168   0.845  1.3826  2.4110 -0.2716
11995TIP3    H257401   4.661   0.169   0.724  0.5446 -2.4559 -1.1333
11996TIP3   OH257402   3.647   2.712   4.112 -0.0443 -0.3786  0.1372
11996TIP3    H157403   3.632   2.731   4.205  0.8830 -0.9105  0.4044
11996TIP3    H257404   3.559   2.714   4.073 -0.4332 -0.0423  0.9982
11997TIP3   OH257405   0.808   4.653  16.975  0.0574  0.4539 -0.1126
11997TIP3    H157406   0.850   4.612  16.900 -1.7511  0.7444 -1.3407
11997TIP3    H257407   0.868   4.723  17.001  0.7590  0.2895 -1.2272
11998TIP3   OH257408   3.356   5.924  16.542  0.3370  0.4287  0.0816
11998TIP3    H157409   3.436   5.875  16.561 -0.0499 -0.1609  0.1965
11998TIP3    H257410   3.383   6.016  16.547  0.8810  0.2427  0.6803
11999TIP3   OH257411   6.236   0.657   3.395 -0.1211 -0.2843  0.0717
11999TIP3    H157412   6.211   0.740   3.435 -1.6329 -0.1273 -1.1104
11999TIP3    H257413   6.156   0.604   3.398  0.4621 -1.2074 -0.3693
12000TIP3   OH257414   6.286   4.615  16.525 -0.0390  0.3648 -0.3045
12000TIP3    H157415   6.363   4.614  16.468  0.6214  2.1247  0.4827
12000TIP3    H257416   6.319   4.640  16.611 -1.4272  0.6798  0.1760
12001TIP3   OH257417   3.352   3.390   2.629  0.0913 -0.0127 -0.9116
12001TIP3    H157418   3.262   3.411   2.654  0.3819  0.2290 -0.0333
12001TIP3    H257419   3.394   3.366   2.711  0.9415  0.2784 -1.2547
12002TIP3   OH257420   5.232   2.272  13.649  0.2954  0.1010  0.1318
12002TIP3    H157421   5.216   2.243  13.738  0.5264  0.0039  0.1408
12002TIP3    H257422   5.318   2.237  13.627 -0.8659 -2.2542 -1.0992
12003TIP3   OH257423   5.076   1.098   5.216  0.2905 -0.3447  0.1037
12003TIP3    H157424   5.154   1.151   5.232  1.1605 -1.7864  0.8583
12003TIP3    H257425   5.104   1.008   5.232 -0.8740 -1.1827 -2.0833
12004TIP3   OH257426   1.577   6.312  17.064  0.2683 -0.4587 -0.1233
12004TIP3    H157427   1.483   6.313  17.042  0.1516 -0.4509  0.3591
12004TIP3    H257428   1.583   6.254  17.140  0.4863  0.4374  0.5718
12005TIP3   OH257429   1.767   3.852  11.923  0.4865 -0.1294  0.0759
12005TIP3    H157430   1.675   3.832  11.941  0.7269 -0.2497  1.2429
12005TIP3    H257431   1.800   3.888  12.005  0.6481  3.1603 -1.2992
12006TIP3   OH257432   2.967   1.936   6.303  0.3736  1.0711  0.0386
12006TIP3    H157433   3.041   1.896   6.256  1.1057  1.0485  1.1604
12006TIP3    H257434   2.966   1.891   6.387 -1.1814  0.8059 -0.1023
12007TIP3   OH257435   6.217   0.876   4.275  0.1469 -0.3154  0.4421
12007TIP3    H157436   6.246   0.965   4.254  1.1128 -0.6671  0.2167
12007TIP3    H257437   6.289   0.840   4.329 -0.2269 -0.9577  0.5228
12008TIP3   OH257438   1.552   4.503  15.430  0.0832 -0.5657  0.2679
12008TIP3    H157439   1.569   4.427  15.487  1.7236  0.0990  0.7323
12008TIP3    H257440   1.608   4.488  15.354  2.0135  1.0984  1.2606
12009TIP3   OH257441   6.437   2.647   3.495  0.1240 -0.1303 -0.0744
12009TIP3    H157442   6.355   2.695   3.510 -1.0506 -2.1344  0.2626
12009TIP3    H257443   6.433   2.622   3.403  1.0035  0.8470 -0.3956
12010TIP3   OH257444   1.746   3.937   3.363 -0.5342 -0.3051  0.2467
12010TIP3    H157445   1.770   3.846   3.346 -1.7183 -1.1196  2.4992
12010TIP3    H257446   1.654   3.943   3.338  0.1889  1.0986 -2.4746
12011TIP3   OH257447   6.281   3.397   6.080 -0.4202  0.6279 -0.0306
12011TIP3    H157448   6.314   3.317   6.039 -0.3615  1.0309 -0.7801
12011TIP3    H257449   6.343   3.465   6.055  0.5531  0.5959  2.0954
12012TIP3   OH257450   2.714   4.447   2.746  0.4226  0.2047  0.4256
12012TIP3    H157451   2.791   4.397   2.720  0.4374  0.0327  0.7943
12012TIP3    H257452   2.706   4.515   2.679  1.2641  0.6190  0.7258
12013TIP3   OH257453   1.890   4.414  12.742 -0.1599  0.9602 -0.2905
12013TIP3    H157454   1.935   4.483  12.693  0.8678 -0.5131 -1.4853
12013TIP3    H257455   1.800   4.445  12.750 -0.3724  1.2640 -3.1337
12014TIP3   OH257456   4.253   4.109  11.774 -0.4105 -0.1313 -0.1191
12014TIP3    H157457   4.236   4.131  11.683 -0.0179  1.6989  0.2218
12014TIP3    H257458   4.226   4.017  11.782  1.1783 -0.8863 -2.4748
12015TIP3   OH257459   3.948   5.806   4.234 -0.3322  0.2178  0.5355
12015TIP3    H157460   3.861   5.829   4.201  0.8734  3.2178 -0.9370
12015TIP3    H257461   3.991   5.765   4.159 -0.8271 -2.6740  1.6969
12016TIP3   OH257462   3.838   2.308   3.826  0.6509  0.5145  0.4139
12016TIP3    H157463   3.754   2.347   3.853 -0.8022 -2.2318  0.1681
12016TIP3    H257464   3.851   2.236   3.887  1.3534 -0.9008 -1.3452
12017TIP3   OH257465   0.317   2.779  15.153  0.1105  0.1166 -0.2446
12017TIP3    H157466   0.291   2.844  15.219 -1.3407 -1.9058  1.3444
12017TIP3    H257467   0.410   2.796  15.138  0.4041  0.9676  2.0207
12018TIP3   OH257468   1.641   3.245   3.271  0.1130  0.6127 -0.3600
12018TIP3    H157469   1.655   3.150   3.262 -1.2725  0.3845 -0.3608
12018TIP3    H257470   1.719   3.277   3.316 -0.4583 -0.9551  1.9565
12019TIP3   OH257471   0.872   0.476  16.998 -0.0031 -0.6367  0.3960
12019TIP3    H157472   0.922   0.428  17.064 -1.5970 -0.7774  1.5529
12019TIP3    H257473   0.910   0.564  16.999  1.1639 -1.1227  0.1949
12020TIP3   OH257474   2.042   1.236  17.113 -0.2944 -0.0291  0.0331
12020TIP3    H157475   1.948   1.217  17.103 -0.1902 -0.0676 -0.9842
12020TIP3    H257476   2.078   1.157  17.154 -0.7837  0.1849  0.8903
12021TIP3   OH257477   1.135   5.129  12.594  0.0772 -0.0905  0.8968
12021TIP3    H157478   1.223   5.146  12.630  0.0287  0.3545  0.8119
12021TIP3    H257479   1.152   5.105  12.502  0.0753  0.6573  0.6865
12022TIP3   OH257480   4.598   1.072   1.388 -0.3751 -0.5844 -0.5018
12022TIP3    H157481   4.597   1.126   1.467  0.9467  0.6889 -1.3226
12022TIP3    H257482   4.601   0.982   1.421  1.6350 -0.0540  0.9439
12023TIP3   OH257483   0.383   6.109   3.213  0.2768 -0.0857 -0.0614
12023TIP3    H157484   0.309   6.050   3.231  0.1211  0.5189  1.3661
12023TIP3    H257485   0.414   6.135   3.299  2.7191 -0.9694 -0.6051
12024TIP3   OH257486   0.840   3.055  14.082 -1.0467  0.0285 -0.2540
12024TIP3    H157487   0.753   3.043  14.121 -1.2684  0.0490 -0.7345
12024TIP3    H257488   0.872   3.137  14.120 -0.4961 -0.8513  1.2696
12025TIP3   OH257489   0.648   3.848   0.377 -0.6684 -0.3158  0.3728
12025TIP3    H157490   0.733   3.804   0.375 -0.2354  0.5157 -0.8162
12025TIP3    H257491   0.669   3.938   0.405 -0.8035  0.4969 -1.8804
12026TIP3   OH257492   1.404   0.036  14.529 -0.4515 -0.0883  0.3991
12026TIP3    H157493   1.493   0.003  14.545 -0.8558 -1.7899 -0.6346
12026TIP3    H257494   1.417   0.128  14.505  0.8601  0.1952  1.9602
12027TIP3   OH257495   1.744   5.408  11.945 -0.0029  0.3697 -0.3292
12027TIP3    H157496   1.657   5.411  11.987  0.0185 -3.4982  0.3942
12027TIP3    H257497   1.726   5.387  11.854  0.1462  0.5304 -0.3954
12028TIP3   OH257498   3.648   6.524  16.258  0.3309 -0.2505 -0.2678
12028TIP3    H157499   3.594   6.575  16.318  1.5059  1.3382 -0.4752
12028TIP3    H257500   3.612   6.542  16.171  1.4757  1.2795 -0.4659
12029TIP3   OH257501   6.626   5.673   1.048 -0.1550 -0.2591  0.7446
12029TIP3    H157502   6.562   5.606   1.073 -1.5273  1.1632  1.2664
12029TIP3    H257503   6.579   5.730   0.987  0.8942  0.3704  0.4907
12030TIP3   OH257504   3.805   6.688   2.533  0.1149 -0.3527 -0.0076
12030TIP3    H157505   3.846   6.742   2.465  1.0286  0.5696  1.2328
12030TIP3    H257506   3.717   6.723   2.542 -0.3659 -1.1126 -1.3575
12031TIP3   OH257507   1.859   6.687   6.364 -0.1588 -0.4217  0.3748
12031TIP3    H157508   1.953   6.700   6.367 -0.0882 -0.4966 -0.8674
12031TIP3    H257509   1.824   6.770   6.332 -0.1908 -1.3814 -2.3187
12032TIP3   OH257510   3.382   5.830  15.341 -0.4113  0.4102 -0.2972
12032TIP3    H157511   3.332   5.843  15.421  0.7983  0.2037  0.5148
12032TIP3    H257512   3.473   5.829  15.369  0.0043 -0.4826 -1.5708
12033TIP3   OH257513   4.864   5.430   6.101  0.3893 -0.2803  0.1612
12033TIP3    H157514   4.893   5.368   6.168  2.0074  1.6663  1.3566
12033TIP3    H257515   4.826   5.502   6.150  1.3289  1.0612 -1.0199
12034TIP3   OH257516   5.995   4.061   2.406 -0.0293 -0.5000 -0.2311
12034TIP3    H157517   5.914   4.071   2.357 -0.3696  2.2613  0.7106
12034TIP3    H257518   5.969   4.017   2.487 -0.4889 -0.0997 -0.1591
12035TIP3   OH257519   5.878   3.512   3.197  0.2896 -0.1024 -0.4568
12035TIP3    H157520   5.955   3.556   3.233  0.2751  0.6212 -1.2964
12035TIP3    H257521   5.871   3.432   3.249  2.9670 -1.3644 -1.8084
12036TIP3   OH257522   0.760   0.325  14.326 -0.2093 -0.1217 -0.0360
12036TIP3    H157523   0.748   0.231  14.339  0.6861  0.1154  3.4536
12036TIP3    H257524   0.676   0.363  14.352  0.2743  0.1713  1.1175
12037TIP3   OH257525   1.765   6.539  15.478  0.1798 -1.0109 -0.2896
12037TIP3    H157526   1.802   6.540  15.390  0.5876  0.6359 -0.1307
12037TIP3    H257527   1.699   6.608  15.477  1.6837  0.5550  1.2582
12038TIP3   OH257528   5.709   3.688  15.866 -0.0987 -0.1314 -0.0882
12038TIP3    H157529   5.794   3.711  15.828 -0.1419 -0.4582 -0.3867
12038TIP3    H257530   5.730   3.630  15.939 -0.0875 -0.5308 -0.4086
12039TIP3   OH257531   1.178   5.113   4.695 -0.0352 -0.2749 -0.6014
12039TIP3    H157532   1.099   5.059   4.696 -0.3782  0.1400 -2.0993
12039TIP3    H257533   1.148   5.199   4.665  0.6944  0.4228  0.6137
12040TIP3   OH257534   4.577   5.221   3.906  0.6452  0.4733  0.0763
12040TIP3    H157535   4.639   5.242   3.837  0.9214 -1.2612 -0.2462
12040TIP3    H257536   4.631   5.205   3.983  0.4511  0.8566  0.2961
12041TIP3   OH257537   6.056   2.012  13.412 -0.1741  0.2746 -0.0161
12041TIP3    H157538   6.012   1.962  13.345  1.3173 -0.6313 -0.3613
12041TIP3    H257539   5.986   2.052  13.464 -1.3547 -0.9519 -0.6534
12042TIP3   OH257540   6.023   6.583  11.554 -0.0193  0.2320  0.4311
12042TIP3    H157541   5.933   6.553  11.565 -0.1096 -0.1111 -1.0629
12042TIP3    H257542   6.073   6.533  11.619 -0.8586  0.2771  1.1355
12043TIP3   OH257543   3.723   1.847  11.492 -0.3637 -0.1570 -0.4870
12043TIP3    H157544   3.774   1.769  11.468 -1.4194 -0.7629 -0.8736
12043TIP3    H257545   3.730   1.904  11.416  2.7604  1.4677  0.8546
12044TIP3   OH257546   5.063   6.670   6.145  0.3326 -0.1362 -0.0176
12044TIP3    H157547   5.033   6.674   6.055 -0.5224  1.2644  0.3020
12044TIP3    H257548   5.034   6.585   6.177 -1.0711  0.1436 -0.4920
12045TIP3   OH257549   5.460   5.528  14.138 -0.9763 -0.7741  0.2206
12045TIP3    H157550   5.536   5.487  14.178 -0.4627 -0.6355 -0.5785
12045TIP3    H257551   5.493   5.611  14.103 -1.1539 -1.3097 -1.3086
12046TIP3   OH257552   3.892   3.092   2.286  0.6427  0.4953 -0.0012
12046TIP3    H157553   3.808   3.138   2.287  0.4424  0.1310  0.3169
12046TIP3    H257554   3.953   3.153   2.325  0.9816  1.5852 -2.0661
12047TIP3   OH257555   0.964   0.383  11.825 -0.3348 -0.4782  0.6245
12047TIP3    H157556   0.922   0.453  11.875 -3.5492 -0.7265 -1.4404
12047TIP3    H257557   0.893   0.342  11.776  1.6069 -4.2783  0.5735
12048TIP3   OH257558   6.138   5.866   6.053  0.0300 -0.1125  0.4390
12048TIP3    H157559   6.107   5.777   6.070  1.6066 -1.0945 -1.4752
12048TIP3    H257560   6.233   5.861   6.066  0.2014  1.1623 -0.1760
12049TIP3   OH257561   0.522   2.683   5.066  0.1798 -0.1310 -0.0909
12049TIP3    H157562   0.482   2.732   5.138  0.6698  1.6285 -0.9495
12049TIP3    H257563   0.604   2.650   5.102 -1.0418 -2.0631  1.0781
12050TIP3   OH257564   0.172   5.410   5.005  0.3008 -0.1740 -0.7252
12050TIP3    H157565   0.102   5.423   4.942 -1.9852 -0.6444  1.5461
12050TIP3    H257566   0.202   5.320   4.991 -0.3111 -0.3329 -1.0198
12051TIP3   OH257567   2.390   1.024  13.739 -0.6474 -0.3596 -0.1494
12051TIP3    H157568   2.320   1.042  13.677 -1.5740 -0.7700  0.7617
12051TIP3    H257569   2.348   1.025  13.825  0.5752  0.0251  0.4732
12052TIP3   OH257570   6.035   3.230  16.684 -0.2710  0.2367  0.6299
12052TIP3    H157571   6.043   3.260  16.774 -0.7153  2.8572 -0.1220
12052TIP3    H257572   6.012   3.308  16.634 -1.1921 -1.3361 -1.6021
12053TIP3   OH257573   6.597   1.325  14.368  0.1020 -0.1423 -0.6117
12053TIP3    H157574   6.648   1.349  14.290 -1.4288  0.1188 -1.5668
12053TIP3    H257575   6.657   1.273  14.420  0.9777 -0.8840 -2.2746
12054TIP3   OH257576   3.437   2.061   2.797  0.1343  0.0890 -0.0991
12054TIP3    H157577   3.501   2.021   2.856 -1.1992 -0.8088  0.7884
12054TIP3    H257578   3.400   2.134   2.848  1.2709  1.3872 -1.0534
12055TIP3   OH257579   1.018   2.501  14.932  0.5799 -0.1263  0.3728
12055TIP3    H157580   1.022   2.422  14.986 -0.0542 -0.1991  0.3226
12055TIP3    H257581   1.098   2.497  14.879 -0.0842 -1.4581 -0.6027
12056TIP3   OH257582   3.474   3.777   0.759  0.4352  0.2211 -0.1640
12056TIP3    H157583   3.484   3.711   0.827 -0.3915  0.4400  0.1786
12056TIP3    H257584   3.440   3.854   0.804  1.0826  0.7787 -0.6169
12057TIP3   OH257585   3.622   6.316   6.564  0.2714 -0.2396  0.6317
12057TIP3    H157586   3.676   6.255   6.515  0.3835 -0.8912  1.5421
12057TIP3    H257587   3.676   6.395   6.572 -0.4164  0.5685 -1.7818
12058TIP3   OH257588   2.469   4.336   3.681  0.4270 -0.4545 -0.0421
12058TIP3    H157589   2.377   4.352   3.661  0.5693 -1.0297 -1.2415
12058TIP3    H257590   2.515   4.413   3.646  0.3742 -0.0056  0.8637
12059TIP3   OH257591   2.071   4.027  12.184 -0.1302  0.1664 -0.0332
12059TIP3    H157592   1.982   4.005  12.156 -0.5588 -0.2411  1.5215
12059TIP3    H257593   2.108   4.076  12.111 -1.8083  0.7578 -0.5422
12060TIP3   OH257594   4.229   6.455  16.907 -0.8176  0.0052 -0.4026
12060TIP3    H157595   4.243   6.523  16.841  0.8317  0.2816  0.1818
12060TIP3    H257596   4.263   6.493  16.988 -1.5443 -0.8427  0.3180
12061TIP3   OH257597   0.374   4.358   2.496  0.0199 -0.1445  0.6903
12061TIP3    H157598   0.416   4.318   2.419  1.9491 -0.0314  1.6371
12061TIP3    H257599   0.433   4.339   2.568  0.4967  3.4847  1.4109
12062TIP3   OH257600   5.010   5.533  13.000 -0.3778 -0.3252  0.4834
12062TIP3    H157601   5.038   5.577  12.920 -1.1443  1.2292  1.0396
12062TIP3    H257602   5.076   5.558  13.066 -0.7047 -0.1750  0.7551
12063TIP3   OH257603   4.736   0.303   4.495  0.3484  0.8213  0.0955
12063TIP3    H157604   4.824   0.269   4.480 -0.1584 -2.4188  3.0722
12063TIP3    H257605   4.749   0.384   4.544  1.6433  0.6213  0.1034
12064TIP3   OH257606   5.418   6.197  11.174 -0.2019  0.3022 -0.5291
12064TIP3    H157607   5.370   6.258  11.118 -0.4633  0.7380  0.1560
12064TIP3    H257608   5.385   6.111  11.149 -0.7806  0.5405 -0.6082
12065TIP3   OH257609   1.366   6.130   4.798 -0.0625 -0.2015 -0.3873
12065TIP3    H157610   1.381   6.182   4.877 -0.4314  1.4364 -1.3424
12065TIP3    H257611   1.453   6.119   4.760  0.2527 -1.8294  0.6902
12066TIP3   OH257612   5.687   5.897  12.495 -0.6497  0.4216  0.4002
12066TIP3    H157613   5.771   5.885  12.452 -1.3917 -2.4780 -0.4767
12066TIP3    H257614   5.709   5.929  12.582  1.2570  0.9829 -0.2499
12067TIP3   OH257615   3.048   0.656  14.281 -0.6756 -0.5802  0.0486
12067TIP3    H157616   2.976   0.614  14.329 -2.4216  0.1986 -1.7212
12067TIP3    H257617   3.004   0.722  14.227  1.2914 -0.6501 -1.7427
12068TIP3   OH257618   6.175   2.505  15.710 -0.3989 -0.1554  0.2882
12068TIP3    H157619   6.234   2.463  15.648 -0.3730  0.9403 -0.4579
12068TIP3    H257620   6.090   2.503  15.668 -0.5274 -0.0691  0.5398
12069TIP3   OH257621   5.752   6.645   2.166  0.2296 -0.3158 -0.0165
12069TIP3    H157622   5.836   6.648   2.212  0.8028 -0.1366 -1.0495
12069TIP3    H257623   5.707   6.726   2.193  0.4307 -0.3578  0.4483
12070TIP3   OH257624   2.044   5.915  11.100 -0.3041 -0.0781 -0.2280
12070TIP3    H157625   2.042   6.002  11.062  0.3667 -0.6968 -1.7209
12070TIP3    H257626   2.087   5.860  11.035  2.2270 -0.9228  1.9902
12071TIP3   OH257627   3.285   6.505  11.967  0.1599 -0.2214 -0.1126
12071TIP3    H157628   3.303   6.485  12.058  0.0096  0.6946  0.1312
12071TIP3    H257629   3.318   6.430  11.918  1.4174 -0.1573  0.5986
12072TIP3   OH257630   1.366   1.735  13.152 -0.5113 -0.1027 -0.8127
12072TIP3    H157631   1.355   1.703  13.241  0.4668 -0.4046 -0.7856
12072TIP3    H257632   1.440   1.685  13.117 -0.2363  0.7174 -1.4453
12073TIP3   OH257633   6.017   4.727   5.072 -0.1384  0.0817  0.2279
12073TIP3    H157634   5.967   4.685   5.143 -0.2539  0.5007  0.3987
12073TIP3    H257635   6.104   4.741   5.109  1.0161 -3.1279 -0.9423
12074TIP3   OH257636   0.861   5.704  17.057 -0.0910 -0.7607 -0.1152
12074TIP3    H157637   0.850   5.731  17.149  0.4775 -1.2833  0.1131
12074TIP3    H257638   0.797   5.757  17.009  1.2593  1.3069  0.2578
12075TIP3   OH257639   4.685   3.361   3.907  0.4828 -0.3435 -0.0248
12075TIP3    H157640   4.706   3.268   3.900 -0.4237 -0.4700 -1.4199
12075TIP3    H257641   4.696   3.395   3.819  0.7846  0.8836  0.4668
12076TIP3   OH257642   4.984   2.619   1.227 -0.1122  0.3855  0.1840
12076TIP3    H157643   4.924   2.579   1.163 -0.5549 -0.5171  1.1350
12076TIP3    H257644   4.942   2.702   1.249 -0.6876  0.0540  0.3576
12077TIP3   OH257645   6.564   2.731  16.090  0.0609  0.5179  0.4839
12077TIP3    H157646   6.560   2.755  15.997  1.5840  0.8160  0.4633
12077TIP3    H257647   6.490   2.777  16.130 -0.2394  0.9012 -0.4804
12078TIP3   OH257648   0.262   4.479  11.860 -0.4899  0.1682 -0.2358
12078TIP3    H157649   0.296   4.449  11.944  0.2048 -2.2048 -1.2917
12078TIP3    H257650   0.340   4.497  11.807 -0.8956 -0.4780 -1.0675
12079TIP3   OH257651   4.449   4.728   0.162 -0.0179  0.3253 -0.1714
12079TIP3    H157652   4.374   4.672   0.180 -0.7829  1.5199  0.5128
12079TIP3    H257653   4.522   4.688   0.209 -0.4530 -0.3063 -0.0321
12080TIP3   OH257654   5.772   5.398   3.233 -0.2104  0.1888 -0.6835
12080TIP3    H157655   5.843   5.367   3.289 -1.1178  0.3131  0.5760
12080TIP3    H257656   5.718   5.321   3.218  0.7216 -0.1672 -2.5475
12081TIP3   OH257657   4.217   1.891  11.318 -0.0683 -0.3827  0.1788
12081TIP3    H157658   4.287   1.862  11.378  0.5021 -0.1585 -0.3638
12081TIP3    H257659   4.256   1.963  11.269 -0.7176 -0.2001 -0.0778
12082TIP3   OH257660   5.783   4.299   2.405 -0.2587  0.3606 -0.1387
12082TIP3    H157661   5.875   4.326   2.412 -0.2598  0.0487  1.5383
12082TIP3    H257662   5.779   4.252   2.322  0.4416  2.7085 -1.6051
12083TIP3   OH257663   0.814   1.735   6.221  0.5556 -0.2068  0.5034
12083TIP3    H157664   0.820   1.824   6.255  2.2696  0.4442 -1.2972
12083TIP3    H257665   0.866   1.683   6.282  0.2716  0.1851  1.0839
12084TIP3   OH257666   5.449   5.124  11.713  0.2562 -0.7610 -0.3938
12084TIP3    H157667   5.361   5.139  11.749  0.0744  0.5572 -1.3391
12084TIP3    H257668   5.491   5.067  11.778 -1.3500 -1.5923 -0.0093
12085TIP3   OH257669   4.841   1.860   0.638  0.0775 -0.0030 -0.2100
12085TIP3    H157670   4.898   1.819   0.702 -0.1450  0.2816  0.1762
12085TIP3    H257671   4.878   1.948   0.626  0.1249 -0.0571 -0.4857
12086TIP3   OH257672   1.503   6.281  13.260 -0.6644 -0.3645  0.1593
12086TIP3    H157673   1.430   6.226  13.232 -0.0831 -0.8385 -0.4395
12086TIP3    H257674   1.507   6.352  13.196 -0.6678 -0.2721  0.2598
12087TIP3   OH257675   1.952   1.502   0.853  0.1822 -0.4264 -0.6736
12087TIP3    H157676   2.009   1.432   0.885 -0.6149  0.1359  2.3353
12087TIP3    H257677   2.008   1.579   0.850  0.1175 -0.3434  0.0926
12088TIP3   OH257678   5.226   3.651  15.894  0.0842 -0.0219 -0.3112
12088TIP3    H157679   5.205   3.652  15.987 -0.4160  1.0245 -0.4255
12088TIP3    H257680   5.288   3.723  15.882  0.2182 -0.2042 -0.7787
12089TIP3   OH257681   4.507   0.786  15.435  0.5414 -0.1251  0.4589
12089TIP3    H157682   4.429   0.740  15.403  0.6396 -0.0493  0.1065
12089TIP3    H257683   4.577   0.722  15.429  1.2689  0.7477 -2.5223
12090TIP3   OH257684   0.052   0.822   6.545 -0.3208  0.6539  0.3547
12090TIP3    H157685  -0.026   0.858   6.502 -0.2333  0.5593  0.1182
12090TIP3    H257686   0.028   0.818   6.638 -0.8185  0.0517  0.2050
12091TIP3   OH257687   0.574   1.009   4.383 -0.1218 -0.3660 -0.2312
12091TIP3    H157688   0.546   1.101   4.388  1.8631  0.2203  2.3885
12091TIP3    H257689   0.597   0.996   4.291 -1.7629  1.3181 -0.9371
12092TIP3   OH257690   1.915   3.416   3.175  0.1858  0.1556  0.2620
12092TIP3    H157691   1.864   3.488   3.137  1.0892  2.2386  2.7002
12092TIP3    H257692   2.003   3.426   3.137  0.0199 -0.4805 -0.3215
12093TIP3   OH257693   5.015   3.119   3.446  0.1812  0.1882  0.5997
12093TIP3    H157694   4.942   3.165   3.405 -0.1327 -0.8326 -0.0110
12093TIP3    H257695   5.032   3.169   3.526 -0.5848  0.9714  0.2915
12094TIP3   OH257696   0.698   4.385   2.093 -0.0453 -0.6530 -0.0196
12094TIP3    H157697   0.702   4.333   2.012 -0.3991 -0.4974 -0.1406
12094TIP3    H257698   0.661   4.469   2.065 -1.1128 -0.9497  0.4803
12095TIP3   OH257699   5.148   0.433   4.711  0.1764  0.1288  0.5139
12095TIP3    H157700   5.085   0.365   4.690  0.1376 -0.2711  1.8422
12095TIP3    H257701   5.231   0.386   4.725  0.7941  0.6354 -1.1144
12096TIP3   OH257702   1.554   4.840  11.122 -0.7093  0.2544  0.1627
12096TIP3    H157703   1.585   4.787  11.048  1.0402 -1.5180  2.0553
12096TIP3    H257704   1.480   4.890  11.086 -0.1522 -0.7656 -2.6656
12097TIP3   OH257705   5.487   4.414   0.929  0.5540  0.0695  0.7763
12097TIP3    H157706   5.429   4.376   0.863 -2.2236 -0.9546  3.5701
12097TIP3    H257707   5.555   4.348   0.943 -0.2087 -0.7734  0.5862
12098TIP3   OH257708   6.552   1.994  16.496 -0.2425 -0.2020  0.2661
12098TIP3    H157709   6.641   1.960  16.502 -0.2390 -0.6694 -1.9170
12098TIP3    H257710   6.563   2.084  16.464 -0.4980  0.4783  1.9401
12099TIP3   OH257711   0.334   3.510   4.591  0.1897  0.4432  0.1311
12099TIP3    H157712   0.250   3.542   4.559 -0.7032 -1.1208  0.8286
12099TIP3    H257713   0.367   3.581   4.647 -1.5544  0.3708  1.3309
12100TIP3   OH257714   2.574   0.956  13.551 -0.5636 -0.3060  0.1931
12100TIP3    H157715   2.510   0.977  13.482  0.5152  1.3252 -0.3491
12100TIP3    H257716   2.527   0.972  13.633 -1.1599 -0.1013 -0.1828
12101TIP3   OH257717   6.587   6.670  11.945 -0.2083  0.6275  0.1349
12101TIP3    H157718   6.540   6.619  11.879  0.2420  1.1829 -0.6311
12101TIP3    H257719   6.670   6.692  11.904  0.7742 -0.3813  1.4884
12102TIP3   OH257720   0.463   3.730  14.105  0.1008  0.1385  0.0902
12102TIP3    H157721   0.446   3.665  14.036 -0.3774  0.3272  0.0257
12102TIP3    H257722   0.410   3.702  14.179  1.5402 -0.7413  0.8173
12103TIP3   OH257723   4.789   5.909  16.456  0.2945  0.1919 -0.1227
12103TIP3    H157724   4.828   5.900  16.543  0.4068 -0.9973 -0.2748
12103TIP3    H257725   4.848   5.969  16.409  1.6453 -1.0773 -0.1468
12104TIP3   OH257726   0.037   1.672   2.450 -0.3689 -0.6065  0.2249
12104TIP3    H157727   0.009   1.676   2.542  0.2578  0.6201  0.3710
12104TIP3    H257728  -0.044   1.672   2.400 -0.7128 -1.1719  0.7588
12105TIP3   OH257729   6.655   1.472   1.913 -0.0764  0.3799 -0.2986
12105TIP3    H157730   6.745   1.504   1.904 -0.0393  0.1929 -0.5914
12105TIP3    H257731   6.655   1.427   1.998  0.3057 -0.2692 -0.6362
12106TIP3   OH257732   3.584   3.617  13.040 -0.4365  0.4821 -0.5402
12106TIP3    H157733   3.507   3.673  13.048 -0.9256 -0.4423  2.4250
12106TIP3    H257734   3.655   3.677  13.018 -1.3952  1.8778  0.0403
12107TIP3   OH257735   0.422   0.295   2.415 -0.4932  0.3474 -0.2712
12107TIP3    H157736   0.446   0.381   2.448  0.3406  0.8504 -2.0723
12107TIP3    H257737   0.504   0.257   2.384 -0.8155 -1.1825  0.6592
12108TIP3   OH257738   3.980   2.422   1.148  0.2895  0.4034 -0.3821
12108TIP3    H157739   3.907   2.364   1.170 -0.9139  1.5368 -1.2502
12108TIP3    H257740   4.002   2.466   1.230  0.7255 -0.7185  0.1166
12109TIP3   OH257741   6.206   6.387  11.681 -0.2374  0.5043 -0.6493
12109TIP3    H157742   6.266   6.350  11.616 -0.4734  0.1875 -0.6928
12109TIP3    H257743   6.259   6.401  11.759  0.0220  0.7716 -0.8706
12110TIP3   OH257744   1.424   6.667  12.351  0.7263 -0.4452  0.1303
12110TIP3    H157745   1.409   6.610  12.426 -0.7354 -0.6089 -0.2571
12110TIP3    H257746   1.376   6.626  12.279 -1.2799  1.7428  0.0778
12111TIP3   OH257747   0.608   6.006  15.550  0.4668 -0.2251 -0.0389
12111TIP3    H157748   0.521   6.047  15.542 -0.5585 -2.6267 -2.8967
12111TIP3    H257749   0.602   5.953  15.630 -1.2234 -1.3940 -0.8917
12112TIP3   OH257750   4.246   5.463  13.352 -0.5791  0.4889 -0.4896
12112TIP3    H157751   4.187   5.523  13.307 -1.2442  0.5763  0.4491
12112TIP3    H257752   4.322   5.516  13.374  0.9048 -0.1538 -3.6352
12113TIP3   OH257753   2.497   1.254  15.772  0.2392 -0.3736  0.5430
12113TIP3    H157754   2.533   1.251  15.861  0.9185 -0.0164  0.2920
12113TIP3    H257755   2.563   1.211  15.718  0.1447  0.0127  0.1138
12114TIP3   OH257756   1.540   0.972   3.089  0.2481  0.4458 -1.0813
12114TIP3    H157757   1.587   0.889   3.097 -1.7854 -0.6041  2.0428
12114TIP3    H257758   1.587   1.032   3.146  0.0011  0.5114 -0.9434
12115TIP3   OH257759   0.444   0.797  11.041 -0.3295 -0.0138 -0.2677
12115TIP3    H157760   0.464   0.838  10.957  0.1147 -0.9498 -0.6298
12115TIP3    H257761   0.453   0.868  11.105  1.2785  0.2919 -0.7704
12116TIP3   OH257762   2.316   6.343   5.713 -0.0952 -0.3720 -0.2796
12116TIP3    H157763   2.370   6.339   5.791  1.4245 -2.9481 -1.3405
12116TIP3    H257764   2.374   6.376   5.645 -0.2962 -1.5612 -1.0605
12117TIP3   OH257765   2.555   4.760  12.446 -0.3935 -0.0543 -0.1288
12117TIP3    H157766   2.467   4.726  12.431 -0.0183 -0.5588 -1.3762
12117TIP3    H257767   2.585   4.716  12.526 -0.9636 -0.5191 -0.1659
12118TIP3   OH257768   2.849   1.105  16.908  0.4846  0.2261 -0.2592
12118TIP3    H157769   2.809   1.144  16.830  0.1011  4.1928  1.6710
12118TIP3    H257770   2.930   1.065  16.877 -0.4374  0.2394 -2.8843
12119TIP3   OH257771   2.103   4.480  14.194  0.0208 -0.4748 -0.0328
12119TIP3    H157772   2.144   4.550  14.245 -0.0357  0.1557 -0.8241
12119TIP3    H257773   2.087   4.410  14.257  1.6800 -0.4732  0.4267
12120TIP3   OH257774   3.952   6.280  15.055 -0.4296  0.4504 -0.3022
12120TIP3    H157775   3.921   6.189  15.049 -1.3330  0.7725 -0.7849
12120TIP3    H257776   3.888   6.322  15.113  1.1276  0.3298  1.6305
12121TIP3   OH257777   1.659   0.219  15.578  0.1072 -0.2223  0.3548
12121TIP3    H157778   1.645   0.237  15.671 -0.6421  2.5451 -0.1848
12121TIP3    H257779   1.744   0.259  15.559  1.5327 -3.0455  0.2968
12122TIP3   OH257780   3.542   4.295  11.289  0.2520  0.2508  0.0075
12122TIP3    H157781   3.578   4.209  11.311  0.7351  0.4372 -0.0460
12122TIP3    H257782   3.452   4.277  11.260 -0.2007 -0.0739  1.5262
12123TIP3   OH257783   1.002   1.997  14.418 -0.9661  0.6395 -0.0745
12123TIP3    H157784   1.091   2.033  14.425 -1.0168  0.5073  1.6292
12123TIP3    H257785   1.006   1.938  14.343  0.2872  0.8962 -0.2314
12124TIP3   OH257786   6.506   6.054  16.562 -0.0194 -0.4718 -0.2451
12124TIP3    H157787   6.444   5.986  16.587  1.7683 -1.7948  0.8044
12124TIP3    H257788   6.531   6.031  16.472  1.3060 -1.8632  0.4253
12125TIP3   OH257789   2.228   3.433   3.514  0.4473 -0.2873 -0.2972
12125TIP3    H157790   2.223   3.408   3.422  0.2281 -1.0347 -0.0841
12125TIP3    H257791   2.320   3.422   3.538  0.5939  0.3384 -0.5370
12126TIP3   OH257792   2.644   4.196   4.721 -0.4788 -0.5318  0.3143
12126TIP3    H157793   2.685   4.263   4.775 -1.3639  0.7772 -0.5718
12126TIP3    H257794   2.689   4.115   4.745 -0.1572  0.1643  2.2436
12127TIP3   OH257795   3.966   5.788  16.656 -0.2800  0.2438  0.5638
12127TIP3    H157796   3.990   5.731  16.729 -0.5729 -1.5397 -0.6766
12127TIP3    H257797   3.871   5.797  16.663 -0.6454 -1.8358 -0.8452
12128TIP3   OH257798   3.897   1.084  14.565  0.0831 -0.3672  0.0051
12128TIP3    H157799   3.908   1.070  14.471 -0.3913 -1.4354  0.0933
12128TIP3    H257800   3.959   1.023  14.606 -0.7671 -0.9826  0.3949
12129TIP3   OH257801   4.917   6.511  10.542 -0.6790  0.6327  0.3291
12129TIP3    H157802   4.993   6.560  10.509  0.6852 -0.7481  1.2793
12129TIP3    H257803   4.917   6.429  10.493 -0.7657  0.0762  1.2313
12130TIP3   OH257804   6.782   6.025   0.525 -0.0588  0.1290 -0.2166
12130TIP3    H157805   6.826   5.970   0.460 -0.7112  1.3065 -1.7190
12130TIP3    H257806   6.699   5.980   0.542 -0.0044 -0.0428 -0.3985
12131TIP3   OH257807   3.879   5.458  12.598 -0.2603  0.3397  0.2617
12131TIP3    H157808   3.899   5.515  12.672 -0.2468  1.3232 -0.4690
12131TIP3    H257809   3.803   5.500  12.556  1.4642  1.4885 -1.9513
12132TIP3   OH257810   3.557   0.749  13.984 -0.3116 -0.1721 -0.3379
12132TIP3    H157811   3.626   0.689  13.958  0.5793  1.3443 -1.7121
12132TIP3    H257812   3.483   0.725  13.928 -0.1505 -0.3848 -0.4625
12133TIP3   OH257813   3.494   5.416   4.000 -0.0505 -0.3868  0.3019
12133TIP3    H157814   3.554   5.418   4.075  0.5270  2.7111 -0.1117
12133TIP3    H257815   3.523   5.489   3.944 -1.5534 -1.5023 -2.0793
12134TIP3   OH257816   6.697   4.346  14.671 -0.1431 -0.1649  0.3289
12134TIP3    H157817   6.752   4.352  14.593  0.9033  0.8060  1.1108
12134TIP3    H257818   6.633   4.278  14.650  1.4479 -1.4463 -0.5515
12135TIP3   OH257819   4.881   2.919   4.139  0.6602 -0.1166  0.2985
12135TIP3    H157820   4.848   2.830   4.130  0.0505  0.1796 -0.5056
12135TIP3    H257821   4.912   2.942   4.052  0.5157  0.5708  0.4209
12136TIP3   OH257822   0.323   2.941   6.272  0.2878 -0.2193  0.3838
12136TIP3    H157823   0.321   3.019   6.328 -1.3148  0.5145 -0.6073
12136TIP3    H257824   0.304   2.868   6.332  2.1928  0.0301  1.3962
12137TIP3   OH257825   0.705   1.374  15.173 -0.3867 -0.2205  0.6259
12137TIP3    H157826   0.747   1.328  15.101 -2.1382 -1.1441  0.1473
12137TIP3    H257827   0.682   1.306  15.236  0.1155  0.4441  1.5608
12138TIP3   OH257828   1.261   5.125   0.177 -0.3138  0.4490  0.0194
12138TIP3    H157829   1.237   5.101   0.267  0.3198 -2.9012 -0.5715
12138TIP3    H257830   1.356   5.115   0.175 -0.3724 -0.0033 -1.1223
12139TIP3   OH257831   4.466   6.446  16.070  0.4490 -0.3325  0.0556
12139TIP3    H157832   4.550   6.403  16.053  1.1072 -0.5466  3.3163
12139TIP3    H257833   4.488   6.523  16.122 -1.1977  1.1299 -1.2956
12140TIP3   OH257834   1.062   4.320  16.640  0.0589  0.1222 -0.0251
12140TIP3    H157835   1.045   4.283  16.553  2.6128  0.9921 -0.9962
12140TIP3    H257836   1.031   4.254  16.701  0.5520 -1.6962 -1.6412
12141TIP3   OH257837   4.898   4.745  11.612  0.0816 -0.0254  0.3075
12141TIP3    H157838   4.914   4.837  11.629  0.0241  0.1578 -0.5670
12141TIP3    H257839   4.840   4.745  11.536 -0.8447 -0.7595  0.9844
12142TIP3   OH257840   0.264   1.146  16.563 -0.2774 -0.2081 -0.6877
12142TIP3    H157841   0.252   1.162  16.657  0.4353  0.1121 -0.6388
12142TIP3    H257842   0.191   1.090  16.538  0.6657 -2.0704  0.5191
12143TIP3   OH257843   4.102   4.709   2.086  0.6104  0.7041 -0.7624
12143TIP3    H157844   4.143   4.700   2.172 -0.7099  1.2081 -0.0620
12143TIP3    H257845   4.095   4.804   2.073  1.3003  0.6440 -1.6836
12144TIP3   OH257846   1.988   4.411  12.979 -0.1063  0.0132 -0.3448
12144TIP3    H157847   1.982   4.315  12.974  0.4777 -0.0076 -0.6831
12144TIP3    H257848   1.965   4.441  12.891 -1.6432  0.2672  0.1126
12145TIP3   OH257849   1.649   5.293   4.336 -0.0506 -0.3035  0.2688
12145TIP3    H157850   1.745   5.287   4.336  0.1630 -0.1601 -4.2918
12145TIP3    H257851   1.630   5.382   4.307 -1.8064  0.6111  3.6573
12146TIP3   OH257852   1.832   5.227  14.979  0.3723  0.2343 -0.0168
12146TIP3    H157853   1.831   5.131  14.977  0.0387  0.2365 -0.0132
12146TIP3    H257854   1.887   5.252  14.905 -0.6550  0.0665 -0.8464
12147TIP3   OH257855   1.206   2.014  16.806  0.6785 -0.1487  0.8094
12147TIP3    H157856   1.124   2.008  16.758 -0.3603 -0.4296  2.5491
12147TIP3    H257857   1.244   1.926  16.800 -0.7761 -0.9648  2.6950
12148TIP3   OH257858   6.731   2.824   2.170 -0.2964  0.3625 -0.2665
12148TIP3    H157859   6.800   2.758   2.166 -1.0768 -0.4431 -0.8841
12148TIP3    H257860   6.676   2.797   2.244  0.6750  1.6807  1.0117
12149TIP3   OH257861   3.894   6.049  11.689  0.2055  0.6731  0.2577
12149TIP3    H157862   3.924   6.035  11.778  0.0007 -2.1547 -0.0324
12149TIP3    H257863   3.917   5.968  11.642 -0.7152  1.6006 -1.9613
12150TIP3   OH257864   6.647   3.406   4.885 -0.4836 -0.1324  0.2954
12150TIP3    H157865   6.593   3.377   4.959 -1.3809  0.3686 -0.1494
12150TIP3    H257866   6.725   3.351   4.890 -0.6420 -0.2832  1.4625
12151TIP3   OH257867   5.337   4.358   5.666  0.1838 -0.1246  0.0987
12151TIP3    H157868   5.410   4.297   5.674 -0.4099 -0.6341  2.4527
12151TIP3    H257869   5.372   4.442   5.695 -0.0015 -0.2412  0.6716
12152TIP3   OH257870   4.016   6.148   5.636  0.3366 -0.0646  0.2884
12152TIP3    H157871   3.981   6.203   5.567  0.8001 -1.0277 -0.7577
12152TIP3    H257872   3.981   6.185   5.717 -1.4461  0.2055 -0.5563
12153TIP3   OH257873   5.972   0.934  11.407  0.1593  0.0484 -0.1925
12153TIP3    H157874   5.990   0.976  11.491 -0.4244  1.1003 -0.5788
12153TIP3    H257875   5.981   1.004  11.342 -0.9500 -0.3814 -0.8354
12154TIP3   OH257876   4.120   6.004   3.881 -0.6034 -0.3980 -0.0628
12154TIP3    H157877   4.110   6.056   3.801  0.1617  0.3707  0.3272
12154TIP3    H257878   4.115   6.068   3.952 -1.0281 -1.0384  0.5050
12155TIP3   OH257879   2.126   3.614  13.443 -0.3901  0.6286  0.7711
12155TIP3    H157880   2.106   3.620  13.350  2.4171 -2.5727 -0.2237
12155TIP3    H257881   2.185   3.687  13.460  1.5692 -0.4947 -0.8380
12156TIP3   OH257882   4.998   5.161  12.232  0.0942  0.2258 -0.7681
12156TIP3    H157883   4.922   5.105  12.246  1.3951 -1.2348  0.8491
12156TIP3    H257884   4.966   5.250  12.248 -1.1289 -0.4233  0.5746
12157TIP3   OH257885   6.652   4.870  14.275 -0.0142 -0.0475  0.5553
12157TIP3    H157886   6.596   4.823  14.213  1.3081 -0.4440 -0.3773
12157TIP3    H257887   6.741   4.861  14.240  0.6401  0.6681  1.9251
12158TIP3   OH257888   0.470   0.556  12.176 -0.0161  0.1217  0.4133
12158TIP3    H157889   0.480   0.649  12.156 -0.3031  0.2467  0.8356
12158TIP3    H257890   0.377   0.538  12.163  0.0323 -0.1029  0.3616
12159TIP3   OH257891   4.044   6.590   3.059  0.1948  0.1499  0.4464
12159TIP3    H157892   4.008   6.578   2.972  0.8544  0.0295  0.1833
12159TIP3    H257893   3.970   6.621   3.112 -0.2481  0.0559 -0.1089
12160TIP3   OH257894   3.303   4.089  15.552  0.5980 -0.1237 -0.4164
12160TIP3    H157895   3.289   4.166  15.496 -0.3019  1.0984  1.3940
12160TIP3    H257896   3.396   4.068  15.540  0.9363  1.4178 -0.7817
12161TIP3   OH257897   3.669   3.530  11.634 -0.0815  0.1400  0.2176
12161TIP3    H157898   3.740   3.536  11.698  1.6192 -1.7731 -1.3517
12161TIP3    H257899   3.698   3.585  11.561 -0.2066 -0.5920 -0.4014
12162TIP3   OH257900   5.641   4.442   5.750  0.3862 -0.0529 -0.2088
12162TIP3    H157901   5.625   4.525   5.795  1.7187 -0.0988  0.3841
12162TIP3    H257902   5.719   4.457   5.697 -0.8824 -0.1516 -2.2035
12163TIP3   OH257903   2.096   1.215   5.619  0.7486 -0.2706 -0.2133
12163TIP3    H157904   2.095   1.215   5.715  0.3815 -0.3508 -0.2157
12163TIP3    H257905   2.021   1.269   5.594  1.2200  0.2730 -0.4575
12164TIP3   OH257906   0.913   5.310   1.368 -0.0179  0.0975  1.0066
12164TIP3    H157907   0.988   5.327   1.425  1.3877  1.5352 -1.1378
12164TIP3    H257908   0.869   5.395   1.359  0.4963  0.2029 -0.9384
12165TIP3   OH257909   5.038   3.230  16.486 -0.4361 -0.3247  0.6402
12165TIP3    H157910   5.124   3.234  16.444 -0.9569  2.0659 -0.3747
12165TIP3    H257911   5.047   3.161  16.552  2.6507  0.5838  1.3623
12166TIP3   OH257912   3.588   0.237  12.557  0.3133  0.6500 -0.0382
12166TIP3    H157913   3.544   0.161  12.595  0.3016  0.1321 -1.0499
12166TIP3    H257914   3.593   0.217  12.463  1.6487  1.2244 -0.1075
12167TIP3   OH257915   4.610   0.224   0.027  0.0427  0.3564  0.0868
12167TIP3    H157916   4.596   0.319   0.025 -0.3876  0.2940 -0.4434
12167TIP3    H257917   4.637   0.203  -0.063 -0.2262 -0.0682  0.1053
12168TIP3   OH257918   4.229   6.510   3.713  0.6085  0.6160 -0.3356
12168TIP3    H157919   4.317   6.471   3.713  0.5771  0.4633  1.4698
12168TIP3    H257920   4.222   6.552   3.628  1.6141 -1.1838 -1.3920
12169TIP3   OH257921   0.687   5.728   3.286 -0.3749 -0.0219  0.5964
12169TIP3    H157922   0.719   5.646   3.248 -0.3885 -0.3374  1.2494
12169TIP3    H257923   0.765   5.781   3.298 -0.5052  0.6536 -1.1436
12170TIP3   OH257924   0.347   1.252   5.387  0.3765 -0.7590  0.3210
12170TIP3    H157925   0.264   1.287   5.354  0.2376 -0.4948  0.9509
12170TIP3    H257926   0.352   1.282   5.477  1.8511  0.4745 -0.1325
12171TIP3   OH257927   3.463   0.232   4.825 -0.0764  0.2806  0.0379
12171TIP3    H157928   3.441   0.265   4.738  3.5968 -1.3407 -1.7520
12171TIP3    H257929   3.559   0.239   4.830  0.2633 -3.2794  2.3366
12172TIP3   OH257930   4.687   5.906   1.885  0.3899  0.2154  0.3266
12172TIP3    H157931   4.713   5.818   1.861  2.7703  1.0989 -0.6319
12172TIP3    H257932   4.738   5.926   1.963 -0.0486  0.7836  0.4796
12173TIP3   OH257933   3.152   4.589  10.182  0.3524  0.2154 -0.3619
12173TIP3    H157934   3.116   4.544  10.107 -0.2869 -1.1375  0.7178
12173TIP3    H257935   3.076   4.628  10.226  0.7319  1.1003 -0.4709
12174TIP3   OH257936   5.690   2.578   1.972 -0.2536  0.2470 -0.2502
12174TIP3    H157937   5.678   2.609   1.882  1.4683  0.6378 -0.3719
12174TIP3    H257938   5.740   2.497   1.963  1.2987  1.0992  0.4006
12175TIP3   OH257939   1.647   2.768  12.716 -0.3620 -0.1778  0.5436
12175TIP3    H157940   1.555   2.750  12.698 -0.3243 -0.5474  0.7144
12175TIP3    H257941   1.683   2.798  12.633 -0.3372 -1.2523  0.1547
12176TIP3   OH257942   3.100   0.378   5.391  0.1576 -0.0480 -0.6367
12176TIP3    H157943   3.169   0.314   5.406 -3.5911 -4.1793  1.5083
12176TIP3    H257944   3.074   0.365   5.299  0.2067 -0.8358 -0.5484
12177TIP3   OH257945   5.678   5.550  14.927 -0.2598 -0.2048 -0.1042
12177TIP3    H157946   5.674   5.455  14.930 -0.6998 -0.2060 -0.5612
12177TIP3    H257947   5.588   5.577  14.906 -0.2736  0.3355  0.6102
12178TIP3   OH257948   4.545   3.348  17.070 -0.1034 -0.0503  0.8279
12178TIP3    H157949   4.495   3.273  17.104 -3.4264  2.5208  2.2102
12178TIP3    H257950   4.594   3.312  16.996 -0.5075 -3.7936  2.1365
12179TIP3   OH257951   0.788   0.648   4.163  0.2031 -0.2591 -0.1012
12179TIP3    H157952   0.725   0.671   4.095  0.9568  0.4859 -0.5739
12179TIP3    H257953   0.758   0.564   4.196 -1.1066  0.1423 -0.2155
12180TIP3   OH257954   3.392   4.162   6.139  0.4058 -0.3274 -0.0958
12180TIP3    H157955   3.483   4.144   6.116 -0.4411 -2.6797 -1.9856
12180TIP3    H257956   3.366   4.088   6.194 -0.1731  0.7815  1.2034
12181TIP3   OH257957   3.415   5.646   4.847 -0.0668 -0.5554  0.0724
12181TIP3    H157958   3.499   5.691   4.858  0.1859 -1.1896  0.7791
12181TIP3    H257959   3.351   5.706   4.885  0.3065 -0.9032  1.2940
12182TIP3   OH257960   0.885   3.301  12.354 -0.1787  0.2014 -0.7269
12182TIP3    H157961   0.980   3.288  12.353  0.0034  0.2786  2.8440
12182TIP3    H257962   0.849   3.217  12.326  0.8535  0.5611 -3.4104
12183TIP3   OH257963   1.411   0.538   5.551 -0.0984 -0.0594  0.7667
12183TIP3    H157964   1.404   0.482   5.628  0.0068 -0.1180  0.7337
12183TIP3    H257965   1.442   0.622   5.585 -2.2808  0.6713  1.1300
12184TIP3   OH257966   5.629   5.089  11.147  0.2599 -0.4212  0.4550
12184TIP3    H157967   5.722   5.080  11.123 -0.2496 -0.2543 -1.8005
12184TIP3    H257968   5.611   5.182  11.135 -0.5080 -0.6706 -0.4376
12185TIP3   OH257969   5.163   2.138  13.887  0.4674 -0.0666 -0.3456
12185TIP3    H157970   5.168   2.046  13.915  0.9419 -0.2808 -1.1096
12185TIP3    H257971   5.163   2.188  13.969  1.9689 -0.6778  0.0633
12186TIP3   OH257972   5.429   4.410  12.902  0.6679 -0.5222 -0.6700
12186TIP3    H157973   5.382   4.422  12.820  0.8623  1.2329 -0.5559
12186TIP3    H257974   5.519   4.392  12.876  0.4807 -1.2551 -0.8400
12187TIP3   OH257975   3.728   3.320   2.849 -0.8193 -0.5716 -0.3774
12187TIP3    H157976   3.755   3.412   2.836  0.7973 -1.0942 -1.0494
12187TIP3    H257977   3.768   3.295   2.932 -1.4577 -0.6181 -0.0781
12188TIP3   OH257978   0.539   3.976   4.915  0.1182 -0.8814 -0.4080
12188TIP3    H157979   0.453   3.948   4.947 -0.0235 -0.6492 -0.5819
12188TIP3    H257980   0.519   4.032   4.840  0.3763 -0.1338  0.0656
12189TIP3   OH257981   6.013   6.171  16.606  0.2381  0.3570 -0.0769
12189TIP3    H157982   6.031   6.080  16.584 -1.6915  0.0475 -0.4848
12189TIP3    H257983   5.918   6.176  16.616  0.4473  1.9151  1.8373
12190TIP3   OH257984   5.462   3.393   0.214  0.2254 -0.4550 -0.2320
12190TIP3    H157985   5.530   3.446   0.255  0.4762 -0.4157 -0.6887
12190TIP3    H257986   5.410   3.456   0.164  0.5948 -0.6461 -0.8696
12191TIP3   OH257987   4.152   0.540   3.483 -0.4236  0.4422 -0.2802
12191TIP3    H157988   4.245   0.523   3.467 -0.5812  1.5437 -2.8688
12191TIP3    H257989   4.151   0.606   3.553  0.5925 -1.1446  1.3209
12192TIP3   OH257990   2.400   4.949   1.986  0.1005 -0.3907  0.2718
12192TIP3    H157991   2.369   5.040   1.988 -1.4503 -0.8724  0.0689
12192TIP3    H257992   2.454   4.940   2.064  0.9631  0.9264 -0.1446
12193TIP3   OH257993   2.111   5.815   3.998  0.5323 -0.7026 -0.1785
12193TIP3    H157994   2.027   5.820   4.043 -0.5729 -0.2765 -2.1466
12193TIP3    H257995   2.154   5.898   4.020  0.5730 -1.0330  1.0510
12194TIP3   OH257996   2.154   1.680   4.344  0.1297  0.4280 -0.1047
12194TIP3    H157997   2.234   1.661   4.295 -0.5469 -2.2029 -0.3579
12194TIP3    H257998   2.183   1.687   4.435  0.8442  1.2337 -0.3793
12195TIP3   OH257999   5.898   3.836  16.191  0.0994 -0.4730  0.7719
12195TIP3    H158000   5.805   3.855  16.181 -0.1876 -0.7928  2.4496
12195TIP3    H258001   5.907   3.744  16.165 -0.1318 -0.5443  0.9343
12196TIP3   OH258002   5.605   3.786   4.191 -0.2592  0.8608  0.3409
12196TIP3    H158003   5.530   3.846   4.181  1.2196  2.6418 -0.6815
12196TIP3    H258004   5.674   3.840   4.229  0.8248 -0.4731  0.3319
12197TIP3   OH258005   1.416   4.460   1.578  0.1092 -0.6356 -0.2445
12197TIP3    H158006   1.410   4.365   1.566  0.0028 -0.8841  1.5563
12197TIP3    H258007   1.326   4.491   1.566  0.2967 -0.6146 -1.7662
12198TIP3   OH258008   2.135   0.453   4.249  0.3158 -0.2234 -0.6721
12198TIP3    H158009   2.071   0.410   4.306  1.3424 -1.0927 -0.1505
12198TIP3    H258010   2.137   0.543   4.279 -0.4648 -0.2411 -0.5291
12199TIP3   OH258011   1.844   6.498  13.224 -0.4199 -0.1150 -0.2953
12199TIP3    H158012   1.790   6.571  13.254  1.4172  2.2272 -2.2795
12199TIP3    H258013   1.867   6.521  13.134  0.8799 -2.8058 -0.7430
12200TIP3   OH258014   4.667   3.941   2.700 -0.2387  0.3366  0.2803
12200TIP3    H158015   4.743   3.946   2.758  0.1372 -0.1719 -0.1490
12200TIP3    H258016   4.702   3.907   2.618 -0.7272  1.1949 -0.3081
12201TIP3   OH258017   6.336   2.606   1.078  0.0059 -0.2115 -0.1916
12201TIP3    H158018   6.258   2.654   1.047  0.8193  1.1314 -0.2561
12201TIP3    H258019   6.409   2.666   1.060  1.1332 -1.6664 -0.6541
12202TIP3   OH258020   4.173   5.055  12.261  0.0219  0.1238 -0.3529
12202TIP3    H158021   4.093   5.077  12.308  0.7090 -0.8350  1.3305
12202TIP3    H258022   4.231   5.130  12.276  0.3773 -0.3411  0.7170
12203TIP3   OH258023   1.669   0.493   4.253  0.5259  0.1458  0.1937
12203TIP3    H158024   1.711   0.548   4.319 -0.3892  0.9920  0.1093
12203TIP3    H258025   1.717   0.513   4.172 -1.3887  2.9145 -0.4145
12204TIP3   OH258026   1.078   5.717   4.211  0.0151  0.6438  0.1746
12204TIP3    H158027   1.024   5.677   4.279  0.5636  1.2468  0.9945
12204TIP3    H258028   1.128   5.784   4.258  2.1304 -0.4803 -0.3620
12205TIP3   OH258029   5.940   5.514  15.518 -0.1570 -0.5292  0.3133
12205TIP3    H158030   6.035   5.522  15.510 -0.1295 -0.6982  0.4743
12205TIP3    H258031   5.906   5.550  15.436  0.1153 -2.0173 -0.4833
12206TIP3   OH258032   1.605   5.970   2.918 -0.2420  0.5367  0.2068
12206TIP3    H158033   1.597   6.034   2.847 -1.1183  0.8250  0.5563
12206TIP3    H258034   1.515   5.946   2.939  0.0782 -0.7244  0.1694
12207TIP3   OH258035   3.536   3.292   4.064 -0.3716  0.3554 -0.0128
12207TIP3    H158036   3.573   3.369   4.108  0.4905 -0.1068  0.1075
12207TIP3    H258037   3.612   3.249   4.025 -0.1696 -2.5027  3.0825
12208TIP3   OH258038   4.627   1.070   3.268  0.0793  0.7064  0.0764
12208TIP3    H158039   4.630   1.116   3.351  1.4731  3.0893 -1.1630
12208TIP3    H258040   4.646   0.978   3.290 -0.0179  1.1869  2.3746
12209TIP3   OH258041   6.697   5.245   2.820 -0.2088 -0.2401  0.4990
12209TIP3    H158042   6.681   5.297   2.898  0.4757 -3.2361  2.8160
12209TIP3    H258043   6.627   5.270   2.760  0.4328  3.6854  1.1006
12210TIP3   OH258044   1.769   4.514   1.616 -0.1947  0.4884 -0.0470
12210TIP3    H158045   1.744   4.589   1.671  2.7673  0.8775  0.9661
12210TIP3    H258046   1.749   4.437   1.669  1.2538  0.8149  1.0431
12211TIP3   OH258047   2.183   3.297   6.418  0.2152  0.4272 -0.6110
12211TIP3    H158048   2.133   3.237   6.475 -1.5930  1.4009 -1.0962
12211TIP3    H258049   2.190   3.378   6.469  1.6662  0.2054 -0.4134
12212TIP3   OH258050   5.132   2.769   5.193  0.5895 -0.0795 -0.2215
12212TIP3    H158051   5.134   2.862   5.168  0.4576  0.1317  0.5344
12212TIP3    H258052   5.189   2.727   5.129 -1.1493  0.1431 -2.0122
12213TIP3   OH258053   1.595   0.581  14.673 -0.2022  0.8164  0.8046
12213TIP3    H158054   1.632   0.626  14.749 -0.3465  0.2385  1.2267
12213TIP3    H258055   1.515   0.540  14.707  1.3326 -2.1076  1.1925
12214TIP3   OH258056   3.936   2.770   3.094 -0.3849  0.3496  0.7394
12214TIP3    H158057   3.971   2.699   3.148 -0.5192 -0.4114 -0.1654
12214TIP3    H258058   3.943   2.847   3.150  3.0854  0.3359  0.5095
12215TIP3   OH258059   6.009   1.868   3.255 -0.0306 -0.2175 -0.3804
12215TIP3    H158060   5.939   1.808   3.228  0.3825 -0.2158 -1.5000
12215TIP3    H258061   6.053   1.893   3.173  1.2697 -0.1978  0.2938
12216TIP3   OH258062   0.501   3.361  13.017  0.2788  0.2141  1.5366
12216TIP3    H158063   0.462   3.319  12.940 -0.4547 -0.3337  2.1858
12216TIP3    H258064   0.476   3.304  13.090  1.4186  0.4323  2.1162
12217TIP3   OH258065   4.218   3.884  12.495 -0.6255  0.6175  0.3388
12217TIP3    H158066   4.296   3.936  12.474  1.6764 -1.3615  3.2059
12217TIP3    H258067   4.226   3.806  12.440 -0.3545  0.2339  0.9192
12218TIP3   OH258068   4.056   1.245   2.799 -0.1260  0.0122  0.5738
12218TIP3    H158069   4.051   1.203   2.713  1.4317  1.9404 -0.5260
12218TIP3    H258070   4.146   1.230   2.828 -0.1562  0.7948  1.1038
12219TIP3   OH258071   4.424   0.431   5.985  0.3411 -0.7616  0.2851
12219TIP3    H158072   4.429   0.522   5.958  1.5266 -1.0302 -0.4414
12219TIP3    H258073   4.467   0.428   6.070  1.4954 -0.8541 -0.2839
12220TIP3   OH258074   1.912   4.166  14.978 -0.2037  0.7889  0.7431
12220TIP3    H158075   1.946   4.243  15.024 -1.5037  1.7922  0.0620
12220TIP3    H258076   1.989   4.110  14.966  0.3632  0.9045  3.2629
12221TIP3   OH258077   5.536   2.951  13.962 -0.3902 -0.2393 -0.3383
12221TIP3    H158078   5.629   2.931  13.970 -0.2492  0.1465 -0.9391
12221TIP3    H258079   5.492   2.868  13.977  0.0830 -0.5416 -0.5981
12222TIP3   OH258080   0.377   3.946  10.912 -0.7003  0.1063  0.0878
12222TIP3    H158081   0.432   3.867  10.911 -0.9103 -0.0560  0.8668
12222TIP3    H258082   0.322   3.938  10.834 -1.3847 -1.0021  0.6524
12223TIP3   OH258083   2.136   2.118   6.670 -0.0141 -0.3573  0.0821
12223TIP3    H158084   2.163   2.147   6.583 -0.2928  1.3800  0.5483
12223TIP3    H258085   2.042   2.133   6.672 -0.0053 -0.3608  0.6920
12224TIP3   OH258086   5.447   1.172   0.771  0.2167  0.2913 -0.2100
12224TIP3    H158087   5.524   1.222   0.795  0.3833 -0.4209  0.7965
12224TIP3    H258088   5.429   1.116   0.847  0.6039 -1.8550 -1.6027
12225TIP3   OH258089   6.205   3.416   0.470  0.5498  0.2311  0.5556
12225TIP3    H158090   6.276   3.352   0.480  0.0393 -0.5178 -0.3787
12225TIP3    H258091   6.149   3.401   0.547  0.0136 -1.0313 -0.0437
12226TIP3   OH258092   1.006   4.907  12.202 -0.0632  0.3683  0.8205
12226TIP3    H158093   0.914   4.883  12.213 -0.0408  0.9792  2.6829
12226TIP3    H258094   1.050   4.825  12.182 -0.8029 -0.1991  1.4477
12227TIP3   OH258095   3.392   6.227   2.956 -0.1123 -0.6776 -0.2796
12227TIP3    H158096   3.400   6.184   3.042  3.0286 -0.4240 -0.3458
12227TIP3    H258097   3.363   6.316   2.977  2.3819 -0.0352  0.7995
12228TIP3   OH258098   2.697   5.383   6.382 -0.4084  0.1092  0.2333
12228TIP3    H158099   2.609   5.410   6.358 -0.4858  1.4401  1.8092
12228TIP3    H258100   2.685   5.318   6.451 -0.1385 -0.2866 -0.0800
12229TIP3   OH258101   3.850   1.970   2.097  0.4612  0.0183 -0.3194
12229TIP3    H158102   3.830   2.034   2.166  1.0265  0.0881 -0.2118
12229TIP3    H258103   3.945   1.960   2.101  0.4078 -0.5933 -0.5519
12230TIP3   OH258104   6.613   4.189  11.474  0.3362 -0.0136  0.1486
12230TIP3    H158105   6.671   4.123  11.436  0.9282  0.1450  0.7530
12230TIP3    H258106   6.551   4.139  11.527  0.1820 -0.1512 -0.1589
12231TIP3   OH258107   2.329   4.472   5.611 -0.2743  0.4615  0.4354
12231TIP3    H158108   2.252   4.440   5.658 -0.2034 -0.6044 -0.1659
12231TIP3    H258109   2.402   4.423   5.648  0.0474  1.0152  0.5532
12232TIP3   OH258110   3.951   0.029   4.205 -0.2513  0.1113 -0.0494
12232TIP3    H158111   3.991  -0.041   4.154 -1.2536 -1.4229  1.1946
12232TIP3    H258112   3.863   0.038   4.169 -0.6103 -0.2716  0.7102
12233TIP3   OH258113   1.736   2.567  15.095 -0.3243 -0.5652  0.0234
12233TIP3    H158114   1.718   2.627  15.023  0.9061 -1.2153 -0.8665
12233TIP3    H258115   1.668   2.500  15.087 -0.9621  0.0423  0.2671
12234TIP3   OH258116   3.653   6.223  15.819  0.0855 -0.3830  0.2138
12234TIP3    H158117   3.674   6.251  15.730 -0.9492  0.3333  0.1718
12234TIP3    H258118   3.678   6.131  15.822  3.5985  0.4574  0.3464
12235TIP3   OH258119   3.394   3.143   0.731  0.0983 -0.6525  0.0413
12235TIP3    H158120   3.460   3.109   0.672  0.5787  0.0098  0.1832
12235TIP3    H258121   3.420   3.234   0.746 -1.5946  0.0408 -0.9867
12236TIP3   OH258122   6.435   1.143   1.035  0.1400  0.0561 -0.1420
12236TIP3    H158123   6.345   1.174   1.032 -0.0811 -0.5512  0.1357
12236TIP3    H258124   6.488   1.222   1.020 -0.3293  0.9872  2.5728
12237TIP3   OH258125   5.473   2.065  17.061  0.2695  0.0972  0.3235
12237TIP3    H158126   5.499   1.997  17.124 -1.3513 -0.9017 -0.0189
12237TIP3    H258127   5.387   2.094  17.091 -0.7469 -0.7025 -1.5865
12238TIP3   OH258128   4.701   3.970  12.946  0.0583  0.3989  0.1163
12238TIP3    H158129   4.734   3.929  12.866  0.3897 -1.6072  1.2099
12238TIP3    H258130   4.616   3.928  12.961  1.0964 -1.1650  2.1152
12239TIP3   OH258131   5.718   1.304  16.069  0.3764 -0.0159  0.2161
12239TIP3    H158132   5.792   1.335  16.121 -0.3164  0.6471  0.8288
12239TIP3    H258133   5.688   1.225  16.114 -0.1210  0.4675  0.7547
12240TIP3   OH258134   5.028   3.859   5.330  0.8865 -0.4320  0.0617
12240TIP3    H158135   5.080   3.923   5.283  1.0556 -0.3193  0.4005
12240TIP3    H258136   5.062   3.861   5.420  1.0360 -1.1454  0.0241
12241TIP3   OH258137   5.558   4.337   5.994 -0.0480 -0.0647  0.2926
12241TIP3    H158138   5.568   4.384   5.912  0.3966  1.8344  1.3818
12241TIP3    H258139   5.602   4.253   5.979 -0.3140  0.0804 -1.5068
12242TIP3   OH258140   0.117   3.233   5.346 -0.5254 -0.4432  0.5537
12242TIP3    H158141   0.161   3.208   5.427 -1.3355  0.0406  1.1590
12242TIP3    H258142   0.111   3.151   5.296  1.0806 -0.5097  0.4204
12243TIP3   OH258143   1.748   4.701  14.731 -0.3011  0.7503 -0.2937
12243TIP3    H158144   1.725   4.755  14.655  1.0659  0.1629 -1.1596
12243TIP3    H258145   1.725   4.612  14.704 -2.2112  0.7892  0.9913
12244TIP3   OH258146   3.398   6.787  14.012 -0.1595  0.0840 -0.3366
12244TIP3    H158147   3.465   6.723  13.987 -1.3793 -0.9327 -1.1399
12244TIP3    H258148   3.393   6.781  14.107 -0.9393 -1.8049 -0.4471
12245TIP3   OH258149   3.530   0.464   3.883  0.5664 -0.3626 -0.2653
12245TIP3    H158150   3.501   0.380   3.918 -0.9716 -0.8669 -2.5270
12245TIP3    H258151   3.457   0.524   3.902  0.6202 -0.1427 -0.7373
12246TIP3   OH258152   1.412   5.412  11.477  0.4489  0.0172  0.1527
12246TIP3    H158153   1.490   5.455  11.440  0.9333  1.0409  2.1921
12246TIP3    H258154   1.429   5.409  11.571 -1.8123 -0.0888  0.6159
12247TIP3   OH258155   5.056   0.003   5.854 -0.1596 -0.1593  0.1926
12247TIP3    H158156   5.149  -0.002   5.831 -0.1629  0.7273 -0.0571
12247TIP3    H258157   5.026  -0.088   5.854  0.2555 -0.3357 -1.6600
12248TIP3   OH258158   4.212   5.952   3.361 -0.2861  0.4828 -0.0803
12248TIP3    H158159   4.204   5.864   3.396  1.5617 -0.6466 -2.2158
12248TIP3    H258160   4.253   6.003   3.431 -1.6332 -0.2287  1.2786
12249TIP3   OH258161   1.900   4.508  16.733  0.4205  0.2486  0.1402
12249TIP3    H158162   1.954   4.476  16.805  0.2596 -0.4045 -0.0218
12249TIP3    H258163   1.933   4.463  16.656 -0.5994 -0.4924  0.1016
12250TIP3   OH258164   0.987   2.995  11.815  0.1971  0.1798  0.0187
12250TIP3    H158165   0.894   2.993  11.791 -0.2620 -0.2706  1.7122
12250TIP3    H258166   0.993   3.067  11.878  0.6742 -0.7889  1.1046
12251TIP3   OH258167   0.125   6.526   0.530  0.1281  0.2198  0.0506
12251TIP3    H158168   0.119   6.437   0.495  1.5047  0.1334 -0.0440
12251TIP3    H258169   0.106   6.516   0.624 -0.8891  0.0216 -0.1701
12252TIP3   OH258170   0.288   1.785  16.467 -0.2089 -0.4521 -0.2388
12252TIP3    H158171   0.352   1.844  16.507  0.3819 -0.4937 -1.1012
12252TIP3    H258172   0.208   1.838  16.459 -0.7178 -0.7731  1.9965
12253TIP3   OH258173   6.419   5.955   3.659  0.2633  0.3031  0.3804
12253TIP3    H158174   6.475   5.895   3.610  0.5092  0.2671  0.7042
12253TIP3    H258175   6.402   6.027   3.598 -0.0093 -0.0805 -0.0002
12254TIP3   OH258176   3.212   1.043  12.299  0.7728 -0.0680 -0.3778
12254TIP3    H158177   3.233   0.956  12.266 -0.8394 -0.3793 -0.6861
12254TIP3    H258178   3.163   1.027  12.380  0.8910  0.5584 -0.1761
12255TIP3   OH258179   0.130   2.244  14.269 -0.1283  0.2020 -0.6338
12255TIP3    H158180   0.179   2.287  14.199  0.1632 -0.0102 -0.5608
12255TIP3    H258181   0.053   2.299  14.281  0.5573  1.0672 -0.1008
12256TIP3   OH258182   1.931   1.202  13.730 -0.4372 -0.1961  0.5703
12256TIP3    H158183   1.896   1.248  13.806 -0.0483  1.3953 -0.1772
12256TIP3    H258184   1.949   1.113  13.762 -1.6427  0.0119  1.9267
12257TIP3   OH258185   3.244   5.787   2.276  0.2487  0.1368  0.4885
12257TIP3    H158186   3.166   5.781   2.331 -0.7007  1.8354 -0.5816
12257TIP3    H258187   3.287   5.868   2.305  1.3160 -0.4568  0.6491
12258TIP3   OH258188   0.411   3.393  16.077  0.1872 -0.2952 -0.0060
12258TIP3    H158189   0.501   3.369  16.099  0.6322 -1.4645 -2.6899
12258TIP3    H258190   0.416   3.486  16.054  0.7036 -0.3468 -0.1148
12259TIP3   OH258191   1.110   2.246   0.777 -0.4017  0.1621  0.0077
12259TIP3    H158192   1.097   2.214   0.688 -2.0232 -0.5783  0.4615
12259TIP3    H258193   1.148   2.171   0.824 -1.6236 -0.2295  0.4239
12260TIP3   OH258194   1.800   2.880  14.285  0.4102  0.2815 -0.6086
12260TIP3    H158195   1.731   2.944  14.264 -0.9213 -0.4939  1.1398
12260TIP3    H258196   1.784   2.808  14.224 -1.6178 -0.7152  0.9600
12261TIP3   OH258197   2.875   5.182  14.076  0.5573  0.1433  0.3251
12261TIP3    H158198   2.892   5.125  14.002 -1.3130  1.5201 -1.2636
12261TIP3    H258199   2.792   5.149  14.113  1.8131 -0.9861  2.3560
12262TIP3   OH258200   1.470   5.608   6.316  0.5530 -0.0230 -0.4355
12262TIP3    H158201   1.525   5.687   6.309  1.2470 -0.6078 -1.8696
12262TIP3    H258202   1.477   5.584   6.409  1.7538  0.6025 -0.3304
12263TIP3   OH258203   1.344   6.123  16.378 -0.2586 -0.2924 -0.5465
12263TIP3    H158204   1.320   6.195  16.436 -0.0890  1.1949 -2.2427
12263TIP3    H258205   1.261   6.095  16.339 -0.1237  0.1048 -1.1266
12264TIP3   OH258206   5.628   1.047  13.441  0.5405  0.1282  0.0229
12264TIP3    H158207   5.588   1.106  13.505  1.4911 -0.6288  1.3567
12264TIP3    H258208   5.582   0.964  13.454 -0.1610  0.3005 -1.2109
12265TIP3   OH258209   1.153   0.519   1.194 -0.3728  0.7875  0.1708
12265TIP3    H158210   1.233   0.477   1.227 -0.5712  1.4042  1.4703
12265TIP3    H258211   1.117   0.455   1.131 -2.1429 -2.4326  3.9972
12266TIP3   OH258212   3.757   3.630   2.046  0.0408 -0.3161  0.2814
12266TIP3    H158213   3.758   3.608   1.953  1.3996  2.3350 -0.4361
12266TIP3    H258214   3.665   3.626   2.071 -0.6822  1.2794 -1.8522
12267TIP3   OH258215   4.833   0.523   3.624 -0.5705 -0.3455  0.1917
12267TIP3    H158216   4.871   0.451   3.674 -2.1925 -2.5997 -1.5836
12267TIP3    H258217   4.894   0.538   3.552 -1.2731 -1.5454 -0.6878
12268TIP3   OH258218   5.461   0.983   2.423  0.4331 -0.1787 -0.1715
12268TIP3    H158219   5.435   1.051   2.486 -2.2773  0.0965 -1.4248
12268TIP3    H258220   5.459   0.902   2.473 -0.4510  0.1877  0.4162
12269TIP3   OH258221   5.255   1.822   2.964 -0.1103 -1.0651 -0.2077
12269TIP3    H158222   5.214   1.841   3.049  1.2290  1.5027 -0.0322
12269TIP3    H258223   5.183   1.794   2.908 -1.2123 -1.7147  1.4505
12270TIP3   OH258224   2.950   5.717   5.470 -0.2422 -0.6054  0.0190
12270TIP3    H158225   2.866   5.678   5.498 -1.3116  1.9621  0.6265
12270TIP3    H258226   2.988   5.751   5.551 -0.8948  2.3214 -0.7964
12271TIP3   OH258227   5.321   4.445   1.150 -0.1730  0.1890 -0.2375
12271TIP3    H158228   5.264   4.374   1.119  1.5423 -0.6508 -1.6791
12271TIP3    H258229   5.381   4.461   1.076  2.6468 -0.3042  1.7725
12272TIP3   OH258230   2.317   1.109   2.871 -0.2007 -0.2449  0.2143
12272TIP3    H158231   2.405   1.071   2.872 -0.9368 -2.0743 -0.6713
12272TIP3    H258232   2.298   1.129   2.963  0.2424 -2.0371  0.7231
12273TIP3   OH258233   2.573   4.541  16.748  0.5307 -0.3308 -0.1654
12273TIP3    H158234   2.624   4.527  16.829  1.0338 -0.7940 -0.5516
12273TIP3    H258235   2.586   4.633  16.727 -1.3435  0.3658  1.4410
12274TIP3   OH258236   4.966   6.408  13.243  0.0143  0.5508  0.2252
12274TIP3    H158237   5.001   6.459  13.170  1.0440 -1.1658 -0.5339
12274TIP3    H258238   4.977   6.465  13.320  3.1276  0.7074 -0.2160
12275TIP3   OH258239   6.447   0.029   3.785  0.2156  0.3751 -0.2270
12275TIP3    H158240   6.428  -0.045   3.728  0.8066 -0.0261  0.0883
12275TIP3    H258241   6.399   0.102   3.747 -1.8991 -0.5651  0.5163
12276TIP3   OH258242   2.715   6.031  11.261 -0.3184 -0.2436  0.3138
12276TIP3    H158243   2.802   6.057  11.231 -1.0177  0.9337 -0.7879
12276TIP3    H258244   2.701   5.945  11.221  0.2391 -0.3273  0.2905
12277TIP3   OH258245   1.762   1.529   5.305  0.4707  0.2060 -0.5431
12277TIP3    H158246   1.709   1.450   5.298  0.6018  0.0563  0.0998
12277TIP3    H258247   1.815   1.530   5.226 -0.2518  0.1879 -1.0398
12278TIP3   OH258248   4.214   0.478  10.547 -0.1976 -0.4575 -0.1021
12278TIP3    H158249   4.189   0.535  10.620  1.5131 -1.0236  0.9765
12278TIP3    H258250   4.292   0.432  10.578  2.8827  1.8948 -3.5080
12279TIP3   OH258251   0.140   2.532   3.869 -0.6572  0.0636 -0.2969
12279TIP3    H158252   0.221   2.576   3.846 -0.9672  0.3947 -0.7763
12279TIP3    H258253   0.165   2.471   3.938 -0.4218  1.7731  1.1993
12280TIP3   OH258254   5.293   4.184   4.776 -0.0857  0.0872  0.1330
12280TIP3    H158255   5.208   4.175   4.818 -0.7713  2.2922 -0.6305
12280TIP3    H258256   5.311   4.278   4.779  2.0455 -0.2421 -0.3009
12281TIP3   OH258257   6.042   5.035  15.889 -0.8994 -0.5214 -0.0195
12281TIP3    H158258   5.986   4.979  15.943  0.8038 -1.5744  0.7431
12281TIP3    H258259   6.071   4.978  15.818  2.7204 -1.5178  2.0084
12282TIP3   OH258260   1.252   2.553  12.181  0.4544 -0.1437 -0.0011
12282TIP3    H158261   1.196   2.494  12.233 -2.3958  1.4427 -1.0657
12282TIP3    H258262   1.257   2.510  12.095  1.1243 -0.4105  0.1679
12283TIP3   OH258263   3.434   2.212  11.567 -0.0391 -0.1038 -0.5567
12283TIP3    H158264   3.424   2.126  11.527 -0.6144 -0.6880  0.7737
12283TIP3    H258265   3.463   2.193  11.656  2.0326  1.1750 -0.8877
12284TIP3   OH258266   2.536   6.264  16.428 -0.3091 -0.3712  0.1199
12284TIP3    H158267   2.560   6.248  16.337  2.4350 -1.4955  0.9707
12284TIP3    H258268   2.616   6.294  16.470 -1.3599 -0.4202  2.3314
12285TIP3   OH258269   0.902   0.986  11.333 -0.5669 -0.0144  0.5437
12285TIP3    H158270   0.860   0.905  11.364 -1.2228  0.5162  1.0555
12285TIP3    H258271   0.947   1.020  11.410  1.5046 -0.9776 -0.1666
12286TIP3   OH258272   4.696   3.219   4.323 -0.3006 -0.4187  0.2733
12286TIP3    H158273   4.601   3.228   4.330 -0.0752  1.5877  1.2297
12286TIP3    H258274   4.724   3.296   4.274  0.9081 -0.6263  0.6025
12287TIP3   OH258275   3.477   1.836   5.459  0.3216 -0.0969  0.6768
12287TIP3    H158276   3.560   1.799   5.428  0.7944  0.3234  1.4091
12287TIP3    H258277   3.465   1.916   5.407  0.3286 -0.2038  0.5097
12288TIP3   OH258278   2.561   3.901  14.128  0.6088  0.4274 -0.5625
12288TIP3    H158279   2.602   3.816  14.115  0.1468  0.4611 -2.4133
12288TIP3    H258280   2.532   3.900  14.219  0.6814 -1.3506 -0.5369
12289TIP3   OH258281   1.247   5.927   2.022  0.0012  0.1015 -0.1564
12289TIP3    H158282   1.292   5.874   2.087 -0.6145 -1.4922 -0.9689
12289TIP3    H258283   1.252   6.016   2.056  1.0177 -0.4682  1.2927
12290TIP3   OH258284   2.032   0.530  15.559 -0.0607 -1.0033  0.2730
12290TIP3    H158285   2.010   0.569  15.475 -0.9167  0.2950  1.0663
12290TIP3    H258286   2.023   0.602  15.622  2.3147 -1.4571  1.2522
12291TIP3   OH258287   5.820   2.451   6.363  0.1015 -0.1588  0.4683
12291TIP3    H158288   5.772   2.414   6.437  1.0037  0.4687  1.3947
12291TIP3    H258289   5.837   2.541   6.388  0.2297  0.1322 -0.6159
12292TIP3   OH258290   6.231   1.610   4.838 -0.2967 -0.1570  0.2584
12292TIP3    H158291   6.294   1.545   4.867  0.4451  0.4687  0.0610
12292TIP3    H258292   6.272   1.654   4.764 -0.4510  1.0634  0.8629
12293TIP3   OH258293   4.396   3.838   3.516 -0.0147  0.1871 -0.1715
12293TIP3    H158294   4.453   3.857   3.591  0.1851 -0.3524 -0.1822
12293TIP3    H258295   4.390   3.921   3.470 -0.7895  0.7372  0.8682
12294TIP3   OH258296   3.075   2.180   5.125 -0.3717  0.1949 -0.3284
12294TIP3    H158297   3.069   2.088   5.100  0.1198  0.3301 -0.9868
12294TIP3    H258298   3.087   2.226   5.042  0.4348  0.7454  0.0861
12295TIP3   OH258299   4.254   4.287   5.461 -0.3630 -0.5475  0.2430
12295TIP3    H158300   4.159   4.288   5.477 -0.4790  0.4083 -0.4075
12295TIP3    H258301   4.291   4.341   5.531 -0.4208 -0.0284 -0.1175
12296TIP3   OH258302   0.753   1.069   5.756  0.3865 -0.8291 -0.5011
12296TIP3    H158303   0.833   1.086   5.806 -0.1826  0.8970 -0.1151
12296TIP3    H258304   0.695   1.026   5.818 -0.1686  0.9397  0.2850
12297TIP3   OH258305   2.330   0.584   2.484 -0.1029  0.1163  0.2679
12297TIP3    H158306   2.285   0.570   2.401 -0.5940 -0.5702  0.6385
12297TIP3    H258307   2.409   0.531   2.478  0.0618  0.3763  0.0920
12298TIP3   OH258308   5.606   5.990  13.442  0.5037 -0.2525  0.0830
12298TIP3    H158309   5.546   6.044  13.391  0.3625 -0.0980  0.4062
12298TIP3    H258310   5.600   6.026  13.531 -0.7121 -1.7421  0.6501
12299TIP3   OH258311   3.113   3.295   4.891 -0.0148 -0.3567 -0.1239
12299TIP3    H158312   3.154   3.218   4.929 -0.5757 -1.2837 -1.3258
12299TIP3    H258313   3.078   3.344   4.966  2.9043  0.3153  0.9338
12300TIP3   OH258314   1.645   6.070   2.648 -0.2360  0.0154  0.4343
12300TIP3    H158315   1.610   6.152   2.683 -0.9770  0.3903 -1.0959
12300TIP3    H258316   1.655   6.087   2.554 -2.1349 -2.2032 -0.2691
12301TIP3   OH258317   2.297   2.350  16.255 -0.0725  0.3095  0.3460
12301TIP3    H158318   2.319   2.431  16.210 -1.3093 -0.8029 -2.5395
12301TIP3    H258319   2.363   2.342  16.324  0.6498  3.2381  0.1211
12302TIP3   OH258320   0.511   2.123  11.510 -0.0124  0.1912 -0.2270
12302TIP3    H158321   0.484   2.055  11.448 -2.1309  0.1039  0.7164
12302TIP3    H258322   0.540   2.196  11.455  0.1951 -0.6709 -1.2782
12303TIP3   OH258323   3.603   3.279   5.350  0.2989 -0.0646 -0.1560
12303TIP3    H158324   3.540   3.225   5.302  0.9329 -1.6653  0.7174
12303TIP3    H258325   3.557   3.304   5.430  0.9576 -1.9243  0.8742
12304TIP3   OH258326   4.570   0.173   1.027  0.3477  0.3727 -0.0049
12304TIP3    H158327   4.525   0.155   1.110  2.0668 -0.9001  0.7002
12304TIP3    H258328   4.663   0.159   1.046  0.8385  0.5407 -2.0345
12305TIP3   OH258329   1.487   1.463  17.166 -1.3928 -0.6672  0.0383
12305TIP3    H158330   1.507   1.410  17.089 -0.5257 -0.9899  0.4825
12305TIP3    H258331   1.483   1.400  17.238  2.8092  0.1045  1.1753
12306TIP3   OH258332   1.506   3.531  12.833 -0.0816 -0.8357  0.1050
12306TIP3    H158333   1.427   3.547  12.781 -1.1347  0.1564  1.9176
12306TIP3    H258334   1.516   3.436  12.832 -0.8482 -0.9270 -0.8014
12307TIP3   OH258335   2.566   4.518  13.785  0.3697 -0.1477 -0.6866
12307TIP3    H158336   2.630   4.530  13.715  1.7214  2.6376  0.8612
12307TIP3    H258337   2.507   4.593  13.776 -0.3136 -0.5556  0.2805
12308TIP3   OH258338   4.713   5.727  13.596 -0.3133  0.6104  0.0617
12308TIP3    H158339   4.766   5.736  13.675 -0.7710  2.1092  0.2282
12308TIP3    H258340   4.777   5.733  13.524 -0.2178  2.7156  0.2467
12309TIP3   OH258341   4.617   3.186  16.160 -0.3097 -0.0899  0.0751
12309TIP3    H158342   4.535   3.162  16.117  0.1219  1.1109 -1.5053
12309TIP3    H258343   4.679   3.199  16.088  1.3464 -1.1736  1.2336
12310TIP3   OH258344   3.520   1.171  16.876  0.1182 -0.3591 -0.0492
12310TIP3    H158345   3.485   1.242  16.931  0.0176  0.3778 -1.0274
12310TIP3    H258346   3.601   1.145  16.919  0.3173  0.5748  0.1677
12311TIP3   OH258347   4.018   4.009  16.664 -0.0929 -0.4548  0.7549
12311TIP3    H158348   3.938   4.061  16.653  0.8001  0.6773 -0.5373
12311TIP3    H258349   4.014   3.979  16.755 -1.8488 -0.1973  0.7951
12312TIP3   OH258350   5.007   2.435  13.699  0.4801 -0.3034  0.0101
12312TIP3    H158351   5.098   2.405  13.707  0.6668 -0.0328 -0.9408
12312TIP3    H258352   5.006   2.487  13.618 -0.4849 -0.1657  0.0978
12313TIP3   OH258353   0.538   4.552   4.863  0.2433  0.2528  0.2290
12313TIP3    H158354   0.513   4.500   4.940 -1.5362  0.2763 -0.2830
12313TIP3    H258355   0.490   4.634   4.872 -0.2410  0.1364 -1.0387
12314TIP3   OH258356   1.031   1.698  13.649 -0.5340  0.3731  0.3810
12314TIP3    H158357   0.938   1.699  13.671 -0.5364 -0.5403  0.4738
12314TIP3    H258358   1.034   1.688  13.554 -0.5614 -1.2334  0.5155
12315TIP3   OH258359   5.783   6.716   4.473 -0.1569  0.1440 -0.0107
12315TIP3    H158360   5.721   6.750   4.408 -0.8298 -1.0347 -0.0214
12315TIP3    H258361   5.757   6.758   4.555 -0.3750  0.3670 -0.1936
12316TIP3   OH258362   0.656   1.791  16.101 -0.5488 -0.4620  0.2375
12316TIP3    H158363   0.712   1.798  16.024  0.5434 -0.5411  0.9857
12316TIP3    H258364   0.681   1.707  16.141 -0.1652  0.1467  1.3413
12317TIP3   OH258365   0.418   1.879  16.246 -0.2330  0.1445 -0.2666
12317TIP3    H158366   0.401   1.831  16.327  0.0132  2.2028  1.0931
12317TIP3    H258367   0.509   1.861  16.225  0.2018  0.9070  0.8874
12318TIP3   OH258368   3.054   0.983  11.823  0.1682  0.3349  0.3913
12318TIP3    H158369   3.074   0.919  11.891  0.5284 -0.3027 -0.3022
12318TIP3    H258370   2.985   0.941  11.771  1.3660 -0.1061 -0.8994
12319TIP3   OH258371   4.909   6.594  16.715 -0.2031 -0.0161  0.3531
12319TIP3    H158372   4.903   6.689  16.725  2.8421  0.6040 -1.9882
12319TIP3    H258373   4.842   6.573  16.650 -1.5479  0.3086  1.5845
12320TIP3   OH258374   3.558   4.777  12.413  0.2220  0.1981  0.1342
12320TIP3    H158375   3.503   4.820  12.348  0.2766 -0.0562 -0.0794
12320TIP3    H258376   3.591   4.698  12.369  0.0612 -0.1022  0.5492
12321TIP3   OH258377   0.676   3.236   3.154 -0.5304 -0.0884 -0.0064
12321TIP3    H158378   0.631   3.314   3.189  0.4859  0.7338 -0.4801
12321TIP3    H258379   0.762   3.239   3.195 -0.8148 -1.5410  0.7385
12322TIP3   OH258380   5.462   5.200   4.097  0.6545  0.3264  0.5858
12322TIP3    H158381   5.430   5.290   4.090  0.8821  0.5134  1.7893
12322TIP3    H258382   5.386   5.145   4.076  0.3668  0.7860  0.4190
12323TIP3   OH258383   5.365   4.579   5.817 -0.0956 -0.3267 -0.3172
12323TIP3    H158384   5.276   4.602   5.843  0.2873 -0.2774  0.9780
12323TIP3    H258385   5.413   4.661   5.824  0.7247 -0.9377  1.9515
12324TIP3   OH258386   4.478   2.853  16.357  0.3384 -0.0743 -0.3014
12324TIP3    H158387   4.412   2.806  16.306 -0.9297  0.7239  0.5342
12324TIP3    H258388   4.435   2.872  16.441  1.5119  0.7759  0.1370
12325TIP3   OH258389   1.112   6.493   0.931 -0.3033 -0.6480  0.6074
12325TIP3    H158390   1.168   6.448   0.993 -0.4123  0.2679  1.3878
12325TIP3    H258391   1.023   6.479   0.964 -0.4941 -1.4441 -0.1984
12326TIP3   OH258392   0.264   1.554  10.914  0.3098 -0.3741  0.5229
12326TIP3    H158393   0.172   1.580  10.911  0.0417 -1.3925 -0.4170
12326TIP3    H258394   0.279   1.506  10.833  1.6102 -0.4528  0.7804
12327TIP3   OH258395   0.418   5.173  10.278 -0.5546  0.0907  0.5454
12327TIP3    H158396   0.461   5.213  10.354  2.1738 -0.2877 -0.6861
12327TIP3    H258397   0.380   5.092  10.312  0.8751 -0.2200  1.4919
12328TIP3   OH258398   1.905   1.198  15.556  0.1778 -0.3468 -0.4206
12328TIP3    H158399   1.837   1.175  15.619  0.6048 -1.8361 -0.4802
12328TIP3    H258400   1.915   1.293  15.566  0.0027 -0.4893  1.5018
12329TIP3   OH258401   6.699   2.308  16.370 -0.0509  0.5894 -0.0996
12329TIP3    H158402   6.632   2.276  16.309  0.7142  2.0306 -1.8142
12329TIP3    H258403   6.781   2.295  16.323  1.2091 -2.7084  2.6065
12330TIP3   OH258404   4.107   3.434   1.643  0.2221  0.5103  0.1704
12330TIP3    H158405   4.098   3.515   1.593 -0.6008  0.2955 -0.0482
12330TIP3    H258406   4.155   3.375   1.585  0.5822  0.7512  0.2226
12331TIP3   OH258407   4.972   1.810  13.349  0.1263  0.2002  0.3980
12331TIP3    H158408   4.888   1.800  13.394 -2.0790  1.1419 -3.0451
12331TIP3    H258409   4.986   1.725  13.306  1.5489 -0.2849  1.7283
12332TIP3   OH258410   5.747   3.009  16.462 -0.1047  0.1319 -0.4743
12332TIP3    H158411   5.773   3.102  16.466 -0.1743  0.2106  4.1816
12332TIP3    H258412   5.664   3.010  16.416  0.0704  2.3478 -0.8812
12333TIP3   OH258413   3.589   6.447   0.398 -0.4272  0.6150 -0.1260
12333TIP3    H158414   3.542   6.467   0.479 -1.4450  0.2565 -0.6088
12333TIP3    H258415   3.678   6.477   0.414  0.2429 -2.1732  2.2781
12334TIP3   OH258416   4.502   2.895   3.410 -0.1088 -0.6203  0.5824
12334TIP3    H158417   4.572   2.911   3.472 -1.0878 -0.4486  1.6892
12334TIP3    H258418   4.422   2.893   3.464 -1.4859  3.0163 -0.9876
12335TIP3   OH258419   2.663   3.882   1.149 -0.0469 -0.3590  0.3876
12335TIP3    H158420   2.709   3.799   1.138  0.2449 -0.2521  0.7893
12335TIP3    H258421   2.652   3.915   1.060  0.6283 -0.4011  0.2803
12336TIP3   OH258422   3.233   5.112   2.099  0.1025 -0.1514  0.3683
12336TIP3    H158423   3.257   5.149   2.014 -1.7673 -0.0161 -0.1479
12336TIP3    H258424   3.235   5.017   2.084  3.0272 -0.3187  1.1647
12337TIP3   OH258425   1.843   3.857  16.863  0.6266  0.6451 -0.2262
12337TIP3    H158426   1.863   3.935  16.811  1.7940  0.2454 -0.4112
12337TIP3    H258427   1.747   3.855  16.868  0.5500  1.5038 -1.1049
12338TIP3   OH258428   3.351   5.656  15.006 -0.3168  0.2101  0.3849
12338TIP3    H158429   3.361   5.656  14.911 -0.1898 -0.8262  0.3814
12338TIP3    H258430   3.286   5.724  15.024  1.1806  1.9090 -0.2419
12339TIP3   OH258431   4.028   1.598   4.379  0.0219  0.2206 -0.0883
12339TIP3    H158432   4.116   1.564   4.368 -0.5293 -0.8606 -1.3490
12339TIP3    H258433   3.972   1.521   4.385 -1.0224  0.8710 -0.9729
12340TIP3   OH258434   4.641   6.664   3.204 -0.1447  0.0467 -0.5181
12340TIP3    H158435   4.625   6.663   3.110 -2.0422  1.3329 -0.2638
12340TIP3    H258436   4.688   6.745   3.221  1.2821 -0.7564 -0.4674
12341TIP3   OH258437   0.838   3.544  12.811  0.4182 -0.4771  0.8742
12341TIP3    H158438   0.840   3.502  12.897  0.5170  1.1559  1.7134
12341TIP3    H258439   0.897   3.619  12.820 -0.2214  0.2045 -0.3680
12342TIP3   OH258440   4.066   3.240   4.109  0.1570  0.3456 -0.2886
12342TIP3    H158441   4.052   3.150   4.139  1.2323 -0.1033 -1.0695
12342TIP3    H258442   4.062   3.293   4.188 -2.0057 -0.1816  0.0040
12343TIP3   OH258443   4.685   0.217   6.499 -0.1592 -0.3606 -0.0934
12343TIP3    H158444   4.728   0.163   6.434 -0.2751 -1.3050  0.5936
12343TIP3    H258445   4.732   0.198   6.581 -0.9793 -0.3500  0.3896
12344TIP3   OH258446   2.123   2.963   1.877 -0.5231  0.0153 -0.9558
12344TIP3    H158447   2.218   2.960   1.870 -0.5256  0.9618 -1.4786
12344TIP3    H258448   2.105   3.036   1.937 -0.9308  0.0291 -1.0900
12345TIP3   OH258449   2.546   4.966  11.844  0.2811  0.3835 -0.4398
12345TIP3    H158450   2.470   5.024  11.851  0.7257  1.0266 -0.8188
12345TIP3    H258451   2.516   4.894  11.790 -0.2518  0.3014 -0.0451
12346TIP3   OH258452   3.179   5.679  12.394  0.4601 -0.1202  0.0272
12346TIP3    H158453   3.096   5.634  12.409 -0.5053  1.8188  0.8536
12346TIP3    H258454   3.241   5.634  12.452 -0.7615  0.3889  1.7867
12347TIP3   OH258455   3.043   2.757  16.643 -0.1714 -0.0573  0.0299
12347TIP3    H158456   3.128   2.715  16.638 -1.2221 -2.5385  1.3049
12347TIP3    H258457   2.994   2.722  16.569 -0.8488 -0.5864  0.7118
12348TIP3   OH258458   5.543   4.872  15.405  0.2060 -0.1910  0.6023
12348TIP3    H158459   5.493   4.870  15.486 -0.6056 -0.5674  0.0983
12348TIP3    H258460   5.489   4.825  15.342  1.4531 -1.1404  0.1976
12349TIP3   OH258461   0.059   2.781  13.386  0.4422  0.1634 -0.5289
12349TIP3    H158462   0.073   2.840  13.460  0.6139  0.1358 -0.5401
12349TIP3    H258463   0.044   2.839  13.312 -1.4527  0.2136 -0.1620
12350TIP3   OH258464   3.688   0.808   2.327  0.3384 -0.2150  0.3212
12350TIP3    H158465   3.629   0.847   2.391  1.0756  0.6582  0.4987
12350TIP3    H258466   3.731   0.737   2.375 -0.2704 -0.5975  0.3087
12351TIP3   OH258467   5.622   3.791  16.745  0.7743  0.6785 -0.0942
12351TIP3    H158468   5.571   3.727  16.795  1.9719 -1.0861 -1.0177
12351TIP3    H258469   5.562   3.825  16.680  0.6167 -1.1131 -0.9518
12352TIP3   OH258470   6.213   5.718  13.286 -0.3350 -0.1717  0.3899
12352TIP3    H158471   6.288   5.669  13.320 -1.0554 -1.5303  0.0981
12352TIP3    H258472   6.210   5.798  13.339  0.3876 -0.8206  1.4401
12353TIP3   OH258473   6.544   4.926  15.127  0.3508 -0.3189 -0.6384
12353TIP3    H158474   6.482   4.856  15.109  0.5137 -0.2745 -1.3839
12353TIP3    H258475   6.494   5.006  15.116  0.0877 -0.3030  0.4974
12354TIP3   OH258476   0.878   3.179  15.243  0.1487  0.0326  0.1717
12354TIP3    H158477   0.857   3.268  15.270  2.1537  1.4398 -2.5082
12354TIP3    H258478   0.798   3.147  15.202 -0.4270  0.7962  0.6776
12355TIP3   OH258479   6.260   0.943   3.962 -0.7329  0.4449  0.3540
12355TIP3    H158480   6.260   0.851   3.986  0.9036  0.6089  1.1117
12355TIP3    H258481   6.347   0.974   3.986 -0.7345  1.8442 -1.2424
12356TIP3   OH258482   3.677   3.809   4.269  0.2928 -0.3521  0.5732
12356TIP3    H158483   3.699   3.895   4.233  2.8362 -0.9638  0.5193
12356TIP3    H258484   3.684   3.821   4.364 -0.6864 -0.1981  0.6388
12357TIP3   OH258485   0.811   1.561  11.614  0.1270 -0.2568  0.6852
12357TIP3    H158486   0.830   1.652  11.636  1.1338 -0.4549  0.6731
12357TIP3    H258487   0.720   1.548  11.643  0.0313  0.6917  0.8445
12358TIP3   OH258488   4.346   0.810   0.524 -0.4579 -0.1733  0.0199
12358TIP3    H158489   4.291   0.810   0.602 -0.9806 -0.7222 -0.3329
12358TIP3    H258490   4.422   0.757   0.548 -0.5990 -0.3070  0.1726
12359TIP3   OH258491   1.793   1.648  15.815 -0.8701 -0.5089 -0.3762
12359TIP3    H158492   1.750   1.585  15.873 -1.3086 -0.3320 -0.5038
12359TIP3    H258493   1.833   1.594  15.747 -0.5801 -0.6992 -0.0551
12360TIP3   OH258494   2.113   6.220   0.513  0.1810  0.0904 -0.5780
12360TIP3    H158495   2.080   6.309   0.527  1.2276  0.8575 -2.6026
12360TIP3    H258496   2.208   6.230   0.510  0.4293 -1.4129  0.9132
12361TIP3   OH258497   3.641   4.392   0.302 -0.8740 -0.2544  0.3423
12361TIP3    H158498   3.629   4.369   0.209 -0.3284 -0.2566  0.2680
12361TIP3    H258499   3.690   4.475   0.299 -0.6058 -0.4026  0.6301
12362TIP3   OH258500   2.221   6.234   1.504 -0.0325  0.1615 -0.4527
12362TIP3    H158501   2.186   6.218   1.416  0.3209 -1.1003 -0.3769
12362TIP3    H258502   2.307   6.194   1.503  0.6407  1.5487 -0.0137
12363TIP3   OH258503   3.055   3.622   1.643  0.0314  0.0009 -0.0953
12363TIP3    H158504   3.024   3.534   1.619 -0.6052  1.2706 -4.9627
12363TIP3    H258505   3.146   3.623   1.613 -0.5555  1.4996 -2.0020
12364TIP3   OH258506   3.514   6.284   4.087 -0.1930  0.3272 -0.4668
12364TIP3    H158507   3.560   6.364   4.062 -1.8886  1.5550  0.1657
12364TIP3    H258508   3.545   6.264   4.175  1.5745 -0.7802 -1.3004
12365TIP3   OH258509   2.325   2.099  10.822  0.1759 -0.1369  0.3401
12365TIP3    H158510   2.242   2.122  10.780 -0.5857 -0.9719  1.3412
12365TIP3    H258511   2.328   2.152  10.901  0.6028 -0.1104  0.3085
12366TIP3   OH258512   3.213   0.620  11.697 -0.4860  0.0262  0.2046
12366TIP3    H158513   3.252   0.674  11.766  0.5004  2.7997 -2.3062
12366TIP3    H258514   3.118   0.629  11.711 -0.3410  2.1230  0.1319
12367TIP3   OH258515   4.438   0.833   1.186  0.0607 -0.2676  0.3260
12367TIP3    H158516   4.523   0.794   1.162  0.0657  0.5415 -1.0215
12367TIP3    H258517   4.375   0.789   1.129 -0.4366 -0.7733  1.2376
12368TIP3   OH258518   0.344   2.568   4.167 -0.1942  0.1653 -0.2205
12368TIP3    H158519   0.372   2.648   4.122  3.7919  0.6007  2.5256
12368TIP3    H258520   0.289   2.599   4.239 -1.7727 -0.0388 -1.2714
12369TIP3   OH258521   0.886   4.599   1.424 -0.4238  0.3227  0.2989
12369TIP3    H158522   0.897   4.670   1.486  3.0182 -1.5225  2.0685
12369TIP3    H258523   0.814   4.547   1.459  2.0752 -1.2587  3.6312
12370TIP3   OH258524   4.975   6.093  16.368  0.6860 -0.9032 -0.1172
12370TIP3    H158525   4.997   6.179  16.403 -0.9569 -0.8253  0.7916
12370TIP3    H258526   5.003   6.097  16.276  0.0131  0.8454 -0.2839
12371TIP3   OH258527   6.343   0.373  16.690 -0.7765  0.1895 -0.4805
12371TIP3    H158528   6.320   0.312  16.761 -2.3429  3.1846  1.7961
12371TIP3    H258529   6.439   0.378  16.693 -0.5828 -2.1226 -0.8077
12372TIP3   OH258530   0.374   6.437   2.200  0.6408 -0.8407 -0.3652
12372TIP3    H158531   0.468   6.421   2.191  1.0134  0.6488  0.4325
12372TIP3    H258532   0.364   6.472   2.289 -0.4962  0.1255 -0.8444
12373TIP3   OH258533   1.971   4.992  13.918 -0.4391 -0.7486 -0.3472
12373TIP3    H158534   1.967   4.928  13.847  0.2625 -1.7675  0.5140
12373TIP3    H258535   2.062   5.021  13.920 -0.0619 -1.8853  1.0957
12374TIP3   OH258536   5.183   4.088  12.479 -0.5162 -0.2532  0.1523
12374TIP3    H158537   5.205   4.134  12.398  1.9464 -1.4577  0.0370
12374TIP3    H258538   5.189   3.996  12.457  0.2279 -0.6161  1.6708
12375TIP3   OH258539   0.391   3.498  11.119 -0.3405  0.3559  0.0754
12375TIP3    H158540   0.300   3.468  11.109 -0.4268  1.0305 -1.4807
12375TIP3    H258541   0.444   3.424  11.087 -0.3219 -0.0759  1.0764
12376TIP3   OH258542   0.187   3.270  16.525  0.2905 -0.6818  0.5682
12376TIP3    H158543   0.169   3.262  16.431 -2.1508  1.1093  0.7900
12376TIP3    H258544   0.270   3.318  16.529  0.3497 -0.6366 -0.6488
12377TIP3   OH258545   4.534   6.780  10.863 -0.2675  0.6760 -0.5491
12377TIP3    H158546   4.551   6.837  10.788 -1.3800  0.3930 -1.0426
12377TIP3    H258547   4.461   6.725  10.834  1.9830 -2.4011 -0.8867
12378TIP3   OH258548   6.296   0.596   2.560  0.5661 -0.1310 -0.2252
12378TIP3    H158549   6.360   0.526   2.572 -0.4064 -1.0794 -0.4924
12378TIP3    H258550   6.322   0.639   2.478  0.6220 -0.7801 -0.5541
12379TIP3   OH258551   0.919   4.709   1.008  0.8476 -0.2188 -0.3260
12379TIP3    H158552   0.925   4.752   0.922  1.7702  0.7827  0.2080
12379TIP3    H258553   0.838   4.659   1.004  0.7165  0.0564 -1.6759
12380TIP3   OH258554   1.853   6.412   0.741  0.1621  0.5201 -0.4990
12380TIP3    H158555   1.767   6.425   0.701 -0.2747 -0.5452  0.0809
12380TIP3    H258556   1.915   6.447   0.676 -0.6640  0.7916 -1.1537
12381TIP3   OH258557   2.422   1.493   0.010  0.1965  0.2947  0.5028
12381TIP3    H158558   2.340   1.539  -0.006  0.3547 -0.4293 -3.5213
12381TIP3    H258559   2.397   1.415   0.060 -0.9047  1.8562  2.5091
12382TIP3   OH258560   5.255   2.732   3.923  0.0848 -0.5756  0.5639
12382TIP3    H158561   5.348   2.725   3.947  1.4483  3.0275 -2.5878
12382TIP3    H258562   5.254   2.723   3.828 -1.9291  3.7171 -0.0838
12383TIP3   OH258563   4.559   3.848   6.478  0.9672 -0.3413 -0.2738
12383TIP3    H158564   4.467   3.864   6.498  1.4846 -0.0201  2.0251
12383TIP3    H258565   4.595   3.934   6.456  1.0374 -0.2246  0.2846
12384TIP3   OH258566   2.204   0.633  11.106  0.3881  0.4286 -0.5676
12384TIP3    H158567   2.249   0.700  11.157 -1.3657  1.1217  0.1395
12384TIP3    H258568   2.196   0.670  11.018  1.0023  0.3747 -0.6499
12385TIP3   OH258569   3.476   1.136   3.397  0.1390  0.0966  0.2675
12385TIP3    H158570   3.436   1.166   3.316  0.5473 -0.5473 -0.1751
12385TIP3    H258571   3.526   1.058   3.373  1.7087  0.8947  0.7876
12386TIP3   OH258572   5.603   0.919   4.910 -0.9092  0.6826  0.3939
12386TIP3    H158573   5.663   0.988   4.879  0.6041  0.5441  2.7780
12386TIP3    H258574   5.539   0.966   4.963 -1.2719  0.4999  0.1201
12387TIP3   OH258575   3.669   0.306  16.567  0.0251  0.0911 -0.4861
12387TIP3    H158576   3.746   0.298  16.511 -0.3897 -1.3785 -0.8868
12387TIP3    H258577   3.702   0.291  16.655  0.4034  0.7986 -0.4959
12388TIP3   OH258578   2.945   2.593  11.536  0.0027 -0.2477  0.2380
12388TIP3    H158579   3.030   2.549  11.545 -0.1780 -0.1632  3.5019
12388TIP3    H258580   2.965   2.686  11.535  0.0425 -0.2487 -1.3298
12389TIP3   OH258581   1.049   2.099   2.809  0.0748 -0.1990 -0.1610
12389TIP3    H158582   1.025   2.053   2.890  0.3064 -0.5473 -0.2879
12389TIP3    H258583   1.009   2.048   2.739 -1.9223  1.2665 -0.1661
12390TIP3   OH258584   3.476   1.970  10.764  1.1352  0.6466 -0.0528
12390TIP3    H158585   3.394   1.994  10.719  0.4207 -1.0511  0.2618
12390TIP3    H258586   3.467   2.009  10.851  0.2982 -0.1352  0.2331
12391TIP3   OH258587   0.746   3.352   5.214 -0.8358 -0.2092 -0.4244
12391TIP3    H158588   0.838   3.353   5.189 -0.4055 -0.5646  1.0352
12391TIP3    H258589   0.703   3.410   5.151  0.7081  1.5696  0.0694
12392TIP3   OH258590   1.444   1.915  12.220  0.0752 -0.4472 -0.1665
12392TIP3    H158591   1.399   1.999  12.231 -1.0254 -0.8915 -1.0633
12392TIP3    H258592   1.516   1.934  12.160 -0.1610 -0.1438 -0.3571
12393TIP3   OH258593   6.732   3.929   3.677 -0.4974  0.1709 -0.2735
12393TIP3    H158594   6.743   4.016   3.716 -0.5469 -0.2139  0.6231
12393TIP3    H258595   6.639   3.908   3.693 -0.6395  0.2084 -1.0303
12394TIP3   OH258596   6.026   6.111   1.562  0.2028 -0.4197  0.0080
12394TIP3    H158597   6.041   6.017   1.554 -1.2755 -0.5417 -2.3201
12394TIP3    H258598   5.946   6.119   1.613 -1.3274 -0.6445 -2.2266
12395TIP3   OH258599   2.627   1.452   4.942 -0.0917  1.0856 -0.0890
12395TIP3    H158600   2.618   1.465   5.037 -1.3373  2.2092 -0.3306
12395TIP3    H258601   2.568   1.517   4.903  0.6447  0.8669 -1.6519
12396TIP3   OH258602   1.581   4.031  16.902  0.5028  0.4328  0.4742
12396TIP3    H158603   1.609   4.012  16.813  0.9744  2.0705  0.2421
12396TIP3    H258604   1.546   4.120  16.898 -3.2535 -0.8140  1.0941
12397TIP3   OH258605   4.003   1.084   2.574 -0.2220 -0.3469  0.3069
12397TIP3    H158606   4.028   0.994   2.596 -0.7294 -1.3644 -2.7105
12397TIP3    H258607   4.058   1.105   2.498 -1.4093  1.2100 -0.1556
12398TIP3   OH258608   4.148   2.030  16.552  0.0270 -0.2130 -0.1105
12398TIP3    H158609   4.177   2.082  16.627 -0.7128  0.8878 -0.5812
12398TIP3    H258610   4.064   1.993  16.580 -0.0968 -0.0579 -0.2763
12399TIP3   OH258611   0.244   4.649  13.456  0.0615 -1.0078 -0.4512
12399TIP3    H158612   0.248   4.628  13.549 -0.7885  0.5357 -0.0338
12399TIP3    H258613   0.319   4.708  13.441 -0.6660 -0.0498 -0.3912
12400TIP3   OH258614   6.122   6.449   4.632 -0.8328 -0.1155  0.7865
12400TIP3    H158615   6.036   6.407   4.632 -1.0242  0.2184 -0.4362
12400TIP3    H258616   6.133   6.481   4.542  1.5046 -2.0676  0.2463
12401TIP3   OH258617   1.393   5.357  14.746 -0.2422  0.1101 -0.3086
12401TIP3    H158618   1.454   5.302  14.795 -1.5864 -2.4869 -1.3800
12401TIP3    H258619   1.355   5.414  14.812  0.4806 -0.9175  1.0479
12402TIP3   OH258620   6.724   6.096  16.747  0.0366 -0.0716  0.0865
12402TIP3    H158621   6.669   6.174  16.744  0.1223  0.0059  0.4992
12402TIP3    H258622   6.683   6.036  16.684 -0.4834  0.0083  0.3392
12403TIP3   OH258623   6.492   0.039  10.361  0.0902 -0.3340  0.3835
12403TIP3    H158624   6.509  -0.037  10.305  0.0396 -1.8435  2.3433
12403TIP3    H258625   6.511   0.114  10.304  0.1144 -1.7672 -1.6315
12404TIP3   OH258626   0.772   4.799  16.323 -0.1315  0.1229  1.0572
12404TIP3    H158627   0.815   4.802  16.237 -0.8021 -0.4582  0.6967
12404TIP3    H258628   0.840   4.829  16.384  0.0758  1.4240  0.2356
12405TIP3   OH258629   1.811   4.637   2.669  0.0550  0.2671 -0.4377
12405TIP3    H158630   1.885   4.614   2.613  0.6444 -0.9333  0.7823
12405TIP3    H258631   1.809   4.569   2.736 -1.2580  1.0886  0.4084
12406TIP3   OH258632   3.607   2.087   4.612  0.2968 -0.4577 -0.3188
12406TIP3    H158633   3.696   2.060   4.591  0.7687  1.4579 -0.9654
12406TIP3    H258634   3.602   2.178   4.584 -1.1924  0.1544  1.6981
12407TIP3   OH258635   5.951   5.912  13.654  0.1858 -0.3177  0.4630
12407TIP3    H158636   5.969   5.901  13.561 -0.9936  1.1503  0.0298
12407TIP3    H258637   5.924   6.003  13.663 -0.3983 -0.6187  2.1295
12408TIP3   OH258638   5.225   3.779  11.826  0.3108 -0.5115  0.5264
12408TIP3    H158639   5.260   3.861  11.861  0.5287  0.7816 -2.3957
12408TIP3    H258640   5.144   3.764  11.874  0.3808  1.3254  1.2823
12409TIP3   OH258641   4.701   4.889  13.094 -0.2479 -0.2612  0.3587
12409TIP3    H158642   4.647   4.833  13.039  0.6102 -0.2867 -0.4712
12409TIP3    H258643   4.773   4.918  13.038  0.3954  0.0956  1.3246
12410TIP3   OH258644   3.225   4.369   0.043 -0.1765  0.6480  0.3695
12410TIP3    H158645   3.211   4.349   0.136 -1.3498 -1.1050 -0.1220
12410TIP3    H258646   3.137   4.387   0.010 -0.5666 -3.2576 -1.2869
12411TIP3   OH258647   4.472   2.142   4.547  0.4922  0.1860  0.1026
12411TIP3    H158648   4.558   2.135   4.589  0.1713 -0.9684  0.6149
12411TIP3    H258649   4.416   2.084   4.598 -0.4272  0.3826 -0.6558
12412TIP3   OH258650   6.514   5.933   4.234 -0.0134 -0.0690 -0.1397
12412TIP3    H158651   6.501   6.000   4.301 -0.6387  1.7245 -1.9757
12412TIP3    H258652   6.583   5.968   4.177 -0.4724 -0.8982 -1.2391
12413TIP3   OH258653   5.700   1.620   3.798 -0.0926  0.5138 -0.5305
12413TIP3    H158654   5.667   1.624   3.888 -0.9905 -2.0561 -0.6749
12413TIP3    H258655   5.699   1.711   3.769  1.3613  1.6235  2.3956
12414TIP3   OH258656   5.337   0.080   2.671 -0.0618  0.0228 -0.4612
12414TIP3    H158657   5.318   0.174   2.668  1.8856  0.4495 -1.4025
12414TIP3    H258658   5.252   0.039   2.685 -1.1365  1.8699 -1.1260
12415TIP3   OH258659   3.764   3.758   4.523 -0.2205 -0.4309  0.0984
12415TIP3    H158660   3.792   3.693   4.587  3.1591 -0.4508 -1.1824
12415TIP3    H258661   3.834   3.823   4.523  0.8099 -1.1784 -4.4673
12416TIP3   OH258662   4.104   4.870  10.969 -0.5051  0.4201  0.1945
12416TIP3    H158663   4.060   4.881  11.053 -1.3509  0.0438 -0.1832
12416TIP3    H258664   4.095   4.955  10.925  1.6174  1.2497  1.2198
12417TIP3   OH258665   6.040   2.253   5.999  0.8874  0.6560  0.6414
12417TIP3    H158666   6.051   2.169   5.955 -0.5005 -0.3801  2.1899
12417TIP3    H258667   6.130   2.286   6.010  1.3660  0.1686 -1.3527
12418TIP3   OH258668   3.550   5.771  17.212 -0.2256 -0.2915  0.3366
12418TIP3    H158669   3.502   5.802  17.288 -2.0564  0.0991 -0.8940
12418TIP3    H258670   3.637   5.749  17.244  0.1027  2.9055  1.8986
12419TIP3   OH258671   4.712   4.049  12.615 -0.1449 -0.1642  0.1252
12419TIP3    H158672   4.711   3.958  12.642 -1.0982 -0.3673 -0.5526
12419TIP3    H258673   4.800   4.080  12.637  0.4354 -1.4468 -0.3053
12420TIP3   OH258674   3.828   3.731  16.456 -0.2718 -0.1458  0.3580
12420TIP3    H158675   3.850   3.650  16.409  2.5249  0.4429  0.4936
12420TIP3    H258676   3.826   3.705  16.548 -1.1509 -0.3633  0.2955
12421TIP3   OH258677   5.819   2.256  11.154 -0.2627  0.0890  0.1487
12421TIP3    H158678   5.749   2.279  11.216  0.4536 -0.8578  1.3633
12421TIP3    H258679   5.888   2.220  11.209  0.0407 -1.6585 -1.2917
12422TIP3   OH258680   3.700   5.990  12.300 -0.1716  0.2585 -0.2727
12422TIP3    H158681   3.665   6.027  12.219  0.0707  1.2543  0.0645
12422TIP3    H258682   3.735   5.904  12.274 -1.4663 -0.1003 -0.9059
12423TIP3   OH258683   2.370   6.208   3.216  0.1121 -0.1563  0.1687
12423TIP3    H158684   2.368   6.215   3.312  0.0877  0.9047  0.1089
12423TIP3    H258685   2.286   6.168   3.193 -0.8557  1.5688  0.4843
12424TIP3   OH258686   2.987   6.563   1.422 -0.1245 -0.1707 -0.1976
12424TIP3    H158687   2.945   6.635   1.470 -1.9733  0.4602 -2.5597
12424TIP3    H258688   2.928   6.489   1.436 -0.5254 -0.0538 -1.2146
12425TIP3   OH258689   5.330   4.580  11.065 -0.3870 -0.0372 -0.0925
12425TIP3    H158690   5.369   4.665  11.082 -1.4627  0.6069 -0.7124
12425TIP3    H258691   5.288   4.589  10.979  0.5272 -1.5860 -0.7452
12426TIP3   OH258692   5.378   1.783  17.198 -0.1300  0.0478 -0.2416
12426TIP3    H158693   5.363   1.808  17.289  1.7058  2.5563 -0.5175
12426TIP3    H258694   5.473   1.780  17.189 -0.2650  0.1222 -2.1472
12427TIP3   OH258695   4.562   4.594   3.638  0.5505  0.0777  0.4636
12427TIP3    H158696   4.559   4.658   3.567  0.4544 -0.3239  0.1046
12427TIP3    H258697   4.510   4.634   3.708 -0.1139  0.0807 -0.0213
12428TIP3   OH258698   2.850   3.331  16.928  0.1462 -0.1603  0.0788
12428TIP3    H158699   2.926   3.283  16.897  0.2798 -0.2296  0.5089
12428TIP3    H258700   2.836   3.299  17.017  0.7182  1.1629  0.6691
12429TIP3   OH258701   0.697   2.809  15.644 -0.4773 -0.4387 -0.0695
12429TIP3    H158702   0.719   2.717  15.659  0.4442 -0.3588 -0.8143
12429TIP3    H258703   0.764   2.857  15.692 -0.7848 -0.1625  0.0793
12430TIP3   OH258704   6.677   2.208   2.998 -0.3904 -0.0410  0.4783
12430TIP3    H158705   6.605   2.229   3.058  0.1412 -2.9759  2.3821
12430TIP3    H258706   6.635   2.169   2.922 -0.9035 -0.9240  1.1954
12431TIP3   OH258707   2.482   5.697   0.825 -0.4548  0.0238 -0.1199
12431TIP3    H158708   2.531   5.654   0.895 -0.3966 -0.3012 -0.3561
12431TIP3    H258709   2.550   5.730   0.766 -0.5078 -1.6387 -1.1778
12432TIP3   OH258710   0.288   2.046   2.544  0.3263 -0.2437  0.1463
12432TIP3    H158711   0.371   2.081   2.578  0.8421  0.6777 -1.9178
12432TIP3    H258712   0.272   1.967   2.596  0.8390  1.2361  2.7430
12433TIP3   OH258713   1.888   3.715  15.242  0.0060 -0.0702  0.9343
12433TIP3    H158714   1.859   3.806  15.246 -0.7875 -0.3587  2.9676
12433TIP3    H258715   1.819   3.669  15.195  0.0160  0.2363  0.6172
12434TIP3   OH258716   2.998   1.124  13.695 -0.1068  0.0088 -0.3213
12434TIP3    H158717   3.075   1.156  13.648  0.0256  3.1223  1.7545
12434TIP3    H258718   3.032   1.093  13.779 -0.7569 -2.2406 -0.8118
12435TIP3   OH258719   3.961   5.585   4.755 -0.4302 -0.5488 -0.1736
12435TIP3    H158720   4.041   5.542   4.726  1.3847  2.9511 -0.8889
12435TIP3    H258721   3.984   5.623   4.840 -0.4062  2.3961 -1.3660
12436TIP3   OH258722   6.505   6.238  15.757  0.1292  0.1652  0.2573
12436TIP3    H158723   6.503   6.309  15.692 -1.0902  0.1136  0.2058
12436TIP3    H258724   6.463   6.276  15.834 -1.0367 -0.6461  0.0525
12437TIP3   OH258725   4.585   6.201   3.049  0.2294  0.8272  0.2805
12437TIP3    H158726   4.540   6.127   3.090  0.3884 -0.4332 -1.6670
12437TIP3    H258727   4.533   6.278   3.072 -0.6060 -0.0414  1.3813
12438TIP3   OH258728   5.951   3.513  11.576 -0.1209  0.2097 -0.1035
12438TIP3    H158729   5.940   3.471  11.491 -0.4708  1.2371 -0.5853
12438TIP3    H258730   5.962   3.606  11.556 -2.3770  0.8025  1.0363
12439TIP3   OH258731   6.750   1.815  12.372  0.3712 -0.2917  0.1843
12439TIP3    H158732   6.704   1.820  12.456  0.4903 -0.0954  0.2405
12439TIP3    H258733   6.728   1.898  12.329 -0.6173 -0.8672 -0.4688
12440TIP3   OH258734   2.919   0.859  14.963  0.2260 -0.6356  0.8338
12440TIP3    H158735   2.962   0.779  14.934  0.2839  0.2695 -1.8876
12440TIP3    H258736   2.843   0.829  15.013  0.9538 -2.3352  0.9844
12441TIP3   OH258737   1.336   5.109  12.887 -0.7009 -0.4599  0.1369
12441TIP3    H158738   1.320   5.055  12.810  0.5680 -0.6698  0.0091
12441TIP3    H258739   1.395   5.058  12.941  0.8646  0.9242 -0.1730
12442TIP3   OH258740   2.910   0.218  14.817  0.1691  0.4132 -0.1640
12442TIP3    H158741   2.815   0.218  14.820  0.1774  0.9405  0.1727
12442TIP3    H258742   2.937   0.184  14.902  0.2791 -0.9963 -0.7413
12443TIP3   OH258743   0.018   5.481   4.807  0.0333  0.2561  0.6455
12443TIP3    H158744  -0.065   5.523   4.830  1.5427  2.8849  1.8026
12443TIP3    H258745   0.035   5.509   4.717 -0.6404 -0.9332  0.1196
12444TIP3   OH258746   2.760   5.634  12.880  1.1143 -0.2856  0.1892
12444TIP3    H158747   2.710   5.601  12.954  1.9183 -0.5621  0.6166
12444TIP3    H258748   2.743   5.570  12.810  0.9702 -0.4445  0.3669
12445TIP3   OH258749   6.753   3.574   2.653  0.4786 -0.2291  0.6223
12445TIP3    H158750   6.839   3.597   2.688  0.8721 -1.4113  0.4996
12445TIP3    H258751   6.770   3.545   2.563  0.0178 -0.8320  0.7178
12446TIP3   OH258752   6.267   0.352   1.946  0.0645  0.0802 -0.1391
12446TIP3    H158753   6.354   0.385   1.970  0.2196 -0.5599  0.2044
12446TIP3    H258754   6.208   0.423   1.968  0.2733 -0.2555  1.6027
12447TIP3   OH258755   0.705   3.607  15.918 -0.1550 -0.2620 -0.0216
12447TIP3    H158756   0.784   3.655  15.942  0.1231 -1.8411  2.6713
12447TIP3    H258757   0.734   3.516  15.911 -1.7712 -0.9681  1.6166
12448TIP3   OH258758   0.941   4.667  13.146 -0.3644 -0.2321  0.1065
12448TIP3    H158759   0.991   4.677  13.065 -0.5184  0.3722  0.0794
12448TIP3    H258760   0.905   4.579  13.141 -0.9203  0.0328 -0.8089
12449TIP3   OH258761   0.898   2.986   1.857 -0.3071  0.5869 -0.6729
12449TIP3    H158762   0.832   3.041   1.815 -1.9904 -1.4777 -0.8658
12449TIP3    H258763   0.849   2.934   1.920  1.5967  0.8672  1.1410
12450TIP3   OH258764   2.295   1.851  16.249  0.1821  0.0091  0.3978
12450TIP3    H158765   2.389   1.843  16.233  0.4378  0.8370  1.3463
12450TIP3    H258766   2.278   1.790  16.321  0.1598  0.4493  0.7718
12451TIP3   OH258767   4.478   4.247   2.932  0.0823 -0.0360  0.5007
12451TIP3    H158768   4.445   4.195   3.006 -1.2003  0.5792  0.3954
12451TIP3    H258769   4.436   4.333   2.943  0.8326  0.4463 -0.2752
12452TIP3   OH258770   6.459   5.766  16.613 -0.7337  0.4903 -0.1291
12452TIP3    H158771   6.439   5.771  16.707 -0.2601  0.1814 -0.0114
12452TIP3    H258772   6.548   5.731  16.609 -0.5030  1.1110 -0.6750
12453TIP3   OH258773   6.659   4.038   5.945  0.1930 -0.1449 -0.2216
12453TIP3    H158774   6.625   4.030   6.034 -0.4473 -1.1511 -0.5350
12453TIP3    H258775   6.728   3.973   5.940 -0.3326 -0.6710 -0.7064
12454TIP3   OH258776   1.885   2.198   6.572 -0.2757  0.0720 -0.0533
12454TIP3    H158777   1.919   2.252   6.502  2.2177 -0.5206  0.5887
12454TIP3    H258778   1.857   2.260   6.640  1.2758  0.6236  0.1189
12455TIP3   OH258779   6.049   5.224   5.933  0.1857 -0.0591  0.1016
12455TIP3    H158780   6.011   5.312   5.926 -3.5357 -1.4413  0.2747
12455TIP3    H258781   6.054   5.193   5.843 -2.4984 -1.0112  0.1770
12456TIP3   OH258782   5.457   3.662   2.062 -0.0884  0.3982 -0.5169
12456TIP3    H158783   5.462   3.647   2.156 -0.8295  2.0766 -0.1795
12456TIP3    H258784   5.408   3.744   2.053  2.7658  2.0934 -2.2071
12457TIP3   OH258785   3.799   0.892  15.629  0.2392 -0.5918 -0.5563
12457TIP3    H158786   3.874   0.951  15.631 -1.3899  1.6537  2.7189
12457TIP3    H258787   3.748   0.921  15.554  1.0277  0.0596 -0.8564
12458TIP3   OH258788   2.510   6.496   5.614  0.3130 -0.3252 -0.2162
12458TIP3    H158789   2.594   6.462   5.583  0.4456 -1.2201  1.0566
12458TIP3    H258790   2.520   6.591   5.609  0.8725 -0.4196 -1.4013
12459TIP3   OH258791   4.675   4.532   2.289 -0.1171  0.2787 -0.1633
12459TIP3    H158792   4.602   4.559   2.234  1.8344  0.4306 -2.9058
12459TIP3    H258793   4.670   4.436   2.292 -0.6455  0.3100  0.0362
12460TIP3   OH258794   3.167   1.755  11.686  0.2660  0.0254 -0.4753
12460TIP3    H158795   3.233   1.696  11.722  0.0335 -1.4726 -2.3105
12460TIP3    H258796   3.096   1.753  11.750  1.1542  0.0067  0.5212
12461TIP3   OH258797   2.123   0.536   0.484 -0.6235  0.1043  0.3139
12461TIP3    H158798   2.143   0.594   0.558 -1.1582 -0.1549  0.6680
12461TIP3    H258799   2.174   0.572   0.411  0.8891 -0.3797  1.1053
12462TIP3   OH258800   6.568   3.964  13.489  0.5195  0.2049  0.2348
12462TIP3    H158801   6.657   3.999  13.497  0.6830 -0.5245  2.7080
12462TIP3    H258802   6.517   4.036  13.452  1.9992  0.8414 -0.6852
12463TIP3   OH258803   5.454   3.781  11.254  0.0500 -0.2719  0.1355
12463TIP3    H158804   5.406   3.698  11.256 -0.1856 -0.1377  1.2196
12463TIP3    H258805   5.493   3.785  11.167 -0.1678 -1.3846 -0.0288
12464TIP3   OH258806   5.158   1.826  13.085 -0.2045  0.0730 -0.1158
12464TIP3    H158807   5.156   1.788  13.173  0.3836 -0.5177 -0.3488
12464TIP3    H258808   5.070   1.810  13.050 -1.2324  2.3483  1.1770
12465TIP3   OH258809   4.120   4.628   6.280  0.4209  0.3253  0.5031
12465TIP3    H158810   4.112   4.546   6.330 -0.1072  0.2194  0.2573
12465TIP3    H258811   4.032   4.667   6.284  0.5574  0.6662  0.2545
12466TIP3   OH258812   3.055   2.522  13.096  0.1717  0.8878  0.2928
12466TIP3    H158813   3.037   2.428  13.095 -0.4973  1.0045  0.5230
12466TIP3    H258814   2.978   2.560  13.138 -0.3688  1.6979 -1.3554
12467TIP3   OH258815   2.279   3.156   2.419 -0.0396  0.6649  0.5172
12467TIP3    H158816   2.197   3.136   2.463  0.0338 -2.5965 -0.5944
12467TIP3    H258817   2.254   3.215   2.348 -1.7141 -1.1951 -0.5343
12468TIP3   OH258818   3.928   0.770   3.319 -0.4769  0.4763  0.1004
12468TIP3    H158819   4.003   0.800   3.370 -0.2871  1.1632 -0.5787
12468TIP3    H258820   3.920   0.832   3.247 -0.0395 -1.1182 -1.3976
12469TIP3   OH258821   3.089   1.974  13.527 -0.6568  0.3816 -0.0654
12469TIP3    H158822   2.998   1.960  13.554 -0.2930 -0.0272  1.0424
12469TIP3    H258823   3.084   1.992  13.434 -2.0652  2.3479  0.3264
12470TIP3   OH258824   1.092   4.303   0.294  0.4903 -0.0872 -0.4494
12470TIP3    H158825   1.016   4.351   0.328  0.6338 -0.8557  1.0714
12470TIP3    H258826   1.165   4.331   0.351  1.0080 -0.5463 -0.8764
12471TIP3   OH258827   2.692   6.398  10.750  0.0428 -0.6543 -0.2670
12471TIP3    H158828   2.773   6.358  10.782 -0.2836 -0.3565  0.9953
12471TIP3    H258829   2.673   6.352  10.669  1.8646 -0.2404 -0.9807
12472TIP3   OH258830   4.037   2.035   2.727 -0.6526 -0.0353 -0.0098
12472TIP3    H158831   4.088   2.075   2.656  0.6565  0.9705  1.4182
12472TIP3    H258832   4.048   1.941   2.714  1.3627  0.1464  0.0462
12473TIP3   OH258833   1.833   1.772   1.923 -0.0735 -0.0126  0.7052
12473TIP3    H158834   1.746   1.741   1.952  0.0455 -0.8696  0.1730
12473TIP3    H258835   1.889   1.695   1.929 -0.3626 -0.7087 -3.2069
12474TIP3   OH258836   6.434   4.375  15.419  0.7508  0.2533  0.2545
12474TIP3    H158837   6.444   4.316  15.494 -0.5801 -1.3769 -0.7836
12474TIP3    H258838   6.493   4.339  15.353  0.4037  0.4738 -0.1742
12475TIP3   OH258839   5.237   1.780   5.676  0.0277  0.2854  0.7476
12475TIP3    H158840   5.239   1.710   5.611  0.1556  1.2627 -0.3163
12475TIP3    H258841   5.209   1.736   5.757  0.2182 -1.0077  0.1342
12476TIP3   OH258842   4.537   1.443   2.315  0.2256  0.0379 -0.7020
12476TIP3    H158843   4.595   1.386   2.366 -0.5939 -0.4253 -0.2845
12476TIP3    H258844   4.469   1.470   2.376 -0.0775  0.4839 -1.2258
12477TIP3   OH258845   4.899   0.089   5.068  0.3868  0.7526 -0.1036
12477TIP3    H158846   4.881   0.155   5.135  1.2413 -0.8642  1.8526
12477TIP3    H258847   4.815   0.044   5.057  0.6181 -0.0841  1.2471
12478TIP3   OH258848   2.493   6.450  13.162 -0.0966 -0.7685 -0.5644
12478TIP3    H158849   2.516   6.532  13.118  0.6959 -0.9308 -0.4670
12478TIP3    H258850   2.510   6.467  13.254 -0.6525 -0.8049 -0.4495
12479TIP3   OH258851   1.692   5.882   1.742 -0.7378  0.0180  0.0012
12479TIP3    H158852   1.635   5.850   1.672 -0.6494 -0.5508  0.1864
12479TIP3    H258853   1.653   5.848   1.822  1.1109 -2.4062  0.0063
12480TIP3   OH258854   1.703   6.373  16.330  0.2713  0.3736 -0.1357
12480TIP3    H158855   1.665   6.287  16.349  2.4883 -0.7148 -0.2851
12480TIP3    H258856   1.669   6.395  16.243 -1.4693  0.3906  0.4996
12481TIP3   OH258857   4.657   5.008  14.474  0.9150 -0.0283  0.1721
12481TIP3    H158858   4.688   5.053  14.552  0.4290  0.1823  0.2492
12481TIP3    H258859   4.562   5.004  14.485  0.9975 -1.7548  0.5271
12482TIP3   OH258860   6.289   5.309  14.034  0.1354 -0.6357 -0.1058
12482TIP3    H158861   6.194   5.315  14.044  0.3180  0.6347  1.1720
12482TIP3    H258862   6.315   5.235  14.090  0.0541  0.0170  0.8066
12483TIP3   OH258863   4.126   2.463   1.935  0.1545  0.5658  0.0827
12483TIP3    H158864   4.099   2.470   1.843 -0.2179  1.0786  0.2280
12483TIP3    H258865   4.137   2.553   1.963 -2.0147  0.5552  1.2058
12484TIP3   OH258866   3.272   4.912   5.457  0.5368  0.4928 -0.3914
12484TIP3    H158867   3.355   4.879   5.422 -0.3408  0.2333 -2.3728
12484TIP3    H258868   3.279   5.007   5.451  0.3820  0.4486 -1.3437
12485TIP3   OH258869   2.458   3.192   4.028  0.4984  0.4803  0.1693
12485TIP3    H158870   2.379   3.139   4.020  0.1990  0.7378  1.2175
12485TIP3    H258871   2.498   3.164   4.110  0.3080  1.8770  0.7764
12486TIP3   OH258872   3.962   1.862  12.917  0.6651 -0.3117 -0.3951
12486TIP3    H158873   3.945   1.885  12.826 -1.3689 -0.6835 -0.1659
12486TIP3    H258874   3.945   1.943  12.966 -0.9922 -0.7775 -0.1271
12487TIP3   OH258875   3.420   6.310  12.417 -0.0279 -0.5951 -0.0918
12487TIP3    H158876   3.472   6.339  12.343 -1.2717  1.7468 -0.1373
12487TIP3    H258877   3.333   6.293  12.381 -0.3665 -0.4646  0.6330
12488TIP3   OH258878   3.907   5.554   0.790 -0.2811  0.2202 -0.4427
12488TIP3    H158879   3.826   5.520   0.828 -0.4466  0.4306 -0.6032
12488TIP3    H258880   3.922   5.500   0.713 -0.3547  0.2789 -0.4994
12489TIP3   OH258881   1.723   3.991  13.769  0.0308 -0.0114 -0.0336
12489TIP3    H158882   1.739   4.075  13.726  1.7046  0.2958  1.1122
12489TIP3    H258883   1.728   4.010  13.862 -0.6248 -1.2000  0.2634
12490TIP3   OH258884   5.499   0.383  16.513  0.0548  0.4493 -0.0853
12490TIP3    H158885   5.497   0.443  16.588 -1.2559  0.3237 -0.0009
12490TIP3    H258886   5.424   0.410  16.460  0.0846 -0.4450 -0.5875
12491TIP3   OH258887   6.063   4.314  12.250 -0.7890  0.3024 -0.2793
12491TIP3    H158888   6.070   4.361  12.167  1.1056  1.3926  0.4470
12491TIP3    H258889   6.098   4.227  12.230 -1.8374  0.0181 -0.9810
12492TIP3   OH258890   5.090   0.329  13.361 -0.3454 -1.1448  0.5376
12492TIP3    H158891   5.008   0.377  13.375 -0.0670 -0.9984  1.7834
12492TIP3    H258892   5.150   0.365  13.426  0.1546 -2.5220  0.8737
12493TIP3   OH258893   1.905   6.750   4.071 -0.2854  0.5521  0.1131
12493TIP3    H158894   1.928   6.686   4.003  0.9589  0.2351  0.8077
12493TIP3    H258895   1.925   6.835   4.030 -0.6162  0.4330 -0.3101
12494TIP3   OH258896   0.855   2.246  15.484 -0.0830 -0.1852  0.5309
12494TIP3    H158897   0.915   2.249  15.409 -0.6194 -0.8522  0.0615
12494TIP3    H258898   0.767   2.245  15.445 -0.3812 -0.1082  1.1799
12495TIP3   OH258899   5.962   3.902  10.962  0.0972 -0.6707 -0.5107
12495TIP3    H158900   5.884   3.862  11.000 -0.0816  1.0314  1.0415
12495TIP3    H258901   5.949   3.894  10.868 -2.2068 -0.0355 -0.3219
12496TIP3   OH258902   3.868   6.117  15.330  0.1903 -0.4538 -0.0652
12496TIP3    H158903   3.954   6.087  15.359  0.7154  1.3438  0.3642
12496TIP3    H258904   3.854   6.071  15.247  1.1541 -1.4489  0.2945
12497TIP3   OH258905   0.940   3.218  11.995  0.2255 -0.1989 -0.0192
12497TIP3    H158906   1.031   3.225  12.022 -0.0570 -0.4061  1.0495
12497TIP3    H258907   0.894   3.191  12.074 -0.7306 -0.3272 -0.6037
12498TIP3   OH258908   5.160   0.732  14.953 -0.3006  0.1878 -0.3313
12498TIP3    H158909   5.082   0.763  14.908 -0.5340  1.9530  1.1832
12498TIP3    H258910   5.129   0.703  15.039  0.6480  0.6058  0.1724
12499TIP3   OH258911   1.299   2.715   4.467  1.2316 -0.3926  0.2725
12499TIP3    H158912   1.380   2.761   4.492  1.3053  0.3628 -1.2372
12499TIP3    H258913   1.232   2.783   4.466  1.0088 -0.6153 -0.4455
12500TIP3   OH258914   5.645   5.436   3.508 -0.2024 -0.4857 -0.1560
12500TIP3    H158915   5.741   5.433   3.509 -0.2122 -2.3090 -0.1586
12500TIP3    H258916   5.623   5.525   3.535  1.4920 -0.4955  1.4989
12501TIP3   OH258917   5.981   3.170  13.072 -0.3445  0.1435  0.2557
12501TIP3    H158918   5.989   3.098  13.135  1.9448  1.5144  1.6542
12501TIP3    H258919   6.054   3.158  13.012 -1.8295 -0.4677 -1.5082
12502TIP3   OH258920   4.973   2.492   2.733  0.1071  0.5411 -0.5989
12502TIP3    H158921   4.880   2.498   2.756  0.3105  0.4085  0.3094
12502TIP3    H258922   4.982   2.406   2.692  0.0829 -0.0919  0.6633
12503TIP3   OH258923   4.472   4.468  13.473 -0.0785  0.0247 -0.3416
12503TIP3    H158924   4.392   4.458  13.525 -1.2505  0.6254 -1.9459
12503TIP3    H258925   4.468   4.396  13.410  0.7292 -0.0221 -0.3426
12504TIP3   OH258926   6.000   1.570  14.370 -0.4896 -0.0056 -0.2661
12504TIP3    H158927   6.046   1.547  14.289  2.3482 -0.5507  1.3718
12504TIP3    H258928   6.069   1.581  14.435 -2.6382  0.5569  2.0926
12505TIP3   OH258929   3.131   1.385   3.035  0.4274  0.4973  0.5272
12505TIP3    H158930   3.183   1.401   2.957 -0.1150 -1.2849 -0.2282
12505TIP3    H258931   3.095   1.297   3.024 -0.8868  0.7790  2.0856
12506TIP3   OH258932   0.176   3.755   1.016 -1.0372 -0.0258  0.4031
12506TIP3    H158933   0.201   3.667   0.988 -0.1224  0.3148  0.1285
12506TIP3    H258934   0.221   3.813   0.955 -3.1715  0.6117 -0.6971
12507TIP3   OH258935   2.413   0.250   2.821  0.0059 -0.4208 -0.1243
12507TIP3    H158936   2.459   0.215   2.897 -1.2770 -1.3201  0.2709
12507TIP3    H258937   2.364   0.325   2.855 -0.7345 -0.9509 -0.0003
12508TIP3   OH258938   6.254   5.128   0.552 -0.3883 -0.2643 -0.2768
12508TIP3    H158939   6.343   5.153   0.529 -0.5701  0.0779 -0.6348
12508TIP3    H258940   6.257   5.110   0.646 -0.2756  1.3031  0.0532
12509TIP3   OH258941   2.405   0.213  13.787  0.4125 -0.7335  0.2804
12509TIP3    H158942   2.332   0.156  13.812 -0.2362  0.3263  0.9026
12509TIP3    H258943   2.365   0.299  13.773  1.2641 -0.5650 -1.3187
12510TIP3   OH258944   3.709   1.244   3.512  0.4126 -0.2255  0.1956
12510TIP3    H158945   3.713   1.220   3.604  1.1289  0.3635  0.3219
12510TIP3    H258946   3.624   1.211   3.483  0.6750 -1.4798  0.7568
12511TIP3   OH258947   6.761   4.239  12.410  0.3362  0.1907  0.1257
12511TIP3    H158948   6.711   4.262  12.489 -0.4717  1.4795 -0.7181
12511TIP3    H258949   6.704   4.179  12.362  0.8722 -0.6770  0.5535
12512TIP3   OH258950   6.665   3.740  14.479  0.3741  0.3030 -0.2640
12512TIP3    H158951   6.648   3.648  14.499  0.5748  0.4692  0.7310
12512TIP3    H258952   6.581   3.775  14.451 -0.5690  0.6153  2.5943
12513TIP3   OH258953   0.281   6.381   4.197  0.3194 -0.4045  0.3652
12513TIP3    H158954   0.256   6.327   4.272 -1.0670 -0.9628 -0.4635
12513TIP3    H258955   0.377   6.379   4.197  0.4231  0.8028  2.9363
12514TIP3   OH258956   2.197   6.625  14.771  0.2858  0.3385  0.2887
12514TIP3    H158957   2.225   6.716  14.783  1.7894  0.0141 -0.4553
12514TIP3    H258958   2.256   6.591  14.703 -0.4275 -1.1157  0.3572
12515TIP3   OH258959   3.931   5.072  13.917  0.2487  0.1042  0.0786
12515TIP3    H158960   3.907   5.039  14.004  2.6940 -1.5094  0.2384
12515TIP3    H258961   3.915   4.998  13.858  1.1299  0.2850 -0.3981
12516TIP3   OH258962   5.576   0.138   3.345 -0.2702  0.4699 -0.0886
12516TIP3    H158963   5.503   0.108   3.399  0.3454  0.5005  0.7655
12516TIP3    H258964   5.559   0.231   3.332  0.2785  0.7733  1.2040
12517TIP3   OH258965   0.568   1.569  16.802 -0.5657 -0.4670  0.4632
12517TIP3    H158966   0.493   1.628  16.807 -0.7205 -0.7714  2.7294
12517TIP3    H258967   0.534   1.484  16.828  0.5209 -0.6246  1.4459
12518TIP3   OH258968   3.511   2.680  12.453  0.4000 -0.3597 -0.4663
12518TIP3    H158969   3.431   2.634  12.478  0.7738 -0.8147 -0.0739
12518TIP3    H258970   3.488   2.772  12.458  0.1515 -0.4626  0.5474
12519TIP3   OH258971   1.587   2.070   1.373 -0.4112 -0.0858 -0.0328
12519TIP3    H158972   1.608   1.981   1.344 -1.7924 -0.8907  1.2956
12519TIP3    H258973   1.562   2.115   1.292  1.1944 -0.5866 -0.8650
12520TIP3   OH258974   4.809   3.473   5.198  0.2902 -0.5473  0.5550
12520TIP3    H158975   4.828   3.529   5.123  1.7963 -0.1400  1.2012
12520TIP3    H258976   4.736   3.418   5.169 -1.7164  2.1469  0.0992
12521TIP3   OH258977   4.093   0.747   3.668 -0.3923  0.8034  0.6235
12521TIP3    H158978   4.105   0.839   3.648  1.3637  0.4430 -0.2050
12521TIP3    H258979   4.167   0.724   3.724 -0.0916 -0.3460 -0.1763
12522TIP3   OH258980   1.265   6.047  15.680 -0.1244 -0.3837  0.0947
12522TIP3    H158981   1.329   6.103  15.724 -0.9471  1.2426 -0.7078
12522TIP3    H258982   1.288   6.053  15.587 -1.5017  0.3519 -0.2200
12523TIP3   OH258983   6.701   1.070  16.734  0.3966 -0.5801 -0.0859
12523TIP3    H158984   6.626   1.012  16.745  0.5668 -0.6316  0.9534
12523TIP3    H258985   6.674   1.152  16.776  1.0809 -0.7582  0.7333
12524TIP3   OH258986   0.719   1.582  14.678  0.5637  0.2062  0.1609
12524TIP3    H158987   0.713   1.643  14.751  0.2373  0.8587 -0.4038
12524TIP3    H258988   0.800   1.607  14.633  2.8335 -2.4938  2.3097
12525TIP3   OH258989   6.730   4.234   5.621  0.2594 -0.1291  0.6205
12525TIP3    H158990   6.710   4.218   5.529  2.3883 -0.0440  0.0989
12525TIP3    H258991   6.781   4.158   5.649 -0.1397 -0.0302  1.6746
12526TIP3   OH258992   0.297   6.590  13.089 -0.0943  0.2693 -0.1953
12526TIP3    H158993   0.286   6.499  13.116 -0.9799  0.0695 -1.1784
12526TIP3    H258994   0.261   6.593  13.001  0.7212  1.3879 -0.5068
12527TIP3   OH258995   4.628   5.383  10.667 -0.6043  0.2053 -0.3218
12527TIP3    H158996   4.606   5.398  10.759  0.3370 -0.2053 -0.0123
12527TIP3    H258997   4.629   5.288  10.658  1.4022  0.1573 -0.1859
12528TIP3   OH258998   5.561   5.867   0.230  0.3472  0.0673  0.4645
12528TIP3    H158999   5.639   5.909   0.268  0.2321 -0.0853  0.8777
12528TIP3    H259000   5.554   5.904   0.142  0.2083  0.9768  0.8449
12529TIP3   OH259001   6.268   1.155   4.302  0.1732 -0.2092  0.0474
12529TIP3    H159002   6.281   1.215   4.375 -0.8374 -0.1498  0.2013
12529TIP3    H259003   6.271   1.210   4.224 -2.1994  0.3357  0.2674
12530TIP3   OH259004   2.253   1.437   6.101 -0.2800 -0.5231  0.2931
12530TIP3    H159005   2.282   1.350   6.073  0.6892 -0.7349  1.8734
12530TIP3    H259006   2.270   1.439   6.195 -0.9460  1.1358  0.4067
12531TIP3   OH259007   5.509   5.747   2.633 -0.5221  0.3831 -0.2032
12531TIP3    H159008   5.486   5.759   2.725  0.3601  1.0458 -0.0529
12531TIP3    H259009   5.466   5.820   2.588  0.6527  1.2237 -0.0173
12532TIP3   OH259010   6.028   1.426  11.851 -0.2981 -0.1863 -0.0698
12532TIP3    H159011   5.979   1.367  11.793 -1.9517  1.9900 -1.0444
12532TIP3    H259012   5.961   1.478  11.894  1.0165  2.9344 -1.4285
12533TIP3   OH259013   1.259   3.869  14.695 -0.2052  0.1814 -0.1083
12533TIP3    H159014   1.320   3.856  14.622 -0.1821 -1.2543  0.1405
12533TIP3    H259015   1.180   3.905  14.654 -0.9283 -2.4242 -1.2002
12534TIP3   OH259016   5.322   1.036   4.200  0.2138  0.1298  0.5545
12534TIP3    H159017   5.321   1.013   4.107 -1.0027  0.9397  0.3368
12534TIP3    H259018   5.397   0.989   4.236  2.1324  1.5973 -1.2968
12535TIP3   OH259019   2.638   4.358  14.985  0.8753 -0.0172 -0.1223
12535TIP3    H159020   2.722   4.374  15.027 -0.2646 -0.8456  2.7113
12535TIP3    H259021   2.574   4.365  15.055 -1.2005 -1.6804 -1.6964
12536TIP3   OH259022   0.326   2.138  16.914  0.0484 -0.1240 -0.0362
12536TIP3    H159023   0.384   2.074  16.955  0.3394  0.7666  0.9608
12536TIP3    H259024   0.257   2.153  16.978  0.7727  1.6434  0.3667
12537TIP3   OH259025   1.104   4.816  15.267  0.1233 -0.0894  0.5688
12537TIP3    H159026   1.166   4.827  15.339  2.3363 -1.2326 -1.0402
12537TIP3    H259027   1.108   4.723  15.246 -0.9052  0.1215 -0.6560
12538TIP3   OH259028   5.816   2.761   0.891 -0.4605  0.0610 -0.5049
12538TIP3    H159029   5.834   2.852   0.913 -1.7301  0.1218  0.3441
12538TIP3    H259030   5.898   2.730   0.851  0.7312  0.9435  1.1364
12539TIP3   OH259031   0.223   4.257   2.792  0.0843 -0.3117  0.2988
12539TIP3    H159032   0.275   4.337   2.788 -0.4208  0.0084 -0.1563
12539TIP3    H259033   0.286   4.187   2.803  0.5036  0.1930  1.2875
12540TIP3   OH259034   4.304   2.719  14.251  0.3593  0.4447 -0.3524
12540TIP3    H159035   4.398   2.734  14.242  0.9037 -1.2869  1.7312
12540TIP3    H259036   4.293   2.688  14.340 -2.1385  0.0074 -0.7416
12541TIP3   OH259037   1.715   4.125   1.150 -0.0360  0.3484  0.2467
12541TIP3    H159038   1.719   4.071   1.229 -0.4073 -0.0018  0.0280
12541TIP3    H259039   1.710   4.214   1.182  1.2215  0.3051  0.6113
12542TIP3   OH259040   3.677   0.463  13.204 -0.0387 -0.0179  0.0723
12542TIP3    H159041   3.626   0.544  13.206  1.4887  1.1466 -2.5192
12542TIP3    H259042   3.765   0.490  13.230  0.0193 -1.3715  1.4325
12543TIP3   OH259043   2.632   0.899  15.434 -0.5391  0.3602 -0.1464
12543TIP3    H159044   2.571   0.920  15.363 -0.7840 -0.3014 -0.1367
12543TIP3    H259045   2.623   0.804  15.446 -0.2933  0.4248  0.5780
12544TIP3   OH259046   6.763   1.932   3.043  0.0001 -0.3553  0.5026
12544TIP3    H159047   6.740   2.024   3.059 -1.8762 -0.7443  0.2552
12544TIP3    H259048   6.754   1.890   3.128 -2.7756 -0.9869 -0.0252
12545TIP3   OH259049   5.725   4.870   2.858  0.4447 -0.0570  0.2296
12545TIP3    H159050   5.767   4.885   2.943 -3.1987 -2.1339  2.6756
12545TIP3    H259051   5.692   4.956   2.832  1.1898  0.5194  1.1463
12546TIP3   OH259052   2.223   4.781  12.895  0.0933 -0.1903  0.0215
12546TIP3    H159053   2.215   4.714  12.827 -0.1069 -2.3213  2.0317
12546TIP3    H259054   2.300   4.755  12.945 -0.8997  0.1710  1.8048
12547TIP3   OH259055   6.728   4.565  13.680 -0.0588 -0.6909 -0.0785
12547TIP3    H159056   6.778   4.511  13.619  1.5647  1.4405 -0.7964
12547TIP3    H259057   6.765   4.653  13.669  0.0857 -0.0893  3.7010
12548TIP3   OH259058   4.779   2.622   4.526 -0.0538 -0.1173  0.1974
12548TIP3    H159059   4.763   2.546   4.470 -2.2860 -0.6881  1.5051
12548TIP3    H259060   4.852   2.668   4.483 -1.3131 -0.7513 -2.8947
12549TIP3   OH259061   6.527   0.679   1.140 -0.3045  0.0305  0.1161
12549TIP3    H159062   6.477   0.634   1.208  0.2920 -0.4620  0.2370
12549TIP3    H259063   6.615   0.642   1.146  0.0580  0.8290 -0.1486
12550TIP3   OH259064   2.153   0.148   3.791  0.0539 -0.3518  0.2161
12550TIP3    H159065   2.191   0.200   3.720  0.5285 -0.8385  0.0980
12550TIP3    H259066   2.173   0.197   3.870 -2.7964  1.5854 -0.1205
12551TIP3   OH259067   4.627   3.843  16.609 -0.0021  0.2206 -0.1134
12551TIP3    H159068   4.694   3.784  16.642  0.0609  0.2046 -0.2696
12551TIP3    H259069   4.617   3.818  16.517  1.2671  1.5916 -0.6584
12552TIP3   OH259070   4.957   1.286   4.123  0.0832 -0.6660  0.7062
12552TIP3    H159071   5.022   1.253   4.185  2.0112  0.9873 -0.3526
12552TIP3    H259072   5.007   1.316   4.048 -1.7501  1.9856  0.4125
12553TIP3   OH259073   1.799   1.135  11.697 -0.1458 -0.2468  0.0231
12553TIP3    H159074   1.743   1.209  11.674 -1.7795 -1.1911  0.7639
12553TIP3    H259075   1.744   1.058  11.684  1.0601 -1.2505  0.5831
12554TIP3   OH259076   1.165   6.498   3.358  0.1124  0.7037  0.2658
12554TIP3    H159077   1.258   6.479   3.344  0.0177  0.0660  0.4832
12554TIP3    H259078   1.157   6.509   3.453 -0.3726 -1.2104  0.4977
12555TIP3   OH259079   3.570   2.754  12.199  0.3039  0.3219  0.3152
12555TIP3    H159080   3.558   2.715  12.286 -1.4769 -0.6954 -0.3255
12555TIP3    H259081   3.598   2.680  12.144 -0.4218  0.5268 -0.3479
12556TIP3   OH259082   6.289   6.427   4.031  0.0962 -0.2334  0.5149
12556TIP3    H159083   6.223   6.465   4.090  1.3592 -0.3852  2.0864
12556TIP3    H259084   6.300   6.493   3.962  0.2582  1.0250  1.6970
12557TIP3   OH259085   4.659   0.332   2.884  0.0972 -0.6145  0.2448
12557TIP3    H159086   4.744   0.353   2.920  0.0069  1.6829 -0.6629
12557TIP3    H259087   4.627   0.259   2.937  0.9879  0.9343  3.1313
12558TIP3   OH259088   3.256   0.577  12.789 -0.0178 -0.6015 -0.3359
12558TIP3    H159089   3.246   0.601  12.697 -0.3280 -0.9191 -0.3883
12558TIP3    H259090   3.318   0.641  12.824 -1.6274  0.9711 -0.2096
12559TIP3   OH259091   0.734   3.791   4.882 -0.1643 -0.1906 -0.0760
12559TIP3    H159092   0.655   3.843   4.901 -0.0118 -0.0474  0.1726
12559TIP3    H259093   0.712   3.703   4.911  0.3495  0.1897  1.5325
12560TIP3   OH259094   4.896   4.642  12.974 -0.1428  0.7228  0.1687
12560TIP3    H159095   4.801   4.658  12.972 -0.0830  1.0558 -0.0750
12560TIP3    H259096   4.919   4.652  13.067 -0.1739  1.6986  0.0832
12561TIP3   OH259097   0.390   3.545   1.968 -0.0694 -0.2635 -0.6020
12561TIP3    H159098   0.300   3.561   1.941 -0.5339 -0.5691  0.6563
12561TIP3    H259099   0.391   3.453   1.994  0.7598 -0.4201 -1.1668
12562TIP3   OH259100   5.716   1.086  15.828  0.5534  0.1625  0.0159
12562TIP3    H159101   5.701   1.062  15.919  1.9421 -0.7970  0.0313
12562TIP3    H259102   5.629   1.109  15.794 -0.0863 -0.1571  1.3840
12563TIP3   OH259103   1.407   1.189  13.929  0.1869  0.2276  0.1984
12563TIP3    H159104   1.351   1.145  13.992 -0.6076  0.6854 -0.1655
12563TIP3    H259105   1.483   1.219  13.980 -1.0718  1.8021  1.2628
12564TIP3   OH259106   1.252   2.207  13.903  0.0760 -0.5127  0.0841
12564TIP3    H159107   1.241   2.286  13.850  0.3140 -0.2715  0.3918
12564TIP3    H259108   1.223   2.135  13.845 -0.8261 -0.1386  0.0588
12565TIP3   OH259109   3.902   6.661  14.053  0.7785  0.3529 -0.6768
12565TIP3    H159110   3.956   6.591  14.015  1.2599 -0.5658  1.5137
12565TIP3    H259111   3.929   6.664  14.145 -0.7925  1.9647 -0.2150
12566TIP3   OH259112   6.758   5.052  11.932  0.4118 -0.5638  0.0955
12566TIP3    H159113   6.793   5.141  11.924  2.1955 -1.1049  1.3461
12566TIP3    H259114   6.816   4.998  11.880  0.7375 -1.3083  1.1968
12567TIP3   OH259115   3.130   5.051  12.825  0.5341 -0.5086  0.0215
12567TIP3    H159116   3.113   4.962  12.795  1.9205 -1.2678  1.3353
12567TIP3    H259117   3.176   5.093  12.752  1.5909 -1.5088  0.0761
12568TIP3   OH259118   4.397   2.155   0.535  0.0375  0.1252 -0.4491
12568TIP3    H159119   4.458   2.098   0.582  0.7608  0.5772 -0.8314
12568TIP3    H259120   4.315   2.105   0.533  0.8057 -1.1687 -1.3108
12569TIP3   OH259121   3.542   6.565   1.184  0.2424  0.3048  0.3698
12569TIP3    H159122   3.530   6.657   1.208 -1.8632  0.3480 -0.6421
12569TIP3    H259123   3.628   6.543   1.220  1.2471  2.9153 -0.1702
12570TIP3   OH259124   2.783   0.878  11.717 -0.0412  0.3723  0.3566
12570TIP3    H159125   2.702   0.930  11.716 -0.7857 -0.7524  0.1854
12570TIP3    H259126   2.758   0.796  11.761  0.6932 -0.4716 -0.7435
12571TIP3   OH259127   3.319   3.692  14.519 -0.0720 -0.0366 -0.5243
12571TIP3    H159128   3.247   3.631  14.509 -0.0652 -0.3677  1.1578
12571TIP3    H259129   3.300   3.739  14.601  1.0335  0.6734 -0.6507
12572TIP3   OH259130   6.261   2.918  15.971 -0.2032 -0.4459 -0.2237
12572TIP3    H159131   6.172   2.929  15.937 -0.6027  1.9179  1.3702
12572TIP3    H259132   6.276   2.823  15.967 -2.0590 -0.7489 -2.2344
12573TIP3   OH259133   5.826   2.239  15.497  0.1925 -0.0096  0.6797
12573TIP3    H159134   5.745   2.208  15.538  0.3474 -0.4886  0.6343
12573TIP3    H259135   5.812   2.225  15.403 -0.9063  2.8037  0.3180
12574TIP3   OH259136   1.055   6.733   3.014 -0.3470  0.1752  1.0072
12574TIP3    H159137   0.986   6.672   2.989 -0.3682  0.4543  0.3820
12574TIP3    H259138   1.019   6.781   3.089 -0.3877 -0.4676  1.4081
12575TIP3   OH259139   1.058   1.324   0.190  0.0240  0.3222 -0.6540
12575TIP3    H159140   1.013   1.342   0.108 -0.1450  2.7135 -0.0894
12575TIP3    H259141   0.988   1.319   0.255  0.1346 -1.7531 -0.6014
12576TIP3   OH259142   6.286   4.091  12.299  0.2000 -0.0368  0.0134
12576TIP3    H159143   6.342   4.112  12.224  1.4751  0.5953  1.0847
12576TIP3    H259144   6.297   4.166  12.358  0.4573 -1.1976  1.4952
12577TIP3   OH259145   4.512   5.529  11.452 -0.1863  0.0982 -0.1394
12577TIP3    H159146   4.465   5.469  11.394 -1.3615  1.2393 -0.4105
12577TIP3    H259147   4.524   5.479  11.533  0.1992 -1.0103 -0.8449
12578TIP3   OH259148   4.913   2.138   0.600  0.2420 -0.0494 -0.5973
12578TIP3    H159149   4.819   2.156   0.598  0.2699  0.2229  0.1433
12578TIP3    H259150   4.939   2.134   0.508 -0.4448  0.1321 -0.8034
12579TIP3   OH259151   6.154   0.263   0.841  0.0482  0.3364 -0.1296
12579TIP3    H159152   6.241   0.233   0.866 -0.6613 -2.0880 -0.3357
12579TIP3    H259153   6.163   0.289   0.749  0.5555  0.0784 -0.1570
12580TIP3   OH259154   5.799   2.079  13.553  0.6362  0.4861  0.9402
12580TIP3    H159155   5.729   2.027  13.593  0.9294 -1.4311 -0.8551
12580TIP3    H259156   5.769   2.094  13.463  1.2829  2.1463  0.9608
12581TIP3   OH259157   0.802   6.537  13.252 -0.2856 -0.9537  0.3465
12581TIP3    H159158   0.867   6.607  13.254 -2.3408  1.0796  1.3586
12581TIP3    H259159   0.812   6.491  13.335 -1.8411  1.1452  1.7997
12582TIP3   OH259160   1.226   6.712   2.206 -0.3952 -0.2212  0.1149
12582TIP3    H159161   1.160   6.693   2.272  0.1316  1.2641  1.1077
12582TIP3    H259162   1.191   6.787   2.158 -0.1925 -0.4980 -0.4756
12583TIP3   OH259163   0.331   0.186   3.819  0.2854  0.6229  0.1648
12583TIP3    H159164   0.261   0.234   3.863  0.6575  2.1717 -0.8400
12583TIP3    H259165   0.410   0.235   3.841  0.8508 -0.2265  0.0606
12584TIP3   OH259166   4.712   2.848   3.854 -0.3848  0.4875  0.3207
12584TIP3    H159167   4.646   2.818   3.917 -1.7140  1.3388 -0.6046
12584TIP3    H259168   4.780   2.781   3.857 -1.3262 -0.4795  1.2546
12585TIP3   OH259169   6.441   5.582  14.769 -0.2250  0.0420 -0.3300
12585TIP3    H159170   6.536   5.580  14.762 -0.1257  0.1481  0.8242
12585TIP3    H259171   6.415   5.490  14.779 -0.3480 -0.0868 -1.6170
12586TIP3   OH259172   2.846   2.774  13.941  0.2402 -0.1184  0.0470
12586TIP3    H159173   2.769   2.829  13.931  0.3410 -0.1570 -1.0047
12586TIP3    H259174   2.887   2.773  13.855 -0.6531 -3.1585 -0.4505
12587TIP3   OH259175   3.339   3.172   5.799  0.0883  0.1054 -0.2335
12587TIP3    H159176   3.317   3.231   5.871 -1.4464 -1.0719  0.3150
12587TIP3    H259177   3.401   3.110   5.837 -2.3247 -1.8393  0.8210
12588TIP3   OH259178   3.063   1.163   0.888 -0.2693 -0.7504 -0.4551
12588TIP3    H159179   3.098   1.128   0.806  1.4777 -1.9821  0.7517
12588TIP3    H259180   3.076   1.093   0.951 -2.9053 -0.3981  0.6283
12589TIP3   OH259181   0.790   3.224   5.525 -0.3651 -0.2819  0.7813
12589TIP3    H159182   0.778   3.135   5.559  0.5813 -0.1035  1.6402
12589TIP3    H259183   0.701   3.254   5.505 -0.6616 -1.6157 -0.0694
12590TIP3   OH259184   4.475   6.602   5.016  0.1889  0.2136  0.0711
12590TIP3    H159185   4.383   6.573   5.017  0.4860 -0.7883 -0.0764
12590TIP3    H259186   4.514   6.559   5.092  1.7061 -3.5980 -2.5587
12591TIP3   OH259187   5.731   4.515   1.727 -0.4884  0.1181 -0.7292
12591TIP3    H159188   5.799   4.530   1.793 -0.4307  3.1322 -1.3204
12591TIP3    H259189   5.660   4.575   1.751 -0.7455  0.8266 -2.9839
12592TIP3   OH259190   2.363   2.637  15.329  0.1360 -0.2071 -0.2627
12592TIP3    H159191   2.415   2.717  15.322  0.6255 -0.5334 -0.4330
12592TIP3    H259192   2.319   2.644  15.413  3.4577 -1.6505  1.8329
12593TIP3   OH259193   1.658   3.040  12.169  0.2375  0.2034  0.0104
12593TIP3    H159194   1.652   2.994  12.085 -0.3216 -0.7330  0.5451
12593TIP3    H259195   1.747   3.023  12.199  0.5672  0.8607 -0.5567
12594TIP3   OH259196   6.262   6.035   0.717  0.6174  0.1701 -0.1816
12594TIP3    H159197   6.210   5.997   0.647 -0.6911  0.7324  0.4611
12594TIP3    H259198   6.317   6.100   0.673 -0.8157  1.1379 -0.5983
12595TIP3   OH259199   4.334   1.871  15.194  0.3466  0.0631  0.1232
12595TIP3    H159200   4.410   1.899  15.143  0.0391  1.4063  0.3416
12595TIP3    H259201   4.332   1.930  15.269  0.1061 -1.1191  1.0775
12596TIP3   OH259202   0.809   3.527  12.199 -0.2636  0.7899 -0.2680
12596TIP3    H159203   0.784   3.556  12.287  0.3320  1.2782 -0.2588
12596TIP3    H259204   0.846   3.440  12.213 -0.3791  0.7711 -0.0705
12597TIP3   OH259205   5.479   1.153   3.411  0.1740  0.5639 -0.1524
12597TIP3    H159206   5.554   1.154   3.470  1.3642  0.2974 -1.5814
12597TIP3    H259207   5.468   1.060   3.389 -0.4886  0.6204 -0.0625
12598TIP3   OH259208   0.024   4.503   0.059 -0.3074 -0.2286  0.0777
12598TIP3    H159209  -0.024   4.475   0.137 -0.5465 -0.0080  0.0139
12598TIP3    H259210  -0.014   4.453  -0.013  0.4592 -1.0285  0.2084
12599TIP3   OH259211   3.263   0.111  12.554 -0.1282  0.0259  0.1048
12599TIP3    H159212   3.217   0.194  12.564  0.5577  0.4954 -0.5347
12599TIP3    H259213   3.260   0.093  12.460 -1.7496 -1.5512  0.3991
12600TIP3   OH259214   5.020   0.253  16.584  0.5036 -0.1326 -0.8236
12600TIP3    H159215   4.981   0.339  16.597  1.4273  0.2493 -0.4872
12600TIP3    H259216   4.952   0.191  16.609  0.8043  0.5249  1.9437
12601TIP3   OH259217   1.662   4.607  12.390  0.2216  0.0821  0.1928
12601TIP3    H159218   1.711   4.637  12.313  0.1987  1.0532  0.5378
12601TIP3    H259219   1.706   4.527  12.417 -0.0414 -0.5067 -1.0848
12602TIP3   OH259220   2.068   6.152  12.723  0.0738  0.7714  0.4606
12602TIP3    H159221   2.061   6.058  12.741  0.9615  0.3336 -1.3137
12602TIP3    H259222   2.085   6.191  12.809  1.4568 -0.8902  1.0006
12603TIP3   OH259223   4.404   3.289  14.726  0.1093 -0.4346  0.8249
12603TIP3    H159224   4.443   3.292  14.813 -1.8629  0.3741  1.7361
12603TIP3    H259225   4.475   3.258  14.669  1.6266 -0.3702  2.5879
12604TIP3   OH259226   6.223   1.330   5.541  0.0760 -0.4190  0.2897
12604TIP3    H159227   6.289   1.385   5.500 -0.4735  0.5813  0.7221
12604TIP3    H259228   6.256   1.315   5.630  0.2563 -0.8471  0.1519
12605TIP3   OH259229   1.928   2.573   0.196 -0.1312  0.2681 -0.5546
12605TIP3    H159230   1.979   2.612   0.125 -0.5124  0.1548 -0.8877
12605TIP3    H259231   1.904   2.486   0.164 -0.9563  0.5028 -0.6046
12606TIP3   OH259232   6.174   1.492  14.552  0.0336  0.2505 -0.1567
12606TIP3    H159233   6.224   1.460  14.477  1.7276  1.7965  0.2551
12606TIP3    H259234   6.201   1.436  14.625  2.4607  2.0064  0.4063
12607TIP3   OH259235   0.886   6.753  15.533  0.0470 -0.3370  0.3331
12607TIP3    H159236   0.798   6.775  15.503  0.3021 -0.7886 -0.8038
12607TIP3    H259237   0.933   6.837  15.535 -0.0754 -0.2537 -0.2089
12608TIP3   OH259238   4.319   3.098  12.858 -0.1200 -0.4278  0.2043
12608TIP3    H159239   4.298   3.150  12.780  0.5233 -0.5517 -0.0616
12608TIP3    H259240   4.242   3.044  12.872  0.3509 -1.5580 -1.3045
12609TIP3   OH259241   0.654   4.510  15.933  0.2613 -0.3041  0.7125
12609TIP3    H159242   0.735   4.505  15.884 -0.8415  2.1974 -1.6553
12609TIP3    H259243   0.609   4.427  15.916  0.1462  0.2673 -2.2847
12610TIP3   OH259244   6.031   3.148  13.427  0.4130  0.2916  0.6781
12610TIP3    H159245   6.000   3.235  13.452  1.2544  0.9512 -0.4560
12610TIP3    H259246   6.044   3.154  13.332  2.0481 -0.5457  0.8237
12611TIP3   OH259247   5.604   0.781  15.515 -0.1169 -0.2540  0.4218
12611TIP3    H159248   5.667   0.848  15.542  0.6610 -1.2260  1.0953
12611TIP3    H259249   5.536   0.830  15.468  1.1793  0.7994 -0.4283
12612TIP3   OH259250   4.907   4.128   3.590  0.0184 -0.4021  0.3886
12612TIP3    H159251   4.957   4.096   3.515 -0.6570 -1.7812  0.4967
12612TIP3    H259252   4.892   4.221   3.572  2.5271  0.0556  0.3245
12613TIP3   OH259253   2.321   1.439  12.504 -0.5372  0.0185 -0.4170
12613TIP3    H159254   2.388   1.507  12.499 -0.0464 -0.4793 -0.7003
12613TIP3    H259255   2.284   1.449  12.592  0.4135 -0.1678  0.0169
12614TIP3   OH259256   0.758   0.025   1.192 -0.0121  0.1032 -0.5187
12614TIP3    H159257   0.780  -0.056   1.238  1.3724 -0.5215 -2.1473
12614TIP3    H259258   0.679   0.003   1.142  0.4973 -0.3385 -1.1425
12615TIP3   OH259259   0.219   5.805   6.314 -0.5066 -0.0609 -0.4211
12615TIP3    H159260   0.180   5.786   6.400  0.5442  0.0412  0.0945
12615TIP3    H259261   0.254   5.894   6.323 -1.5349  0.4631 -1.3939
12616TIP3   OH259262   5.961   4.604   0.437  0.6433 -0.1351  0.3815
12616TIP3    H159263   5.925   4.573   0.521  3.0967 -1.9312  0.8781
12616TIP3    H259264   5.967   4.525   0.384  1.0172  0.6534 -0.7695
12617TIP3   OH259265   1.671   2.192   0.527  0.2135  0.6573  0.7098
12617TIP3    H159266   1.653   2.135   0.452 -0.9980  3.1147 -1.0115
12617TIP3    H259267   1.643   2.141   0.603 -2.5087 -0.4532 -0.8710
12618TIP3   OH259268   1.788   5.137   3.036 -0.1901 -0.3945 -0.0308
12618TIP3    H159269   1.732   5.096   2.969 -0.0371 -1.5790  0.5409
12618TIP3    H259270   1.728   5.193   3.085 -0.4742 -0.1586 -0.6301
12619TIP3   OH259271   0.081   1.559   3.662 -0.1128  0.6112 -0.0189
12619TIP3    H159272   0.104   1.479   3.710 -0.2031 -0.5636 -1.8346
12619TIP3    H259273   0.101   1.539   3.571 -1.9269  1.9948 -0.7817
12620TIP3   OH259274   3.451   1.092   1.088  0.3789  0.2378  0.2007
12620TIP3    H159275   3.362   1.124   1.099  0.4036  0.4229 -0.1670
12620TIP3    H259276   3.470   1.101   0.995  0.6278 -0.2046  0.2020
12621TIP3   OH259277   2.732   0.951   2.949  0.0931 -0.1449  0.1360
12621TIP3    H159278   2.681   1.019   2.993 -1.2232 -1.7345  1.1760
12621TIP3    H259279   2.749   0.886   3.017  0.1811 -1.4911 -1.1263
12622TIP3   OH259280   4.636   0.289   5.495 -0.9023 -0.0600  0.2666
12622TIP3    H159281   4.612   0.313   5.585 -0.7389  0.2698  0.2262
12622TIP3    H259282   4.590   0.353   5.441  0.0168  0.5525  0.1874
12623TIP3   OH259283   6.029   0.080   2.758  0.1190 -0.5453 -0.1807
12623TIP3    H159284   6.092   0.057   2.690  0.9811 -0.5108  0.5803
12623TIP3    H259285   6.020  -0.000   2.810 -0.6104 -0.6036 -0.3916
12624TIP3   OH259286   3.259   3.808  12.235 -0.1025  0.0110  0.1218
12624TIP3    H159287   3.250   3.834  12.143  1.0060 -2.0479 -0.6356
12624TIP3    H259288   3.172   3.778  12.260 -0.7048  1.6953  0.1583
12625TIP3   OH259289   5.395   2.403  16.883  0.2909 -0.6094  0.1223
12625TIP3    H159290   5.329   2.417  16.951 -0.7106 -0.2390 -0.8806
12625TIP3    H259291   5.401   2.488  16.838 -1.0288 -1.4921 -1.8889
12626TIP3   OH259292   1.261   2.520  13.780 -0.2982  0.1570  0.1907
12626TIP3    H159293   1.286   2.539  13.871  1.6030 -1.8464  0.1620
12626TIP3    H259294   1.325   2.566  13.727 -0.2473 -0.1919 -0.0566
12627TIP3   OH259295   6.498   4.690  11.565  0.4913  0.0962  0.3610
12627TIP3    H159296   6.529   4.638  11.491  0.4254  1.3548 -0.5814
12627TIP3    H259297   6.566   4.681  11.631 -0.0561 -2.1273  0.7137
12628TIP3   OH259298   6.278   2.119   6.532  0.0773 -0.3825 -0.3176
12628TIP3    H159299   6.370   2.148   6.532  0.0760 -0.3752 -0.0016
12628TIP3    H259300   6.283   2.024   6.523  0.1581 -0.4927  0.7322
12629TIP3   OH259301   2.248   5.303  10.742 -0.0939  0.2138  0.3151
12629TIP3    H159302   2.159   5.334  10.758 -0.1583 -0.2144  0.8174
12629TIP3    H259303   2.236   5.223  10.691  0.0594  0.8485 -0.7432
12630TIP3   OH259304   3.166   5.287  15.395 -0.3750  0.3636 -0.1627
12630TIP3    H159305   3.126   5.250  15.473 -0.6576  1.0001  0.0009
12630TIP3    H259306   3.260   5.284  15.413 -0.3853 -0.3272 -0.1852
12631TIP3   OH259307   3.403   4.509   3.570 -0.1723  0.2877 -0.1718
12631TIP3    H159308   3.470   4.546   3.627 -0.2029 -0.8278  0.6312
12631TIP3    H259309   3.320   4.543   3.605 -0.1954 -0.4479  0.5065
12632TIP3   OH259310   6.636   2.224   4.529 -0.2173  0.6187  0.2819
12632TIP3    H159311   6.636   2.307   4.575 -2.0829  1.4296 -1.0267
12632TIP3    H259312   6.557   2.179   4.561 -1.7270  1.3263 -2.1261
12633TIP3   OH259313   5.853   5.925   2.571 -0.2394  0.0703  0.2212
12633TIP3    H159314   5.801   5.955   2.646  1.5355  0.2381  1.4307
12633TIP3    H259315   5.916   5.995   2.556  0.5009 -0.7111 -0.3653
12634TIP3   OH259316   2.195   5.987   2.904  0.4387 -0.1712  0.0222
12634TIP3    H159317   2.126   5.937   2.859  0.8226 -0.0993 -0.6527
12634TIP3    H259318   2.268   5.925   2.912  0.5247 -0.0505  0.1759
12635TIP3   OH259319   2.262   4.544  13.613  0.4918 -0.3183 -0.3420
12635TIP3    H159320   2.246   4.581  13.700 -1.2170  1.6418 -1.3995
12635TIP3    H259321   2.343   4.586  13.583  0.8453 -0.6632  0.1281
12636TIP3   OH259322   0.833   6.184   6.340  0.0070  0.2170 -0.3815
12636TIP3    H159323   0.824   6.125   6.415 -0.1722 -0.6994 -1.1037
12636TIP3    H259324   0.818   6.271   6.377 -0.7068 -0.2664  0.5395
12637TIP3   OH259325   3.219   2.475   4.265  0.1199 -0.0520 -0.1747
12637TIP3    H159326   3.134   2.474   4.221  0.3503  0.8513 -0.6757
12637TIP3    H259327   3.210   2.540   4.334  0.1794 -0.4942  0.2565
12638TIP3   OH259328   1.737   3.525   6.707  0.1597  0.2946  0.6044
12638TIP3    H159329   1.739   3.544   6.801  0.3428 -0.3908  0.7469
12638TIP3    H259330   1.663   3.464   6.697 -1.6549  2.4548 -0.1230
12639TIP3   OH259331   2.947   4.780   2.359 -0.2943 -0.1278 -0.0485
12639TIP3    H159332   3.027   4.739   2.328 -0.2137  1.6772 -2.4511
12639TIP3    H259333   2.902   4.710   2.407  2.7956 -1.0903  1.7066
12640TIP3   OH259334   1.670   2.761   4.917 -0.1420 -0.3125 -0.1075
12640TIP3    H159335   1.592   2.814   4.932 -0.1323  0.0931 -1.4170
12640TIP3    H259336   1.714   2.760   5.002 -0.2523  1.6090  0.0130
12641TIP3   OH259337   4.287   1.283  14.277  0.0857 -0.3949  0.0911
12641TIP3    H159338   4.340   1.346  14.325 -0.9689  0.1556  0.5602
12641TIP3    H259339   4.313   1.198  14.312  0.5923 -0.1326  0.3662
12642TIP3   OH259340   5.174   2.325   1.153 -0.0842  0.3394  0.3352
12642TIP3    H159341   5.078   2.323   1.147 -0.1470 -0.0788  1.4162
12642TIP3    H259342   5.192   2.391   1.219  0.3624 -0.0061  0.5579
12643TIP3   OH259343   5.639   4.064  12.669  0.0541  0.1531  0.3357
12643TIP3    H159344   5.588   4.115  12.605 -2.0183 -3.5411 -1.2564
12643TIP3    H259345   5.595   4.079  12.752 -0.9244  0.4686 -0.2225
12644TIP3   OH259346   0.135   5.840  11.776  0.5037 -0.6760  0.2704
12644TIP3    H159347   0.176   5.754  11.785 -1.3157 -1.5130  1.1145
12644TIP3    H259348   0.154   5.867  11.686  0.5819 -2.2390 -0.2027
12645TIP3   OH259349   5.093   5.094   2.246  0.0243 -0.2059 -0.3423
12645TIP3    H159350   5.159   5.161   2.231 -0.2720  0.0554 -0.4748
12645TIP3    H259351   5.131   5.039   2.316  0.1258  0.2816 -0.0128
12646TIP3   OH259352   4.322   3.370   5.033 -0.4043  0.0479 -0.2071
12646TIP3    H159353   4.237   3.327   5.040  0.5359 -1.8723  0.2795
12646TIP3    H259354   4.351   3.382   5.124 -0.4841  1.4179 -0.3472
12647TIP3   OH259355   4.626   0.350  14.767 -0.1750  0.6962 -0.2437
12647TIP3    H159356   4.651   0.441  14.778  0.6039  0.3897  0.6905
12647TIP3    H259357   4.619   0.338  14.673  0.2192  1.5941 -0.3958
12648TIP3   OH259358   1.284   3.039   2.695 -0.7644 -0.0324  0.1373
12648TIP3    H159359   1.318   3.065   2.781 -0.7100 -0.1626  0.1543
12648TIP3    H259360   1.207   3.095   2.683 -0.2288  0.6554 -0.1494
12649TIP3   OH259361   6.427   5.786  12.222  0.3403 -0.3663 -0.2892
12649TIP3    H159362   6.490   5.755  12.157  1.2075  0.2625  0.2324
12649TIP3    H259363   6.451   5.740  12.302  1.4832  1.3856  0.4320
12650TIP3   OH259364   4.065   6.520   1.816  0.5854 -0.4757 -0.5734
12650TIP3    H159365   4.057   6.429   1.787 -0.3211 -0.0299 -1.8135
12650TIP3    H259366   3.984   6.537   1.863  1.1675 -0.5740  0.4950
12651TIP3   OH259367   1.319   3.566  17.035 -0.1224  0.1804  0.7110
12651TIP3    H159368   1.278   3.642  17.075 -0.9793  1.2451 -1.9384
12651TIP3    H259369   1.246   3.508  17.013 -0.0159  0.7986 -1.4888
12652TIP3   OH259370   0.587   3.380  12.716  0.1831 -0.8295 -0.2987
12652TIP3    H159371   0.661   3.437  12.738  0.0424 -0.7068 -0.1398
12652TIP3    H259372   0.627   3.293  12.705  0.0088 -1.4345  2.8036
12653TIP3   OH259373   2.391   5.343  17.101  0.3370 -0.3586  0.2720
12653TIP3    H159374   2.349   5.356  17.016 -2.8398  0.7506  1.8532
12653TIP3    H259375   2.446   5.421  17.113  2.1869 -1.3043 -1.3509
12654TIP3   OH259376   6.770   2.532  14.844 -0.5152 -0.4203 -0.0303
12654TIP3    H159377   6.834   2.601  14.858  0.1329 -0.6676 -1.6083
12654TIP3    H259378   6.802   2.459  14.896  0.0581 -0.2864 -0.1867
12655TIP3   OH259379   3.269   0.204   2.887  0.0273  0.3602 -0.3796
12655TIP3    H159380   3.275   0.182   2.980 -0.3536  0.0545 -0.4222
12655TIP3    H259381   3.209   0.278   2.883 -0.5357 -0.0930 -0.4435
12656TIP3   OH259382   1.783   1.632   4.879  0.3596  0.2478 -0.4678
12656TIP3    H159383   1.865   1.654   4.835  1.9718 -2.3420  0.9787
12656TIP3    H259384   1.740   1.571   4.820 -0.4755  1.4371 -1.1246
12657TIP3   OH259385   0.233   6.298  13.138 -0.3655 -0.1763 -0.3574
12657TIP3    H159386   0.254   6.286  13.230  0.5700  1.4484 -0.3104
12657TIP3    H259387   0.292   6.238  13.092 -3.2520 -3.6767  0.1238
12658TIP3   OH259388   0.366   4.998   2.500 -0.3140  0.1528  0.3833
12658TIP3    H159389   0.426   5.050   2.553 -0.7434  1.6186 -0.4987
12658TIP3    H259390   0.400   4.909   2.504 -0.9212 -0.0610  3.9831
12659TIP3   OH259391   2.369   6.628   2.799 -0.0658 -0.2333  0.7454
12659TIP3    H159392   2.425   6.676   2.860 -0.0624  0.0060  0.5586
12659TIP3    H259393   2.289   6.609   2.850 -1.2507  2.3938  0.0634
12660TIP3   OH259394   3.755   2.033   5.266  0.5288  0.6291 -0.5670
12660TIP3    H159395   3.738   2.116   5.221  0.8636  0.2311 -1.4528
12660TIP3    H259396   3.714   1.967   5.210  2.3896 -0.0425 -1.1839
12661TIP3   OH259397   4.578   6.371  13.465  0.4245 -0.5285  0.0420
12661TIP3    H159398   4.639   6.439  13.433  0.5659 -1.1558 -1.0981
12661TIP3    H259399   4.592   6.297  13.405 -0.5443 -1.1502  0.5624
12662TIP3   OH259400   4.399   6.535  15.393  0.4660 -0.2653 -0.8099
12662TIP3    H159401   4.346   6.494  15.462  0.4657 -0.5406 -0.9699
12662TIP3    H259402   4.465   6.469  15.371  1.7950  0.6178  0.3922
12663TIP3   OH259403   4.448   3.283  11.507 -0.2043  0.5668 -0.7325
12663TIP3    H159404   4.486   3.355  11.457 -0.9480  0.1020 -2.0419
12663TIP3    H259405   4.522   3.227  11.529  0.4644  1.9683  0.7761
12664TIP3   OH259406   2.611   4.092  10.707  0.0797  0.3848 -1.2618
12664TIP3    H159407   2.611   4.188  10.710 -0.9306  0.4346  2.4604
12664TIP3    H259408   2.518   4.068  10.707  0.2555 -0.4978  0.6457
12665TIP3   OH259409   1.018   5.958   0.227 -0.0916  0.2662  0.1721
12665TIP3    H159410   0.973   6.043   0.232  0.5542  0.5523  2.5751
12665TIP3    H259411   0.948   5.896   0.205 -0.9089  1.2049  0.0244
12666TIP3   OH259412   1.140   2.448  14.256 -0.1575 -0.4426  0.0923
12666TIP3    H159413   1.102   2.484  14.175 -1.5582 -1.5181  0.2354
12666TIP3    H259414   1.122   2.515  14.322  1.1509  0.5241 -0.4740
12667TIP3   OH259415   0.930   0.252   1.772  0.0746 -0.2154  0.2313
12667TIP3    H159416   0.987   0.328   1.778  0.7417 -0.6609 -0.2426
12667TIP3    H259417   0.885   0.248   1.856  3.0686 -1.6443  1.9433
12668TIP3   OH259418   5.245   5.361  15.554  0.0067  0.1127  0.1131
12668TIP3    H159419   5.245   5.455  15.537 -0.3567  0.0690 -0.1421
12668TIP3    H259420   5.301   5.323  15.486 -0.7570  0.0277 -0.4717
12669TIP3   OH259421   1.694   3.297  12.537  0.0546 -0.0930  1.1343
12669TIP3    H159422   1.692   3.383  12.578  1.2948 -0.5262  2.1955
12669TIP3    H259423   1.762   3.304  12.470  2.9640 -1.1747  3.7031
12670TIP3   OH259424   4.137   2.381   0.931 -0.3968 -0.7129 -0.0642
12670TIP3    H159425   4.079   2.413   0.999  0.4710  0.9976 -0.0729
12670TIP3    H259426   4.218   2.359   0.976 -0.0210 -0.1441 -0.4424
12671TIP3   OH259427   1.231   3.211  12.003  0.1434 -0.4727  0.1624
12671TIP3    H159428   1.288   3.168  12.067  0.4177 -0.7912 -0.2865
12671TIP3    H259429   1.242   3.305  12.019 -0.1402 -0.5581  0.8752
12672TIP3   OH259430   1.499   4.269   4.053  0.4538 -0.0292 -0.2308
12672TIP3    H159431   1.514   4.363   4.047 -2.0499  0.6005  1.6037
12672TIP3    H259432   1.553   4.240   4.126  1.7385 -0.2192 -1.2088
12673TIP3   OH259433   0.381   2.208  13.324 -0.8612  0.0538  0.2430
12673TIP3    H159434   0.304   2.163  13.289 -2.1033  0.0473  2.7357
12673TIP3    H259435   0.451   2.187  13.262 -2.0845 -2.6787 -0.3902
12674TIP3   OH259436   1.498   6.242  15.784 -0.3792 -0.2359  0.5462
12674TIP3    H159437   1.580   6.286  15.762  0.6672 -2.5757 -0.6009
12674TIP3    H259438   1.520   6.149  15.788 -2.8490 -0.8994  0.9064
12675TIP3   OH259439   3.736   0.792   2.056  0.1741  0.0668  0.1721
12675TIP3    H159440   3.831   0.804   2.049  0.1786 -0.7012 -1.6201
12675TIP3    H259441   3.716   0.815   2.147  2.5319 -2.6498  1.5436
12676TIP3   OH259442   2.714   3.721   0.402 -0.0661 -0.2050 -0.4127
12676TIP3    H159443   2.689   3.687   0.488  2.3215  0.1148  0.4741
12676TIP3    H259444   2.784   3.663   0.373  1.7324  1.8496 -0.4047
12677TIP3   OH259445   4.405   0.431  12.961  0.1770 -0.0473 -0.4932
12677TIP3    H159446   4.324   0.381  12.960  0.5080 -0.6005 -0.0319
12677TIP3    H259447   4.405   0.477  12.877 -0.9609  0.5470 -0.1910
12678TIP3   OH259448   2.389   3.273   2.661 -0.1751  0.4425  0.4809
12678TIP3    H159449   2.463   3.334   2.662  0.3459 -0.1756  0.2133
12678TIP3    H259450   2.382   3.245   2.570  0.1731 -0.5825  0.7504
12679TIP3   OH259451   5.998   2.764  16.902  0.1688  0.0202 -0.3511
12679TIP3    H159452   6.005   2.858  16.919  2.9786 -0.4943  2.5667
12679TIP3    H259453   6.000   2.725  16.990 -0.8919 -2.7755 -1.4861
12680TIP3   OH259454   0.928   3.239   3.261  0.5893 -0.0221 -0.9084
12680TIP3    H159455   0.981   3.162   3.282  0.0339 -0.6969 -1.9264
12680TIP3    H259456   0.957   3.264   3.173 -1.5976 -1.1605 -2.0399
12681TIP3   OH259457   2.958   2.254  11.986  0.4882 -0.1652  0.5019
12681TIP3    H159458   2.935   2.167  11.953 -2.9394  1.3287 -1.5800
12681TIP3    H259459   2.883   2.280  12.039  0.1471  2.5087 -1.1364
12682TIP3   OH259460   4.698   2.188  12.104 -0.7208  0.0060  0.1293
12682TIP3    H159461   4.711   2.272  12.060 -1.0198  0.8309  1.5431
12682TIP3    H259462   4.656   2.211  12.187  1.6202 -1.2189  1.7688
12683TIP3   OH259463   1.743   4.482   6.302  0.0554 -0.0266  0.7184
12683TIP3    H159464   1.743   4.404   6.358  0.4253 -1.0917 -0.6879
12683TIP3    H259465   1.827   4.478   6.256 -1.0518 -0.3820 -1.4166
12684TIP3   OH259466   6.015   5.433  13.934  0.0714  0.3330 -0.3780
12684TIP3    H159467   6.070   5.511  13.944 -1.4635  1.4987 -0.4551
12684TIP3    H259468   5.926   5.468  13.930 -0.6098 -1.3781 -1.3320
12685TIP3   OH259469   6.606   1.322  16.151  0.6786  1.1403 -0.2312
12685TIP3    H159470   6.535   1.258  16.139 -0.0197  1.8149  0.2174
12685TIP3    H259471   6.672   1.274  16.202 -0.9295  1.4825  2.3972
12686TIP3   OH259472   4.382   1.314  16.509  0.1045 -0.0532  0.4289
12686TIP3    H159473   4.369   1.389  16.451  1.1915  0.0762  0.3335
12686TIP3    H259474   4.354   1.238  16.458 -2.7156  0.4059  1.1444
12687TIP3   OH259475   0.333   2.581   1.197  0.4978 -0.2581 -0.1919
12687TIP3    H159476   0.293   2.543   1.119 -1.0979 -0.7008  0.7940
12687TIP3    H259477   0.424   2.596   1.173 -0.1173  0.3242 -2.3940
12688TIP3   OH259478   6.653   2.257  13.129 -0.2638 -0.0634  0.1633
12688TIP3    H159479   6.570   2.218  13.157 -0.0439  0.8821  2.4242
12688TIP3    H259480   6.711   2.182  13.114 -1.5247 -0.7363 -1.5803
12689TIP3   OH259481   3.526   6.520  13.125  0.5908 -0.0784  0.0053
12689TIP3    H159482   3.520   6.426  13.109  0.5323 -0.1660  0.5093
12689TIP3    H259483   3.447   6.556  13.087  0.5674 -0.2453 -0.1059
12690TIP3   OH259484   1.355   1.060   5.821 -0.1017  0.3898  0.2480
12690TIP3    H159485   1.438   1.018   5.844  0.3805  0.0179 -1.9644
12690TIP3    H259486   1.288   0.996   5.847  0.4873 -0.6520 -0.7282
12691TIP3   OH259487   4.317   6.633  10.796 -0.1359 -0.4714  0.1428
12691TIP3    H159488   4.341   6.545  10.765 -0.0021  0.5308 -2.9544
12691TIP3    H259489   4.221   6.635  10.791 -0.0583  0.2264 -2.1193
12692TIP3   OH259490   6.419   3.985   2.616 -0.3264 -0.1542  0.2956
12692TIP3    H159491   6.422   4.080   2.627  2.0824 -0.3013  1.9606
12692TIP3    H259492   6.489   3.965   2.554  1.4962 -0.9748  2.4637
12693TIP3   OH259493   1.232   5.852  11.405  0.2365 -0.3778 -0.1657
12693TIP3    H159494   1.169   5.878  11.338 -0.4667  0.6098  0.8585
12693TIP3    H259495   1.311   5.902  11.385  0.7117 -1.5576 -1.4029
12694TIP3   OH259496   5.002   1.551   1.820  0.1841 -0.6682 -0.0603
12694TIP3    H159497   4.939   1.501   1.872  0.5483 -1.0458  0.0201
12694TIP3    H259498   4.948   1.601   1.759 -0.2386 -0.3816  0.5359
12695TIP3   OH259499   4.555   6.048   4.826  0.1121  0.6484 -0.3602
12695TIP3    H159500   4.579   5.960   4.798 -0.3478  0.8790 -1.5117
12695TIP3    H259501   4.637   6.085   4.861 -0.0301 -0.7587  1.6377
12696TIP3   OH259502   3.168   5.982  10.457 -0.3491  0.3714 -0.6399
12696TIP3    H159503   3.127   6.044  10.517 -2.6049 -0.9499 -0.7127
12696TIP3    H259504   3.115   5.986  10.378  0.8944  0.0509 -1.5206
12697TIP3   OH259505   3.658   4.534   4.611  0.1834  0.6938  0.0650
12697TIP3    H159506   3.579   4.507   4.565  0.3402  1.2970 -0.5753
12697TIP3    H259507   3.653   4.490   4.696 -0.9839  0.9646  0.1474
12698TIP3   OH259508   2.714   0.531   3.483  0.7314  0.1374  0.6677
12698TIP3    H159509   2.787   0.503   3.428 -0.4921  0.5950 -1.3187
12698TIP3    H259510   2.735   0.621   3.508  2.0632 -0.6119  2.3757
12699TIP3   OH259511   0.685   5.931  13.739  0.1258  0.3603  0.5384
12699TIP3    H159512   0.597   5.968  13.729  0.2632  1.1400  1.9187
12699TIP3    H259513   0.703   5.890  13.655 -1.1034  1.1770 -0.1677
12700TIP3   OH259514   2.612   1.502  15.670 -0.1164 -0.0927  0.7610
12700TIP3    H159515   2.557   1.427  15.691 -1.8170  1.5752  2.7219
12700TIP3    H259516   2.696   1.464  15.644  0.2928 -2.7460  4.9516
12701TIP3   OH259517   4.318   3.781  11.583  0.5148 -0.7223  0.5136
12701TIP3    H159518   4.320   3.797  11.677  0.4021  0.6001  0.3113
12701TIP3    H259519   4.227   3.761  11.564  0.0916  1.1815  0.3800
12702TIP3   OH259520   1.390   3.337   2.695 -0.9045 -0.4399  0.4322
12702TIP3    H159521   1.301   3.303   2.705 -1.0731 -1.2006 -2.6290
12702TIP3    H259522   1.406   3.336   2.601  1.9564  0.7836  0.7856
12703TIP3   OH259523   6.387   6.464  14.443 -0.0299  0.0354  0.2396
12703TIP3    H159524   6.387   6.528  14.372 -0.4052 -0.1628  0.0574
12703TIP3    H259525   6.437   6.505  14.513 -2.0525  1.4145  0.9432
12704TIP3   OH259526   6.248   1.410  12.076 -0.2528  0.0086  0.5437
12704TIP3    H159527   6.245   1.319  12.104 -0.3305 -0.1525  0.0348
12704TIP3    H259528   6.200   1.410  11.993  0.5124  0.3443  0.0933
12705TIP3   OH259529   2.240   2.939  12.072  0.3727 -0.2598 -0.1022
12705TIP3    H159530   2.283   3.019  12.041 -0.6863  0.3141 -0.1169
12705TIP3    H259531   2.249   2.943  12.167  0.1229 -0.0074 -0.0885
12706TIP3   OH259532   4.369   4.780   4.376  0.1246 -0.3064  0.0049
12706TIP3    H159533   4.348   4.827   4.457  0.8542  1.7901 -0.9577
12706TIP3    H259534   4.351   4.843   4.306  1.0583 -1.5028 -1.3692
12707TIP3   OH259535   3.302   0.807   4.080  0.2009 -0.5792 -0.1855
12707TIP3    H159536   3.344   0.825   3.996  0.7792 -0.7606  0.0634
12707TIP3    H259537   3.374   0.782   4.138 -0.1908 -0.4142  0.3738
12708TIP3   OH259538   3.713   3.524  16.608  0.1670 -0.3278 -0.3564
12708TIP3    H159539   3.652   3.496  16.540  1.7892 -1.6228 -1.3722
12708TIP3    H259540   3.709   3.453  16.673  0.7283 -0.5346 -0.5414
12709TIP3   OH259541   6.072   2.501   4.924 -0.1754 -0.2599 -0.2392
12709TIP3    H159542   6.040   2.494   4.833  0.2627  0.7728 -0.4967
12709TIP3    H259543   6.064   2.413   4.959 -0.2119 -0.7168 -1.3360
12710TIP3   OH259544   3.005   5.454   5.002 -0.5022 -0.4960 -0.1579
12710TIP3    H159545   2.966   5.539   5.023 -0.1773 -0.3475 -0.1364
12710TIP3    H259546   2.931   5.396   4.987 -0.8375 -1.0330  2.9900
12711TIP3   OH259547   3.074   6.431   5.301 -0.5081 -0.2224 -0.2758
12711TIP3    H159548   3.109   6.516   5.328 -0.7862 -0.3969  0.6933
12711TIP3    H259549   3.113   6.415   5.215 -0.0751  0.6622 -0.2576
12712TIP3   OH259550   3.503   1.142   6.556 -0.6398 -0.0944  0.4361
12712TIP3    H159551   3.414   1.145   6.591 -1.0076  2.4560 -0.4566
12712TIP3    H259552   3.558   1.177   6.627 -0.2365 -1.9687  1.1082
12713TIP3   OH259553   5.098   3.937  11.333 -0.1117 -0.0313 -1.1185
12713TIP3    H159554   5.172   3.917  11.275  0.6332  2.4975 -1.1508
12713TIP3    H259555   5.135   3.931  11.421 -1.0849 -3.2236 -0.7947
12714TIP3   OH259556   5.639   6.048   1.086 -0.1102 -0.3867 -0.2738
12714TIP3    H159557   5.654   5.978   1.023  0.9064 -0.8265  0.4441
12714TIP3    H259558   5.725   6.067   1.123  0.0600  2.6322 -1.8563
12715TIP3   OH259559   5.118   0.105  14.459 -0.0454  0.0338 -0.5770
12715TIP3    H159560   5.104   0.011  14.451 -1.1427 -0.0845  1.7293
12715TIP3    H259561   5.093   0.141  14.374 -1.5073 -1.5949 -0.8861
12716TIP3   OH259562   2.229   1.486   0.512 -0.3118  0.3223  0.8124
12716TIP3    H159563   2.305   1.513   0.564 -0.9456  1.6129  1.0947
12716TIP3    H259564   2.189   1.568   0.484  0.6267 -0.2513 -2.6747
12717TIP3   OH259565   6.033   6.458   1.226  0.0853 -0.0675  0.0660
12717TIP3    H159566   6.091   6.492   1.158  1.9313  0.4655  1.8045
12717TIP3    H259567   6.078   6.380   1.259 -0.8279 -0.3826  0.6064
12718TIP3   OH259568   4.396   0.501   1.435 -0.3462  0.6559 -0.6664
12718TIP3    H159569   4.422   0.495   1.343  1.7237  0.5802 -0.1222
12718TIP3    H259570   4.440   0.427   1.477 -1.3421  0.6326  0.3913
12719TIP3   OH259571   4.452   3.852   5.630 -0.5656 -0.4618  0.3034
12719TIP3    H159572   4.540   3.833   5.661 -1.1868 -0.5386  2.1508
12719TIP3    H259573   4.462   3.929   5.573  0.7337 -0.7389  0.1332
12720TIP3   OH259574   3.500   6.678   1.834 -0.3757 -0.2416  0.0537
12720TIP3    H159575   3.455   6.594   1.833  0.4675 -0.7088 -1.0899
12720TIP3    H259576   3.453   6.732   1.770 -0.2376 -0.2237 -0.0335
12721TIP3   OH259577   3.651   4.173  11.614 -0.0457 -0.4098 -0.2775
12721TIP3    H159578   3.739   4.187  11.581 -0.6992  1.3224 -1.4419
12721TIP3    H259579   3.618   4.099  11.563  0.8596 -1.3920  0.5106
12722TIP3   OH259580   2.152   2.971   5.733  0.6627  0.0697  0.0627
12722TIP3    H159581   2.159   2.876   5.726 -2.8627 -0.5254  2.4062
12722TIP3    H259582   2.232   2.997   5.778  1.8713 -1.6564 -0.9570
12723TIP3   OH259583   0.988   1.855  14.159  0.6559 -0.0390 -0.2320
12723TIP3    H159584   0.977   1.797  14.083  3.6725  0.4227 -1.1237
12723TIP3    H259585   0.999   1.942  14.121 -2.3507  1.0322  1.0390
12724TIP3   OH259586   4.984   3.836   2.732  0.0158  0.2033 -0.9321
12724TIP3    H159587   5.039   3.894   2.785 -1.6749  1.8661 -0.9207
12724TIP3    H259588   5.043   3.764   2.708  1.3923  0.3941  1.4972
12725TIP3   OH259589   1.123   1.934   5.063 -0.5536  0.5725  0.0946
12725TIP3    H159590   1.219   1.936   5.066 -0.5277 -0.6908  1.9666
12725TIP3    H259591   1.101   1.956   4.973  1.3875  3.2765  0.1780
12726TIP3   OH259592   2.682   1.592   3.146 -0.7391 -0.5225  0.2474
12726TIP3    H159593   2.770   1.571   3.174 -0.2702  1.6062  0.5516
12726TIP3    H259594   2.678   1.688   3.148 -2.2283 -0.4249 -2.2476
12727TIP3   OH259595   0.183   2.641   4.382  0.3264 -0.2652 -0.1485
12727TIP3    H159596   0.140   2.653   4.467 -2.2578  0.2030 -1.4501
12727TIP3    H259597   0.189   2.729   4.345 -2.1535 -0.8011 -2.0476
12728TIP3   OH259598   2.121   2.990  16.596 -0.6400  0.1395 -0.1469
12728TIP3    H159599   2.091   2.909  16.636  0.2953 -0.7369 -1.1511
12728TIP3    H259600   2.201   3.013  16.644 -0.4738  0.0341 -0.3702
12729TIP3   OH259601   3.945   1.599   1.978 -0.2458 -0.6168  0.1758
12729TIP3    H159602   3.970   1.555   2.059 -1.3920 -3.9427 -1.0988
12729TIP3    H259603   3.992   1.552   1.909 -1.5450  0.1855 -1.3429
12730TIP3   OH259604   1.265   4.572  11.471 -0.2897 -0.4208 -0.1992
12730TIP3    H159605   1.275   4.482  11.439 -0.6270 -0.6056  0.2123
12730TIP3    H259606   1.220   4.563  11.555  0.7018  0.0583  0.3974
12731TIP3   OH259607   0.291   3.617  16.536 -0.3675 -0.4076 -0.3727
12731TIP3    H159608   0.209   3.660  16.512 -0.3805  0.2329  0.7210
12731TIP3    H259609   0.346   3.622  16.458 -0.7749  0.6426 -0.6065
12732TIP3   OH259610   5.607   1.093  16.257 -0.0042  0.0283  0.2331
12732TIP3    H159611   5.525   1.138  16.279  0.5651  0.8365  0.7941
12732TIP3    H259612   5.669   1.125  16.322  1.0451  0.3276 -0.8795
12733TIP3   OH259613   0.357   1.338   0.144  0.1423 -0.1628 -0.2181
12733TIP3    H159614   0.382   1.367   0.231  0.3652  1.7094 -0.8626
12733TIP3    H259615   0.386   1.247   0.140  0.6366 -0.1112  1.4460
12734TIP3   OH259616   3.679   0.942   0.052 -0.1324  0.5278 -0.0813
12734TIP3    H159617   3.767   0.939   0.088 -0.6543 -0.2341  1.1904
12734TIP3    H259618   3.673   0.865  -0.005 -0.4562 -0.2830  1.0261
12735TIP3   OH259619   6.765   4.856  16.684  0.2082  0.5934 -0.0663
12735TIP3    H159620   6.764   4.927  16.748 -1.7748  0.2863  0.2908
12735TIP3    H259621   6.711   4.788  16.723  0.8727 -0.5513 -1.0631
12736TIP3   OH259622   0.191   2.036  16.273 -0.5454  0.3701  0.2803
12736TIP3    H159623   0.215   2.129  16.273 -0.4022  0.3536  1.5642
12736TIP3    H259624   0.273   1.990  16.256 -0.7650  0.4850 -1.2107
12737TIP3   OH259625   0.999   6.534  12.096  0.4879  0.0486  0.2072
12737TIP3    H159626   1.014   6.603  12.161  0.1869  0.4044 -0.0908
12737TIP3    H259627   0.999   6.580  12.013 -0.0656 -0.2622  0.0324
12738TIP3   OH259628   3.213   4.815  14.272 -0.5228 -0.1395 -0.1831
12738TIP3    H159629   3.195   4.727  14.239  1.2495 -1.0233  1.0544
12738TIP3    H259630   3.153   4.827  14.345  0.8722 -1.3538  1.2174
12739TIP3   OH259631   0.009   2.501  13.105  0.1386  0.0425 -0.2662
12739TIP3    H159632  -0.032   2.448  13.036  0.7239  1.8603 -2.1157
12739TIP3    H259633  -0.041   2.480  13.184 -0.9742 -1.6566 -1.3448
12740TIP3   OH259634   1.208   1.387  11.788 -0.4703  1.1441 -0.4445
12740TIP3    H159635   1.184   1.480  11.791 -2.1739  0.7210 -0.1131
12740TIP3    H259636   1.131   1.343  11.750  1.3051  0.1473 -3.2436
12741TIP3   OH259637   1.825   3.177  16.407 -0.3469 -0.5888 -0.6364
12741TIP3    H159638   1.860   3.125  16.334  0.9695 -0.9417  0.2184
12741TIP3    H259639   1.835   3.267  16.378  1.7064 -0.6602 -0.2635
12742TIP3   OH259640   3.089   6.129  11.394  0.1808  0.0356  0.4630
12742TIP3    H159641   3.010   6.076  11.394  0.3408 -0.2050  0.2347
12742TIP3    H259642   3.148   6.085  11.455  0.4812 -0.3051 -0.0648
12743TIP3   OH259643   6.567   4.647  16.100 -0.0568 -1.2327 -0.4226
12743TIP3    H159644   6.615   4.714  16.052 -1.5045  1.3753  1.5120
12743TIP3    H259645   6.480   4.645  16.060 -1.4562  1.3442  2.0872
12744TIP3   OH259646   4.994   1.713   3.455  0.8372 -0.0650  0.3318
12744TIP3    H159647   4.951   1.751   3.379  0.4280 -0.6568  0.2624
12744TIP3    H259648   5.064   1.775   3.476 -0.8141  1.5849  1.2289
12745TIP3   OH259649   3.660   0.098  14.205 -0.2312  0.3591 -0.3942
12745TIP3    H159650   3.608   0.119  14.128 -1.3448  1.8374  0.6985
12745TIP3    H259651   3.596   0.090  14.276  0.7012 -1.5686  0.2893
12746TIP3   OH259652   5.312   0.752   0.630 -0.6474 -0.5185 -0.2795
12746TIP3    H159653   5.353   0.827   0.587  1.5477 -0.0911  2.2955
12746TIP3    H259654   5.364   0.739   0.710 -2.8414 -2.8906  0.8954
12747TIP3   OH259655   1.653   4.316   5.840  0.4215 -0.8202  0.7037
12747TIP3    H159656   1.595   4.241   5.852  2.3094 -2.1512  2.0654
12747TIP3    H259657   1.714   4.288   5.771 -0.4012  0.5121 -0.6295
12748TIP3   OH259658   4.098   4.753   5.904 -0.1303  0.0967 -0.2780
12748TIP3    H159659   4.027   4.810   5.931  0.2486  0.5113 -0.1437
12748TIP3    H259660   4.175   4.809   5.902  0.2096 -0.3605 -0.3520
12749TIP3   OH259661   6.301   4.754   0.857  0.9994 -0.1234 -0.2725
12749TIP3    H159662   6.355   4.692   0.907  0.1637 -0.2531  0.4887
12749TIP3    H259663   6.219   4.708   0.841 -0.5078  1.4859  2.2139
12750TIP3   OH259664   2.037   4.806  15.116  0.0741  0.1378 -0.5614
12750TIP3    H159665   2.129   4.832  15.123  1.3290 -3.2285 -2.1465
12750TIP3    H259666   2.021   4.751  15.193  0.0483 -0.8091 -1.2149
12751TIP3   OH259667   1.189   2.328   4.893 -0.2433 -0.3496  0.1914
12751TIP3    H159668   1.211   2.279   4.814  1.1126 -0.4829  0.6358
12751TIP3    H259669   1.112   2.379   4.868 -0.2544 -0.9129 -1.0012
12752TIP3   OH259670   0.502   2.613   2.079  0.0709  0.0579  0.0674
12752TIP3    H159671   0.577   2.575   2.031  0.4177  0.4651  0.2851
12752TIP3    H259672   0.489   2.554   2.153 -1.4987 -1.5138 -1.3614
12753TIP3   OH259673   3.523   6.122   1.433  0.2417  0.0209 -0.0615
12753TIP3    H159674   3.495   6.107   1.342 -0.5830 -0.3279  0.2393
12753TIP3    H259675   3.468   6.063   1.484  0.0335  0.9167  0.7576
12754TIP3   OH259676   2.483   2.585  12.895 -0.2697  0.1515  0.9248
12754TIP3    H159677   2.484   2.624  12.808  0.5075  0.4000  1.0317
12754TIP3    H259678   2.451   2.655  12.952 -1.7283 -0.3158  0.7231
12755TIP3   OH259679   5.161   3.029  13.833  0.4211  0.4406 -0.6814
12755TIP3    H159680   5.154   3.121  13.808 -0.2585  1.4947  2.8452
12755TIP3    H259681   5.232   3.027  13.897  0.6281 -1.5754 -0.9081
12756TIP3   OH259682   0.495   0.240  15.717  0.1649 -0.3999  0.3607
12756TIP3    H159683   0.475   0.181  15.790  0.7337 -0.4444  0.4836
12756TIP3    H259684   0.537   0.315  15.759 -0.0798 -0.1419  0.1464
12757TIP3   OH259685   0.205   4.592   2.433 -0.1959 -0.1018  0.2338
12757TIP3    H159686   0.243   4.508   2.459 -1.3561 -0.5342  0.5959
12757TIP3    H259687   0.140   4.611   2.500 -0.3493  0.8056 -0.1560
12758TIP3   OH259688   3.991   1.908   0.775  0.1935  0.1107  0.0637
12758TIP3    H159689   3.960   1.923   0.864 -1.1055 -0.6580 -0.2377
12758TIP3    H259690   4.038   1.824   0.779 -1.7778 -1.0645 -0.3868
12759TIP3   OH259691   4.406   3.706   4.679 -0.4321  0.0675  0.3056
12759TIP3    H159692   4.415   3.801   4.672 -0.8790  0.0190 -1.1229
12759TIP3    H259693   4.366   3.693   4.766  0.0283  1.1448  0.6981
12760TIP3   OH259694   0.570   1.111   4.132 -0.0652  0.1180  0.6564
12760TIP3    H159695   0.641   1.166   4.100 -0.4650  0.2537 -0.0369
12760TIP3    H259696   0.491   1.164   4.118 -0.4660 -0.6569 -0.1115
12761TIP3   OH259697   2.059   1.768  13.734  0.3312 -0.3549  0.2924
12761TIP3    H159698   2.071   1.836  13.668 -1.0737 -1.3406 -1.0537
12761TIP3    H259699   1.964   1.757  13.741  0.4933 -1.2838  1.4183
12762TIP3   OH259700   5.153   5.295  16.261 -0.1871  0.0662 -0.9143
12762TIP3    H159701   5.163   5.390  16.251  0.4165  0.2295  0.8840
12762TIP3    H259702   5.105   5.268  16.183 -0.7404  1.9071 -1.2681
12763TIP3   OH259703   5.587   2.270  13.240 -0.2567 -0.6194 -0.1457
12763TIP3    H159704   5.593   2.341  13.305 -2.1281 -1.5850  1.1855
12763TIP3    H259705   5.657   2.209  13.264 -0.2118 -0.4129  0.2564
12764TIP3   OH259706   5.255   6.472   5.918  0.0317  0.5060  0.0188
12764TIP3    H159707   5.162   6.492   5.928 -0.0511  0.2371 -0.2020
12764TIP3    H259708   5.290   6.478   6.007 -0.4342 -0.5165  0.2929
12765TIP3   OH259709   0.923   6.286   6.077 -0.4861 -0.0356  0.6645
12765TIP3    H159710   0.988   6.258   6.142 -0.0088 -0.3592  0.0540
12765TIP3    H259711   0.839   6.283   6.124 -0.4003 -2.0419  0.7657
12766TIP3   OH259712   6.367   1.149  15.217  0.4590  0.0240  0.4444
12766TIP3    H159713   6.360   1.137  15.122  0.1059 -0.2772  0.5065
12766TIP3    H259714   6.459   1.130  15.237  0.6735  0.6369  0.0895
12767TIP3   OH259715   2.877   4.746  16.829 -0.2492  0.0206  0.2711
12767TIP3    H159716   2.955   4.693  16.848  1.3748  1.4191 -2.0273
12767TIP3    H259717   2.847   4.775  16.915  1.2825 -1.1898  1.2857
12768TIP3   OH259718   5.308   5.059  16.823 -0.4024 -0.1288 -0.4361
12768TIP3    H159719   5.307   4.975  16.778 -0.7251  0.0138 -0.7016
12768TIP3    H259720   5.377   5.109  16.778  0.8576 -0.7634  0.7030
12769TIP3   OH259721   2.484   2.278  12.417  0.4477  0.0019  0.3515
12769TIP3    H159722   2.548   2.251  12.483  0.1903 -0.6528  0.3300
12769TIP3    H259723   2.444   2.197  12.387  0.5156  0.3058 -0.5694
12770TIP3   OH259724   3.598   4.801  13.810 -0.0539 -0.1092  0.1565
12770TIP3    H159725   3.519   4.758  13.777 -0.9964  2.2777 -0.8978
12770TIP3    H259726   3.617   4.756  13.892 -1.2977 -2.0958 -0.5763
12771TIP3   OH259727   0.079   6.036  15.551 -0.3097 -0.0518 -0.3153
12771TIP3    H159728   0.083   6.132  15.548 -0.1614  0.0026  1.0585
12771TIP3    H259729   0.004   6.017  15.607  0.8861 -0.7059  1.1125
12772TIP3   OH259730   3.809   3.314  14.207  0.0320 -0.0547 -0.1063
12772TIP3    H159731   3.763   3.260  14.143  0.9235 -3.4941  1.8742
12772TIP3    H259732   3.896   3.328  14.169 -0.0178 -0.5839 -0.4289
12773TIP3   OH259733   4.769   5.790   0.241 -0.0436 -0.0766  0.0262
12773TIP3    H159734   4.757   5.719   0.304 -0.8410 -0.0297 -0.0564
12773TIP3    H259735   4.759   5.870   0.292 -0.3714 -0.0362 -0.0966
12774TIP3   OH259736   4.453   3.566   5.957  0.0200  0.6995  0.5947
12774TIP3    H159737   4.397   3.578   5.880 -0.2718 -0.0106  0.6919
12774TIP3    H259738   4.517   3.637   5.950 -0.4155  1.0573  0.0675
12775TIP3   OH259739   2.105   3.920  15.154 -0.3239  0.3851  0.2294
12775TIP3    H159740   2.030   3.951  15.203  0.5486  1.4590  0.9215
12775TIP3    H259741   2.165   3.885  15.220 -0.3638 -0.8253 -0.3431
12776TIP3   OH259742   5.667   0.195  14.840 -0.3735 -0.0349  0.5170
12776TIP3    H159743   5.706   0.207  14.927  0.1100  0.0257  0.2915
12776TIP3    H259744   5.594   0.258  14.838  0.9586  1.5712  0.0628
12777TIP3   OH259745   3.499   6.423  15.155 -0.0847 -0.6309 -0.7198
12777TIP3    H159746   3.575   6.448  15.207 -0.6984  1.3332 -0.6990
12777TIP3    H259747   3.532   6.358  15.093  1.0063 -1.8039  0.9930
12778TIP3   OH259748   3.823   1.948   4.328  0.0594 -0.1548 -0.1745
12778TIP3    H159749   3.775   1.873   4.362 -3.4152  1.2689 -1.4472
12778TIP3    H259750   3.846   2.000   4.405  0.9223 -1.5496  0.5616
12779TIP3   OH259751   0.514   3.471  15.099 -0.6849  0.1963 -0.0145
12779TIP3    H159752   0.457   3.394  15.105 -1.6923  1.0183  1.2529
12779TIP3    H259753   0.457   3.545  15.117  1.0220  0.9473  2.9726
12780TIP3   OH259754   2.323   1.235   4.746 -0.5490  0.0124 -0.2180
12780TIP3    H159755   2.411   1.233   4.783 -0.3793 -1.6541 -0.6324
12780TIP3    H259756   2.266   1.209   4.818 -0.5958  0.0669 -0.2346
12781TIP3   OH259757   1.543   4.911   1.520  0.5602 -0.5331 -0.4071
12781TIP3    H159758   1.610   4.842   1.514  0.2209 -0.8992 -0.0369
12781TIP3    H259759   1.589   4.984   1.560  0.6915 -0.8634  0.0625
12782TIP3   OH259760   1.150   6.191   3.505  0.2896  0.1878  0.1196
12782TIP3    H159761   1.184   6.160   3.421  1.1663  0.4138  0.3859
12782TIP3    H259762   1.201   6.269   3.525  0.7455 -0.3826  1.3042
12783TIP3   OH259763   0.814   0.123  12.468  0.3322 -0.1077 -0.0298
12783TIP3    H159764   0.786   0.038  12.502  0.8828  0.4024  1.8056
12783TIP3    H259765   0.770   0.187  12.524 -0.3726  0.8658 -1.6153
12784TIP3   OH259766   4.547   1.677   6.396  0.0967  0.7876 -0.3697
12784TIP3    H159767   4.455   1.654   6.386  0.4560 -0.4496 -1.0053
12784TIP3    H259768   4.550   1.773   6.387 -1.2160  0.9259  0.4872
12785TIP3   OH259769   4.613   4.429   0.844  0.2439 -0.0063 -0.5111
12785TIP3    H159770   4.619   4.442   0.938 -1.1068  2.9588 -0.7228
12785TIP3    H259771   4.534   4.377   0.832  1.4582 -2.0917  0.0052
12786TIP3   OH259772   3.177   1.953   1.709  0.4859 -0.2602  0.2002
12786TIP3    H159773   3.259   1.951   1.758  1.1456  1.3490 -0.7376
12786TIP3    H259774   3.109   1.947   1.775  1.3591 -0.8952  1.0628
12787TIP3   OH259775   1.952   4.107  12.972  0.6787  0.1486  0.9650
12787TIP3    H159776   1.947   4.101  13.067  1.1713 -1.2719  0.9268
12787TIP3    H259777   1.978   4.019  12.944 -1.2278  0.0155 -0.6045
12788TIP3   OH259778   0.618   5.650  15.656  0.4384  0.3587 -0.1809
12788TIP3    H159779   0.586   5.653  15.566  0.9931 -1.6979 -0.4833
12788TIP3    H259780   0.710   5.626  15.649  0.4798  0.1183  0.9321
12789TIP3   OH259781   1.334   4.260   1.236  0.3790 -0.0434 -0.0503
12789TIP3    H159782   1.314   4.207   1.159 -0.4497  0.0237  0.1163
12789TIP3    H259783   1.348   4.348   1.201  1.2935 -0.2663 -0.2716
12790TIP3   OH259784   3.304   4.978  14.802 -0.1350 -0.5258 -0.2474
12790TIP3    H159785   3.395   4.949  14.814 -0.6730 -1.9867  0.6119
12790TIP3    H259786   3.279   5.013  14.887  0.6474  3.2380 -1.3660
12791TIP3   OH259787   1.375   1.912  15.322 -0.2824 -0.0965  0.1155
12791TIP3    H159788   1.383   1.950  15.235  0.9844 -1.3012 -0.3298
12791TIP3    H259789   1.299   1.854  15.317  0.7914 -1.5051 -0.7593
12792TIP3   OH259790   6.691   1.405  14.132  0.1610 -0.4196 -0.7300
12792TIP3    H159791   6.731   1.461  14.066  2.0883 -1.3482 -0.3939
12792TIP3    H259792   6.728   1.319  14.117 -0.1507 -0.8753  0.8997
12793TIP3   OH259793   2.235   5.770   0.974 -0.1141 -0.2868  0.8941
12793TIP3    H159794   2.221   5.712   1.049  2.0976  0.3344  1.8993
12793TIP3    H259795   2.305   5.727   0.924  1.2085  1.1939  1.3925
12794TIP3   OH259796   4.727   5.234   4.949  0.3085 -0.3647  0.2439
12794TIP3    H159797   4.781   5.307   4.980 -0.6406  0.5784 -0.2342
12794TIP3    H259798   4.788   5.175   4.905  0.9189  0.8103 -0.5359
12795TIP3   OH259799   3.427   4.879  13.289  0.0431 -0.0960 -0.4394
12795TIP3    H159800   3.370   4.954  13.269  0.5614  0.2238 -0.7657
12795TIP3    H259801   3.488   4.876  13.215  1.0141  0.1286  0.3231
12796TIP3   OH259802   5.874   0.951  14.896 -0.4096 -0.4176 -0.2240
12796TIP3    H159803   5.966   0.974  14.902  0.6890 -3.9365 -1.0744
12796TIP3    H259804   5.828   1.035  14.890  2.7877  1.4305 -0.9215
12797TIP3   OH259805   2.729   2.468   2.413 -0.2682 -0.1245  0.1559
12797TIP3    H159806   2.698   2.380   2.391  2.8756 -0.9455 -1.5721
12797TIP3    H259807   2.649   2.519   2.426 -2.2779 -2.4569 -1.9588
12798TIP3   OH259808   0.696   5.864  14.235  0.2479 -0.3585  0.1872
12798TIP3    H159809   0.724   5.956  14.239  0.9746 -0.4959 -1.2920
12798TIP3    H259810   0.643   5.852  14.314 -0.5956  1.5762 -0.0206
12799TIP3   OH259811   3.318   0.519   1.749 -0.4780 -0.4114 -0.3174
12799TIP3    H159812   3.346   0.428   1.738  0.3070 -0.3961  1.3036
12799TIP3    H259813   3.251   0.516   1.817 -0.4172  0.2385 -0.2184
12800TIP3   OH259814   0.172   6.177  16.628 -0.0334  0.1517  0.2372
12800TIP3    H159815   0.214   6.104  16.584  0.3974  0.2525  0.4811
12800TIP3    H259816   0.081   6.149  16.639 -0.0076 -0.1072 -0.1891
12801TIP3   OH259817   2.307   4.071  16.360  0.1756  0.3278 -0.0654
12801TIP3    H159818   2.310   3.983  16.397  0.8294  0.3117 -0.1553
12801TIP3    H259819   2.215   4.085  16.339 -0.2474  0.3680  1.6614
12802TIP3   OH259820   4.650   1.442   0.278 -0.9517 -0.3759  0.3691
12802TIP3    H159821   4.691   1.365   0.318 -0.6937 -0.6521 -0.4103
12802TIP3    H259822   4.592   1.406   0.211 -1.2265  0.0894  0.3526
12803TIP3   OH259823   1.306   6.552   1.443 -0.1577 -0.0978 -0.1319
12803TIP3    H159824   1.330   6.473   1.395  1.6175  1.7414 -2.4886
12803TIP3    H259825   1.279   6.520   1.529  2.6088 -3.1293 -0.1851
12804TIP3   OH259826   2.865   2.387  16.057  0.0742 -0.9635  0.2145
12804TIP3    H159827   2.791   2.356  16.005 -0.2069 -1.2375  0.7614
12804TIP3    H259828   2.934   2.322  16.042 -0.1453 -1.2653  0.5054
12805TIP3   OH259829   1.615   1.130  16.208 -0.1394  0.4656  0.3123
12805TIP3    H159830   1.656   1.187  16.273  0.9619 -0.1494  0.1857
12805TIP3    H259831   1.640   1.167  16.124 -0.1926  0.3172  0.2315
12806TIP3   OH259832   2.817   2.469  12.822  0.0864 -0.0809 -0.1719
12806TIP3    H159833   2.745   2.413  12.850 -0.1548 -0.3777 -1.3397
12806TIP3    H259834   2.778   2.556  12.815 -0.1947 -0.2589 -0.8966
12807TIP3   OH259835   3.277   0.706   2.170  0.3465  0.2357  0.4530
12807TIP3    H159836   3.354   0.663   2.134 -0.8728 -0.5375 -1.3744
12807TIP3    H259837   3.286   0.798   2.142 -0.2269 -0.2078 -1.3283
12808TIP3   OH259838   5.553   2.835   3.479  0.4052 -0.4329  0.8080
12808TIP3    H159839   5.524   2.911   3.529 -2.7304  0.6502 -2.2938
12808TIP3    H259840   5.647   2.849   3.466  0.2024  2.1031  1.6108
12809TIP3   OH259841   0.187   3.374  13.322 -0.4775  0.0151  0.0644
12809TIP3    H159842   0.157   3.363  13.231 -1.3397 -0.8822  0.4381
12809TIP3    H259843   0.274   3.414  13.314 -0.0018 -1.1818 -1.2051
12810TIP3   OH259844   3.480   5.122  11.117 -0.7978  0.1822  0.1036
12810TIP3    H159845   3.475   5.197  11.057  1.4999  1.4426  1.3476
12810TIP3    H259846   3.547   5.065  11.079  1.3881  1.4562  1.7856
12811TIP3   OH259847   4.079   3.493   0.139 -0.2330 -0.3231 -0.4041
12811TIP3    H159848   4.081   3.588   0.123  0.1161 -0.3901 -0.7837
12811TIP3    H259849   4.112   3.483   0.228  2.4120 -0.2676 -1.2877
12812TIP3   OH259850   1.106   3.031   0.471 -0.4327 -0.1969 -0.4703
12812TIP3    H159851   1.146   3.073   0.547  1.0718 -1.7413 -0.3412
12812TIP3    H259852   1.013   3.028   0.491 -0.5519  2.3683 -0.1944
12813TIP3   OH259853   6.334   5.319   4.044 -0.4879 -0.2849 -0.3025
12813TIP3    H159854   6.344   5.367   4.126 -1.0854 -0.5309 -0.0812
12813TIP3    H259855   6.298   5.383   3.983  0.3109  0.0042 -0.4936
12814TIP3   OH259856   6.339   0.774   0.726 -0.1956 -0.3539 -0.2868
12814TIP3    H159857   6.374   0.685   0.721 -0.3851 -0.4339 -0.2267
12814TIP3    H259858   6.333   0.792   0.820  1.4694  0.3831 -0.2914
12815TIP3   OH259859   5.649   5.135  13.916  0.1332 -0.2451 -0.0147
12815TIP3    H159860   5.740   5.164  13.922 -0.9188  3.8610 -0.9874
12815TIP3    H259861   5.640   5.106  13.825  0.1946  0.5585 -0.2844
12816TIP3   OH259862   2.557   6.108   3.929  0.6440  0.7360  0.4810
12816TIP3    H159863   2.486   6.062   3.974 -0.2771  0.6264 -1.0107
12816TIP3    H259864   2.610   6.038   3.890 -1.1945  0.7940 -2.4504
12817TIP3   OH259865   1.913   5.934  13.654 -0.2097 -1.1547  0.0781
12817TIP3    H159866   1.962   5.893  13.725  0.1192 -1.7208 -0.4630
12817TIP3    H259867   1.964   5.915  13.575  0.3489  0.9414 -0.1194
12818TIP3   OH259868   1.392   3.867  17.033 -0.0595 -0.2649  0.5828
12818TIP3    H159869   1.373   3.845  17.124  0.7103 -0.3494  0.7244
12818TIP3    H259870   1.468   3.924  17.037  0.2746 -0.6545 -0.0377
12819TIP3   OH259871   1.221   3.363   3.412 -0.2924 -0.1290 -0.3109
12819TIP3    H159872   1.276   3.317   3.348 -0.1605 -0.9249  0.3501
12819TIP3    H259873   1.195   3.295   3.474  1.9117  1.0931  2.1273
12820TIP3   OH259874   3.982   1.997   6.674  0.1443 -0.1613  0.0180
12820TIP3    H159875   3.922   2.069   6.694  0.6399  0.5209 -0.8819
12820TIP3    H259876   3.927   1.919   6.673 -0.5677  0.3342  0.0717
12821TIP3   OH259877   3.934   6.082  13.969  0.1182 -0.0374 -0.0739
12821TIP3    H159878   3.843   6.058  13.985 -0.1462 -0.3667 -1.9404
12821TIP3    H259879   3.935   6.118  13.881  1.4766  1.8449  0.6480
12822TIP3   OH259880   5.897   6.218  10.431  0.1141 -0.7076 -0.2991
12822TIP3    H159881   5.826   6.265  10.474  0.0049 -0.9823 -0.1725
12822TIP3    H259882   5.913   6.142  10.488  0.5999 -0.5735 -0.2543
12823TIP3   OH259883   3.765   5.775   0.371 -0.3618 -0.6103  0.0774
12823TIP3    H159884   3.818   5.780   0.450  2.0652  1.7281 -1.5104
12823TIP3    H259885   3.700   5.845   0.381  2.2951  2.3415 -1.3323
12824TIP3   OH259886   3.039   4.633  14.940 -0.8422 -0.0359 -0.1126
12824TIP3    H159887   2.973   4.662  15.003 -1.2806  1.6940 -1.3085
12824TIP3    H259888   3.112   4.693  14.952  0.2863 -1.5254  0.7338
12825TIP3   OH259889   0.128   5.340   0.287 -0.2380  0.1590 -0.0910
12825TIP3    H159890   0.139   5.380   0.374 -0.0219 -1.0402  0.4532
12825TIP3    H259891   0.037   5.359   0.264 -0.8484 -0.9888  1.2006
12826TIP3   OH259892   4.617   4.519  15.801  0.1993  0.7046  0.1873
12826TIP3    H159893   4.688   4.582  15.792 -0.2500  1.1533 -0.3780
12826TIP3    H259894   4.547   4.568  15.844 -0.2007  0.6443 -0.3744
12827TIP3   OH259895   5.217   6.674   4.138 -0.0405 -0.0680  0.0694
12827TIP3    H159896   5.161   6.641   4.068 -0.3285 -0.8700  0.6638
12827TIP3    H259897   5.306   6.669   4.102 -0.3019  0.9622 -0.7810
12828TIP3   OH259898   3.343   6.520  10.897  0.1883  0.4903 -0.1890
12828TIP3    H159899   3.335   6.595  10.956  0.3802  0.1767  0.2396
12828TIP3    H259900   3.424   6.477  10.924 -0.1777 -0.1567 -0.1087
12829TIP3   OH259901   5.760   4.143  10.703  0.4018 -0.0422 -0.5910
12829TIP3    H159902   5.718   4.217  10.660 -2.5063 -0.2637  1.5674
12829TIP3    H259903   5.704   4.068  10.683  0.6447 -0.7145  1.0794
12830TIP3   OH259904   3.657   5.974   3.176  0.6403  0.2045 -0.8641
12830TIP3    H159905   3.673   5.926   3.257 -1.3073 -0.8837 -1.0615
12830TIP3    H259906   3.593   5.921   3.128  1.6767  0.8467 -3.1037
12831TIP3   OH259907   6.722   6.250   4.062  0.3290  0.2917  0.1740
12831TIP3    H159908   6.787   6.251   3.991  0.4827 -2.2857  0.1766
12831TIP3    H259909   6.773   6.235   4.141 -0.1332 -0.8189  0.2881
12832TIP3   OH259910   0.993   4.097   1.015  0.5437 -0.0940 -0.5144
12832TIP3    H159911   0.959   4.112   1.103  1.1005 -0.4320 -0.2409
12832TIP3    H259912   0.915   4.078   0.962  0.1436  0.7270 -0.2303
12833TIP3   OH259913   1.758   3.167   4.120  0.1502 -0.0188  0.4345
12833TIP3    H159914   1.681   3.223   4.112 -0.8199 -0.8442  3.0213
12833TIP3    H259915   1.768   3.127   4.033 -0.4318  2.4260 -0.8365
12834TIP3   OH259916   1.707   5.801  15.504  0.7835 -0.2927  0.5266
12834TIP3    H159917   1.754   5.750  15.438 -0.4643  1.0167 -1.5076
12834TIP3    H259918   1.653   5.737  15.550  1.5190 -1.2168  0.1402
12835TIP3   OH259919   0.238   6.370  11.263 -0.0751  0.0025  0.0120
12835TIP3    H159920   0.295   6.363  11.187 -1.4205  0.2072 -1.0527
12835TIP3    H259921   0.157   6.409  11.229 -0.1598  1.5509  1.8393
12836TIP3   OH259922   6.040   0.769  15.364 -0.0804  0.2982  0.0471
12836TIP3    H159923   6.107   0.724  15.415 -0.4340 -1.2328 -0.7744
12836TIP3    H259924   6.052   0.861  15.386  0.6767 -0.1623  1.8019
12837TIP3   OH259925   4.381   1.896  14.511 -0.4438 -0.9175 -0.0141
12837TIP3    H159926   4.465   1.942  14.509 -0.4981 -0.7295  1.1597
12837TIP3    H259927   4.402   1.806  14.487 -0.0666 -0.6573 -0.6810
12838TIP3   OH259928   1.168   1.785  11.557  0.3120  0.4261  0.0427
12838TIP3    H159929   1.160   1.857  11.620  1.1999  2.3436 -1.9355
12838TIP3    H259930   1.133   1.820  11.475 -1.0170 -2.0754 -0.5747
12839TIP3   OH259931   3.532   3.169   3.541  0.5434 -0.7060  0.3373
12839TIP3    H159932   3.455   3.151   3.487 -0.0086 -0.9357  1.1757
12839TIP3    H259933   3.574   3.084   3.553  0.0104 -0.8567  1.2220
12840TIP3   OH259934   2.485   2.319   6.452  0.6555 -0.6618 -0.3054
12840TIP3    H159935   2.499   2.340   6.360  1.4896  1.0331  0.1796
12840TIP3    H259936   2.571   2.326   6.492 -0.0864  1.3238  1.0978
12841TIP3   OH259937   2.612   0.966   1.823 -0.1906 -0.3636  0.2882
12841TIP3    H159938   2.690   0.942   1.875 -0.4719 -0.3064  0.7418
12841TIP3    H259939   2.554   1.008   1.886  0.0911  1.1065 -0.3926
12842TIP3   OH259940   2.428   6.697  14.388  0.0653 -0.2212 -0.0141
12842TIP3    H159941   2.488   6.668  14.319 -1.6900  0.4097 -1.9086
12842TIP3    H259942   2.370   6.759  14.345 -1.8536 -0.6780  1.7398
12843TIP3   OH259943   5.829   3.204   1.319 -0.4090 -0.1145  0.4247
12843TIP3    H159944   5.749   3.154   1.335 -1.2514  1.1895  0.4058
12843TIP3    H259945   5.799   3.293   1.299  1.0630  0.5487  0.9921
12844TIP3   OH259946   5.232   4.669   2.364 -0.1026 -0.0023  0.3611
12844TIP3    H159947   5.265   4.733   2.301  0.0309 -0.9952 -0.6253
12844TIP3    H259948   5.307   4.611   2.380 -0.5286 -0.5679  0.3509
12845TIP3   OH259949   5.847   1.570   4.529 -0.1124  0.0898  0.0233
12845TIP3    H159950   5.780   1.620   4.482 -0.1040 -0.9562 -1.1744
12845TIP3    H259951   5.808   1.548   4.613 -0.3105  1.6152  0.3672
12846TIP3   OH259952   1.005   5.298  16.809 -0.1751  0.1284  0.3511
12846TIP3    H159953   0.998   5.244  16.887  0.4858  0.5896  0.7376
12846TIP3    H259954   1.025   5.386  16.842  0.0073  0.3504 -0.3286
12847TIP3   OH259955   3.416   4.199   2.157 -0.8423 -0.3906  0.3761
12847TIP3    H159956   3.410   4.251   2.077 -1.0616  0.6369  1.0284
12847TIP3    H259957   3.447   4.114   2.129  3.3564  1.1524 -0.3476
12848TIP3   OH259958   1.169   2.271  12.628  0.1280 -0.2485  0.5202
12848TIP3    H159959   1.131   2.303  12.547  1.6052 -0.2753 -0.2191
12848TIP3    H259960   1.245   2.219  12.601  0.9276  0.1166  1.9157
12849TIP3   OH259961   2.182   3.932   2.675  0.1655 -0.3033 -0.5858
12849TIP3    H159962   2.197   3.991   2.601 -1.7848 -0.9431 -1.5337
12849TIP3    H259963   2.087   3.922   2.680  0.4077 -2.9905 -0.1570
12850TIP3   OH259964   0.756   1.872  11.733  0.5433 -0.3142  0.1042
12850TIP3    H159965   0.831   1.918  11.771  0.8097 -0.7289  0.0842
12850TIP3    H259966   0.679   1.916  11.770  0.7984 -0.6446  1.0415
12851TIP3   OH259967   4.839   6.182   0.895  0.0065  0.1912  0.4093
12851TIP3    H159968   4.866   6.102   0.850  0.0430 -0.0880  0.9163
12851TIP3    H259969   4.902   6.191   0.967 -1.5710 -0.8044  1.9983
12852TIP3   OH259970   1.796   6.259  11.547 -0.7361  0.1566  0.1121
12852TIP3    H159971   1.785   6.234  11.638 -1.2529  1.6595  0.4851
12852TIP3    H259972   1.715   6.303  11.523  0.0689  1.3442 -0.5364
12853TIP3   OH259973   2.422   3.065  15.561  0.1971 -0.3299 -0.2377
12853TIP3    H159974   2.354   3.092  15.624 -0.5922 -1.3069 -0.6380
12853TIP3    H259975   2.447   3.146  15.517  0.4502  0.3045  1.0206
12854TIP3   OH259976   2.533   6.213  12.326 -0.4853 -0.0279 -0.2531
12854TIP3    H159977   2.587   6.280  12.284 -2.1117  1.4439 -0.0766
12854TIP3    H259978   2.594   6.167  12.384  0.8105  0.8572 -0.8482
12855TIP3   OH259979   1.820   6.424   5.422  0.0615  0.0672 -0.4333
12855TIP3    H159980   1.878   6.389   5.490 -0.0044  0.0926 -0.3631
12855TIP3    H259981   1.816   6.518   5.441  1.3627  0.3530 -1.4639
12856TIP3   OH259982   1.127   1.805   3.710  0.1066 -0.2680 -0.4275
12856TIP3    H159983   1.075   1.732   3.742 -0.8730  0.1753 -0.9650
12856TIP3    H259984   1.218   1.775   3.717 -0.0948 -0.5158  1.9072
12857TIP3   OH259985   6.185   4.984  12.518  0.4260 -0.4773  0.0557
12857TIP3    H159986   6.117   5.008  12.455  0.1816  4.4056  1.7538
12857TIP3    H259987   6.137   4.967  12.600  1.0338 -0.2208  0.4730
12858TIP3   OH259988   4.600   2.382   6.349  0.2996  0.1732 -0.1531
12858TIP3    H159989   4.580   2.449   6.414 -1.3297  0.2187 -0.6729
12858TIP3    H259990   4.685   2.347   6.377  1.0846  2.2322  0.2970
12859TIP3   OH259991   0.570   3.128   3.686  0.3725 -0.1121 -0.3061
12859TIP3    H159992   0.619   3.186   3.744 -0.4172  0.0254  0.2438
12859TIP3    H259993   0.544   3.184   3.613 -0.4887  0.2991  0.2784
12860TIP3   OH259994   6.551   1.956  16.044  0.0757 -0.5194 -0.1520
12860TIP3    H159995   6.586   1.949  15.956  0.4984  2.6671 -0.3245
12860TIP3    H259996   6.540   2.050  16.059 -2.9047 -1.0735  2.0668
12861TIP3   OH259997   2.256   2.717   5.489  0.0772 -0.6437  0.2310
12861TIP3    H159998   2.339   2.763   5.501 -0.4593 -0.0206  1.8549
12861TIP3    H259999   2.246   2.708   5.394  1.4522  0.2661 -0.0187
12862TIP3   OH260000   1.773   4.872   2.085  0.1054 -0.4501 -0.0366
12862TIP3    H160001   1.696   4.816   2.091 -0.2665  0.1693  1.5751
12862TIP3    H260002   1.826   4.833   2.016 -0.9768 -1.7255 -0.1872
12863TIP3   OH260003   6.027   5.963   5.029  0.7384  0.3970 -0.0376
12863TIP3    H160004   5.984   5.977   5.113  1.0224 -0.4939  0.2661
12863TIP3    H260005   6.039   6.051   4.993 -0.0696  0.7401  0.5007
12864TIP3   OH260006   0.386   6.266  11.951 -0.3415  0.3635 -0.3848
12864TIP3    H160007   0.383   6.174  11.923  1.7341  0.5369 -1.3758
12864TIP3    H260008   0.442   6.309  11.886 -0.1672  2.0547  0.8156
12865TIP3   OH260009   6.192   0.786  10.425 -0.4936 -0.4666 -0.1817
12865TIP3    H160010   6.169   0.701  10.386  1.3391 -0.9728 -0.2254
12865TIP3    H260011   6.284   0.798  10.403 -0.5133  1.1676  0.5375
12866TIP3   OH260012   6.617   6.691  16.255 -0.0554  0.8742 -0.0654
12866TIP3    H160013   6.655   6.693  16.168  0.7688  1.0543  0.2890
12866TIP3    H260014   6.591   6.781  16.273  2.3441  1.4492  0.9487
12867TIP3   OH260015   5.253   0.564   2.344  0.1067 -0.3596 -0.4440
12867TIP3    H160016   5.263   0.477   2.307 -0.9688  0.1086 -1.9457
12867TIP3    H260017   5.337   0.607   2.330  0.4431 -0.9499 -0.2406
12868TIP3   OH260018   5.485   2.004  16.551 -0.1345 -0.4400  0.2958
12868TIP3    H160019   5.437   2.036  16.627  0.8096  0.6619  0.4585
12868TIP3    H260020   5.494   2.080  16.494  2.8850 -0.0818  1.0487
12869TIP3   OH260021   5.948   1.536  15.452  0.2580 -0.1432 -0.1096
12869TIP3    H160022   5.913   1.620  15.482 -0.7372 -0.5567 -0.0696
12869TIP3    H260023   5.873   1.492  15.412  0.4689 -1.5005  0.9173
12870TIP3   OH260024   3.016   4.323  14.072 -0.2700  0.2943 -0.0386
12870TIP3    H160025   3.008   4.416  14.090  1.2873  0.4548 -0.0441
12870TIP3    H260026   3.033   4.283  14.158  2.7630  0.5155 -0.4430
12871TIP3   OH260027   5.593   1.639  11.249  0.6541 -0.4205  0.5599
12871TIP3    H160028   5.636   1.692  11.182  1.3983 -0.6239  0.8714
12871TIP3    H260029   5.564   1.561  11.202  2.0777 -1.0345  0.6553
12872TIP3   OH260030   1.854   0.248   2.556  0.4216 -0.1332  0.1496
12872TIP3    H160031   1.921   0.184   2.579 -0.0540 -1.0971 -1.0304
12872TIP3    H260032   1.880   0.280   2.469 -1.0701 -1.1874 -0.7369
12873TIP3   OH260033   6.612   5.438   3.519  0.5983 -0.2868 -0.4286
12873TIP3    H160034   6.558   5.432   3.440 -0.9083 -2.1609  0.6845
12873TIP3    H260035   6.613   5.350   3.555 -0.1155  0.8039  2.5279
12874TIP3   OH260036   0.917   1.618   4.663 -0.0695  0.2748  0.5129
12874TIP3    H160037   0.825   1.634   4.684 -0.5349 -1.4733 -0.0412
12874TIP3    H260038   0.940   1.541   4.713  0.9172  0.3242  0.1513
12875TIP3   OH260039   5.371   4.117  14.861  0.6327 -0.0615 -0.0292
12875TIP3    H160040   5.352   4.034  14.906 -0.2101  0.3337  0.3657
12875TIP3    H260041   5.455   4.102  14.818  0.7663 -0.9345  0.5063
12876TIP3   OH260042   2.377   0.654  17.204  0.1113 -0.3801  0.2956
12876TIP3    H160043   2.322   0.679  17.130 -2.2423 -1.4992  1.5472
12876TIP3    H260044   2.444   0.598  17.166 -0.0334  0.3973 -1.1941
12877TIP3   OH260045   1.451   2.628  15.218  0.4657 -0.0308  0.2910
12877TIP3    H160046   1.479   2.536  15.219  0.9085  0.1035  0.9212
12877TIP3    H260047   1.506   2.670  15.283  1.4127  1.0201 -1.1216
12878TIP3   OH260048   2.467   0.871   6.407 -0.3116 -0.6736 -0.6612
12878TIP3    H160049   2.555   0.849   6.377  0.1840 -0.0283  0.2691
12878TIP3    H260050   2.457   0.825   6.490 -0.6553 -0.3253 -0.5037
12879TIP3   OH260051   4.005   0.804  12.604 -0.1283 -0.5109 -0.1560
12879TIP3    H160052   3.915   0.777  12.584  0.3244 -1.1445 -1.4653
12879TIP3    H260053   4.038   0.734  12.660 -0.3076 -0.4978 -0.0313
12880TIP3   OH260054   3.629   0.843  10.868  0.1443  0.4200 -0.2723
12880TIP3    H160055   3.671   0.759  10.846 -0.4767 -0.6461  2.2631
12880TIP3    H260056   3.657   0.860  10.958 -1.2482  1.9950 -0.1014
12881TIP3   OH260057   0.793   3.747  11.818 -0.3403 -0.8090  0.1205
12881TIP3    H160058   0.735   3.784  11.885 -1.4655 -0.3097 -1.0839
12881TIP3    H260059   0.742   3.752  11.737 -0.2474 -4.2809 -0.2915
12882TIP3   OH260060   1.037   6.040   2.255 -0.2274 -0.1972 -0.0219
12882TIP3    H160061   1.040   6.055   2.349  0.3355 -0.0781 -0.0599
12882TIP3    H260062   1.127   6.049   2.225 -0.4227 -0.0745 -0.5985
12883TIP3   OH260063   5.535   3.849  13.998  0.6451 -0.2638 -0.1249
12883TIP3    H160064   5.616   3.816  14.036 -0.5125 -1.5723  1.3054
12883TIP3    H260065   5.476   3.773  13.996 -0.7986  0.8132 -0.4280
12884TIP3   OH260066   1.980   0.672  15.311  0.0694  0.0236 -0.0440
12884TIP3    H160067   1.990   0.757  15.267  2.5885 -0.3381 -0.3314
12884TIP3    H260068   1.891   0.645  15.289  0.0057  1.4948 -1.9699
12885TIP3   OH260069   0.143   4.123   0.219  0.8373 -0.0937 -0.1713
12885TIP3    H160070   0.053   4.152   0.232  0.1627 -1.5307 -1.2806
12885TIP3    H260071   0.190   4.202   0.192 -0.0881  0.6735  0.4006
12886TIP3   OH260072   1.224   4.569   3.691 -0.1352 -0.6655  0.2883
12886TIP3    H160073   1.207   4.663   3.701  1.6018 -0.5190  3.4199
12886TIP3    H260074   1.158   4.527   3.746 -0.5947 -1.2557 -0.7053
12887TIP3   OH260075   5.120   5.372   4.687  0.6594  0.1562  0.5012
12887TIP3    H160076   5.027   5.369   4.665  0.7849  0.4309 -0.1140
12887TIP3    H260077   5.124   5.420   4.770  0.2595  0.2032  0.4954
12888TIP3   OH260078   3.901   5.196  12.659  0.5324  0.7261  0.1629
12888TIP3    H160079   3.910   5.223  12.751  1.8091  1.5002 -0.1651
12888TIP3    H260080   3.902   5.278  12.610 -2.0553  0.4902 -0.4737
12889TIP3   OH260081   1.694   6.715  13.350  0.1375 -0.4289 -0.0728
12889TIP3    H160082   1.708   6.792  13.406 -0.1228  1.1043 -1.9891
12889TIP3    H260083   1.642   6.656  13.404  1.1892  0.2918  1.8222
12890TIP3   OH260084   3.140   4.541  14.327  0.2909  0.9112  0.2969
12890TIP3    H160085   3.172   4.456  14.295  0.7136  1.7984 -1.7913
12890TIP3    H260086   3.208   4.570  14.388  1.5065  0.9189 -0.9999
12891TIP3   OH260087   0.950   1.492  14.868 -0.3282 -0.1583  0.2178
12891TIP3    H160088   0.906   1.407  14.871  0.0881 -0.3725  0.3948
12891TIP3    H260089   0.917   1.533  14.788 -1.4882  0.0468  0.7840
12892TIP3   OH260090   2.690   1.469  15.006 -0.2650  0.4153 -0.4720
12892TIP3    H160091   2.755   1.460  14.936  0.9930  3.0374  0.2347
12892TIP3    H260092   2.668   1.379  15.030  2.0232 -0.5711 -1.7357
12893TIP3   OH260093   4.392   0.285   4.548 -0.2705  0.7688 -0.2095
12893TIP3    H160094   4.334   0.322   4.481 -0.3459 -1.6917 -1.6445
12893TIP3    H260095   4.455   0.234   4.498  1.9048  1.7021  1.4536
12894TIP3   OH260096   3.471   4.281   5.188  0.4473 -0.3320  0.4988
12894TIP3    H160097   3.379   4.301   5.172  1.2083  1.4117 -2.7195
12894TIP3    H260098   3.472   4.189   5.214 -2.0580 -1.1455 -1.8607
12895TIP3   OH260099   2.161   0.384   4.791  0.3125 -0.2323  0.2693
12895TIP3    H160100   2.192   0.455   4.735 -0.6132 -0.2947 -0.3469
12895TIP3    H260101   2.217   0.309   4.769 -0.8571 -0.6223 -1.5430
12896TIP3   OH260102   6.227   3.188  15.752  0.5472 -0.0130  0.1450
12896TIP3    H160103   6.216   3.242  15.831 -0.7216  0.2055 -0.1533
12896TIP3    H260104   6.321   3.179  15.742  0.7505  0.8697  1.0776
12897TIP3   OH260105   0.084   2.284  12.732 -0.0490  0.3201  0.4008
12897TIP3    H160106   0.010   2.308  12.787 -0.4082  0.7568 -0.2509
12897TIP3    H260107   0.157   2.336  12.766 -0.0751  0.0048  0.9477
12898TIP3   OH260108   5.929   4.069   0.173  0.0071  0.3569 -0.0363
12898TIP3    H160109   5.881   4.031   0.246  1.9629  0.3606  1.3434
12898TIP3    H260110   5.936   4.162   0.195  1.8462  0.1199  0.5956
12899TIP3   OH260111   4.690   1.421   5.517  0.4468  0.2323  0.3154
12899TIP3    H160112   4.728   1.362   5.451 -1.9719 -0.8513 -0.2361
12899TIP3    H260113   4.680   1.505   5.472  0.3736 -0.0310 -0.1697
12900TIP3   OH260114   2.437   2.938  16.189 -0.1117 -0.6193  0.4990
12900TIP3    H160115   2.487   2.856  16.190  0.7687 -0.1380 -0.6654
12900TIP3    H260116   2.346   2.911  16.185  0.1145 -1.5292  1.0455
12901TIP3   OH260117   6.173   4.317   5.514 -0.2110  0.7264  0.4046
12901TIP3    H160118   6.165   4.302   5.420  2.2392 -2.6679  0.5588
12901TIP3    H260119   6.227   4.396   5.522  1.9816 -0.5251 -1.1843
12902TIP3   OH260120   0.647   5.859   3.050  0.0018  0.0678  0.9011
12902TIP3    H160121   0.614   5.887   3.135 -3.5643 -3.7758  1.0677
12902TIP3    H260122   0.724   5.806   3.070 -0.3910 -0.2147  1.6934
12903TIP3   OH260123   3.303   3.752  10.894  0.5815  0.5856 -0.0164
12903TIP3    H160124   3.248   3.828  10.878  2.7859  2.2325 -0.0930
12903TIP3    H260125   3.280   3.690  10.825 -1.4653  1.0021  0.2316
12904TIP3   OH260126   5.521   0.967  17.111  0.0180 -0.3691 -0.5209
12904TIP3    H160127   5.500   1.044  17.164  1.7939 -0.8636  0.9619
12904TIP3    H260128   5.561   1.003  17.032 -0.1745  0.2712 -0.3355
12905TIP3   OH260129   1.064   0.144  12.693  0.0395 -0.2193  0.0562
12905TIP3    H160130   0.989   0.090  12.719  0.3189 -0.0383  1.2998
12905TIP3    H260131   1.108   0.164  12.775  0.5683  0.9763 -0.5030
12906TIP3   OH260132   2.457   2.564   0.444 -0.0082 -0.3722 -0.6350
12906TIP3    H160133   2.381   2.527   0.400 -1.2317  1.0516  0.2350
12906TIP3    H260134   2.423   2.602   0.525  1.7980 -0.6666  0.3293
12907TIP3   OH260135   3.388   4.026  13.279 -0.3584  1.0392  0.4919
12907TIP3    H160136   3.337   3.953  13.315 -0.5546  0.8557 -0.1389
12907TIP3    H260137   3.327   4.101  13.280 -0.1808  1.1758  1.0699
12908TIP3   OH260138   1.518   4.595  11.267 -0.1581 -0.1656  0.0850
12908TIP3    H160139   1.463   4.555  11.335  0.4715 -0.0012  0.6978
12908TIP3    H260140   1.574   4.523  11.237 -0.2979 -0.1892 -0.1166
12909TIP3   OH260141   2.178   5.067   2.292 -0.3206 -0.5260 -0.1273
12909TIP3    H160142   2.087   5.089   2.271 -0.2337 -1.1491 -1.2580
12909TIP3    H260143   2.189   5.094   2.383 -1.2700  0.7117 -0.3425
12910TIP3   OH260144   1.868   5.517   4.381  0.0661  0.5711  0.3926
12910TIP3    H160145   1.947   5.470   4.406 -1.6640 -2.4490  0.6421
12910TIP3    H260146   1.872   5.520   4.285  0.3363  0.1267  0.3849
12911TIP3   OH260147   1.545   0.597  11.503 -0.1317  0.1288  0.2513
12911TIP3    H160148   1.495   0.622  11.425  0.5131  1.7343  0.3091
12911TIP3    H260149   1.636   0.613  11.479  0.0567  0.9249  1.4116
12912TIP3   OH260150   2.089   5.988  15.353  0.2250  0.1394 -0.6081
12912TIP3    H160151   2.065   5.901  15.320  2.3120 -0.2264 -1.3188
12912TIP3    H260152   2.167   6.012  15.304 -0.0793  2.2842 -0.1530
12913TIP3   OH260153   3.409   0.342  12.865 -0.6213  0.2667 -0.4650
12913TIP3    H160154   3.412   0.349  12.961 -0.7700 -0.4973 -0.4018
12913TIP3    H260155   3.354   0.416  12.838 -0.7137  0.3949  0.0489
12914TIP3   OH260156   5.933   0.341  13.284  0.0647 -0.1588  0.4390
12914TIP3    H160157   5.925   0.365  13.376 -0.2785 -2.7271  1.1767
12914TIP3    H260158   6.027   0.330  13.270  0.0004 -2.3526  1.3193
12915TIP3   OH260159   2.653   5.515   5.259  0.0690 -0.0291 -0.3239
12915TIP3    H160160   2.621   5.461   5.186 -1.6333  2.2357 -1.3649
12915TIP3    H260161   2.683   5.596   5.217  1.1403  0.4719  1.3247
12916TIP3   OH260162   4.529   1.422   2.693  0.1611  0.7394  0.0401
12916TIP3    H160163   4.585   1.355   2.654 -0.0939  0.2555  0.4893
12916TIP3    H260164   4.473   1.452   2.621  0.0875  0.2674 -0.1056
12917TIP3   OH260165   6.405   6.204   3.509  1.0639  0.0961  0.3981
12917TIP3    H160166   6.380   6.282   3.558 -0.8803 -0.7726  0.8984
12917TIP3    H260167   6.340   6.198   3.438  1.2176 -1.0086  0.3191
12918TIP3   OH260168   6.323   1.428  15.154  0.0432 -0.1061  0.2096
12918TIP3    H160169   6.358   1.478  15.228 -2.3815 -0.4323  1.7092
12918TIP3    H260170   6.313   1.339  15.189 -1.1803 -0.2544 -0.4638
12919TIP3   OH260171   1.053   1.507  15.117 -0.2819 -0.5016  0.3298
12919TIP3    H160172   1.041   1.497  15.022 -1.0357 -0.7814  0.4495
12919TIP3    H260173   1.109   1.584  15.126 -0.7957 -0.0406 -0.3152
12920TIP3   OH260174   6.704   5.454   1.884  0.9926 -0.1779 -0.5620
12920TIP3    H160175   6.654   5.421   1.810  0.9349 -0.7754 -0.2666
12920TIP3    H260176   6.751   5.530   1.850  0.6772 -0.2222 -1.1077
12921TIP3   OH260177   4.068   0.865   1.187 -0.4350 -0.2325  0.5176
12921TIP3    H160178   3.975   0.887   1.189 -0.7062 -0.8630 -1.9258
12921TIP3    H260179   4.108   0.934   1.135  0.3655 -0.3577  0.9531
12922TIP3   OH260180   1.515   4.859   3.080  0.3075 -0.2116  0.1154
12922TIP3    H160181   1.586   4.799   3.100  1.2243  0.4477 -1.0209
12922TIP3    H260182   1.438   4.821   3.123  0.6425 -2.6481 -1.2833
12923TIP3   OH260183   2.550   5.276   2.116 -0.3397  0.3003  0.1221
12923TIP3    H160184   2.466   5.233   2.101  0.6523 -1.8589  0.4655
12923TIP3    H260185   2.566   5.267   2.210  1.3605 -1.5293 -0.2732
12924TIP3   OH260186   3.810   2.464   7.087  0.3469 -0.3573  0.2613
12924TIP3    H160187   3.798   2.552   7.050  2.4202  1.0396  2.5586
12924TIP3    H260188   3.896   2.436   7.057  0.6018 -0.6536  1.2087
12925TIP3   OH260189   1.286   4.021   6.026  0.0925  0.0154 -0.0072
12925TIP3    H160190   1.200   4.015   6.068  0.7221  0.9405  1.4767
12925TIP3    H260191   1.347   4.037   6.097  1.1572  2.1668 -1.2812
12926TIP3   OH260192   2.537   0.306  17.194 -0.2531  0.2478  0.3402
12926TIP3    H160193   2.550   0.229  17.250 -0.5263 -1.2298 -1.5141
12926TIP3    H260194   2.626   0.337  17.176  0.0094 -0.9379 -0.5552
12927TIP3   OH260195   5.556   0.729   0.344 -0.7769  0.4087  0.3898
12927TIP3    H160196   5.650   0.737   0.333 -0.5668 -0.8806  1.0844
12927TIP3    H260197   5.526   0.817   0.365  0.6525  0.3902  2.8296
12928TIP3   OH260198   5.171   2.384   0.872 -0.4671 -0.0867  0.0165
12928TIP3    H160199   5.235   2.454   0.878  0.7511 -1.2387  1.1210
12928TIP3    H260200   5.179   2.336   0.954  0.1984 -2.7133 -1.4420
12929TIP3   OH260201   1.439   4.489   6.297 -0.2563  0.0480 -0.6509
12929TIP3    H160202   1.377   4.477   6.369  0.2878  0.5844 -0.0915
12929TIP3    H260203   1.471   4.400   6.279 -0.1135 -0.0417  0.0206
12930TIP3   OH260204   0.506   6.251  16.163 -0.3913  0.1414 -0.3789
12930TIP3    H160205   0.419   6.225  16.194 -0.7033  0.5360 -0.9081
12930TIP3    H260206   0.514   6.209  16.078 -0.1330  0.2557 -0.4105
12931TIP3   OH260207   0.117   4.800  12.999 -0.2754  0.0365 -0.0075
12931TIP3    H160208   0.189   4.841  12.951  0.0325 -0.5119 -0.0214
12931TIP3    H260209   0.123   4.835  13.088 -0.5034  0.6246 -0.2170
12932TIP3   OH260210   1.587   1.212   4.952  0.0069  0.1204  0.0398
12932TIP3    H160211   1.604   1.143   5.017  0.8486  2.6813  2.8171
12932TIP3    H260212   1.570   1.165   4.871 -0.0364 -3.3353  1.8352
12933TIP3   OH260213   0.666   2.701  11.962 -0.2599 -0.0210 -0.3579
12933TIP3    H160214   0.662   2.696  12.058 -0.9032 -0.3292 -0.3934
12933TIP3    H260215   0.581   2.666  11.933 -0.2728  0.5483 -1.0242
12934TIP3   OH260216   5.234   2.528  11.507 -0.0209 -0.2175  0.1390
12934TIP3    H160217   5.318   2.501  11.543  0.6023  1.2124 -0.2029
12934TIP3    H260218   5.250   2.540  11.413 -1.4978 -3.4062 -0.6926
12935TIP3   OH260219   1.553   6.091   0.610  0.1257  0.2095  0.0915
12935TIP3    H160220   1.512   6.146   0.676  1.2757  0.4998  0.5888
12935TIP3    H260221   1.574   6.010   0.656 -1.4825 -0.6716 -0.6126
12936TIP3   OH260222   5.088   3.377  11.063 -0.0906  0.2867  0.0744
12936TIP3    H160223   5.173   3.419  11.052  0.1644 -0.0085  0.8729
12936TIP3    H260224   5.067   3.343  10.976  1.0964 -0.5577  0.0923
12937TIP3   OH260225   3.279   3.060   6.392  0.2795 -0.1465 -0.1535
12937TIP3    H160226   3.243   3.094   6.475 -0.3776  0.3404 -0.6210
12937TIP3    H260227   3.303   3.139   6.343 -0.0285 -0.4051 -0.7242
12938TIP3   OH260228   4.246   0.403   0.885  0.8089  0.1122 -0.0751
12938TIP3    H160229   4.195   0.480   0.861 -1.2907 -1.6115 -1.5557
12938TIP3    H260230   4.312   0.395   0.816 -2.2234 -2.1520 -3.0355
12939TIP3   OH260231   5.748   1.753   3.372  0.2577 -0.1425  0.0060
12939TIP3    H160232   5.654   1.738   3.380 -0.0220  0.2719 -2.0187
12939TIP3    H260233   5.783   1.668   3.345  0.6060 -0.4964  1.4855
12940TIP3   OH260234   1.550   6.584  10.509  0.5417 -0.5799  0.2705
12940TIP3    H160235   1.633   6.589  10.556  0.3969 -2.3781  0.7731
12940TIP3    H260236   1.528   6.491  10.508 -0.5027 -0.3701 -1.5514
12941TIP3   OH260237   5.168   6.097   4.556 -0.2898  0.0105  0.0394
12941TIP3    H160238   5.180   6.006   4.586 -1.9926 -0.4763 -0.6397
12941TIP3    H260239   5.129   6.088   4.469 -0.0974  1.4102 -0.2029
12942TIP3   OH260240   5.957   5.846  12.310  0.0807 -0.0517 -0.2284
12942TIP3    H160241   6.010   5.769  12.292 -0.2169 -0.3418  0.1178
12942TIP3    H260242   6.016   5.920  12.298  0.5853 -0.3730  0.2320
12943TIP3   OH260243   4.150   5.448   2.445  0.3260  0.5771 -0.2189
12943TIP3    H160244   4.057   5.468   2.437  0.0605  0.5752  2.1001
12943TIP3    H260245   4.188   5.525   2.486  0.9921 -0.0902  0.4567
12944TIP3   OH260246   6.069   5.061   4.406 -0.3223 -0.0726  0.1598
12944TIP3    H160247   6.103   5.015   4.483  2.3000 -1.9491 -1.9529
12944TIP3    H260248   6.138   5.052   4.340 -1.7119  2.9241 -1.9280
12945TIP3   OH260249   6.174   3.519  14.894 -0.3008  0.4505 -0.6112
12945TIP3    H160250   6.145   3.596  14.943  1.1033 -0.0261  1.0800
12945TIP3    H260251   6.142   3.444  14.945 -0.3598 -0.0871 -1.4155
12946TIP3   OH260252   3.185   1.087  14.776 -0.7673  0.8080 -0.2650
12946TIP3    H160253   3.228   1.162  14.816  0.4502  1.2575 -2.2475
12946TIP3    H260254   3.239   1.012  14.798  0.6901  1.2534 -2.0700
12947TIP3   OH260255   1.176   1.017  15.827 -0.5875 -0.3396  0.3567
12947TIP3    H160256   1.113   1.086  15.847 -1.3814 -1.0077  0.1943
12947TIP3    H260257   1.164   1.001  15.733  1.1648  0.8455 -0.1202
12948TIP3   OH260258   2.428   2.937  16.639 -0.0098  0.3231  0.3729
12948TIP3    H160259   2.401   2.925  16.548  1.4099 -0.9975  0.0790
12948TIP3    H260260   2.511   2.889  16.645 -0.1999  0.1998  2.4236
12949TIP3   OH260261   0.570   3.016   4.146 -0.0357 -0.1936 -0.0554
12949TIP3    H160262   0.647   3.063   4.179  1.0229 -0.1852 -2.3372
12949TIP3    H260263   0.505   3.085   4.131 -0.9300 -0.2992  2.7539
12950TIP3   OH260264   4.735   1.963   5.848 -0.5688  0.1012  0.0459
12950TIP3    H160265   4.642   1.972   5.871 -0.7755 -1.6231  0.0207
12950TIP3    H260266   4.778   2.034   5.897 -1.8710  0.9001  0.1062
12951TIP3   OH260267   5.278   2.555   1.614  0.5868  0.3881  0.0589
12951TIP3    H160268   5.374   2.554   1.610  0.6129 -0.3582  0.7617
12951TIP3    H260269   5.258   2.567   1.707 -0.0189  2.5328 -0.2890
12952TIP3   OH260270   4.380   1.730   0.783 -0.4695 -0.2648 -0.2651
12952TIP3    H160271   4.412   1.640   0.782 -2.1079 -0.8821 -0.5245
12952TIP3    H260272   4.285   1.722   0.773 -0.6130  1.5167 -0.7144
12953TIP3   OH260273   5.434   6.759   5.492  0.4542  0.3417 -0.3333
12953TIP3    H160274   5.498   6.688   5.489  1.5551  1.1383  1.6237
12953TIP3    H260275   5.485   6.837   5.467 -0.0131  0.8197  0.1746
12954TIP3   OH260276   4.377   6.436  14.034  0.0292 -0.3453 -0.4397
12954TIP3    H160277   4.458   6.439  13.983  1.1860  0.8266  1.3242
12954TIP3    H260278   4.398   6.379  14.108 -0.0912  1.3770  0.9971
12955TIP3   OH260279   2.595   3.375   2.387 -0.2043  0.0495  0.0652
12955TIP3    H160280   2.645   3.401   2.465  1.4692 -0.8640 -0.6399
12955TIP3    H260281   2.615   3.282   2.377  1.6193  0.6118 -2.7816
12956TIP3   OH260282   4.072   0.601   0.794 -0.3873  0.4424 -0.5300
12956TIP3    H160283   4.072   0.637   0.705  4.0923  2.8675  0.1519
12956TIP3    H260284   4.008   0.654   0.841 -0.5044  1.2858 -1.6028
12957TIP3   OH260285   2.077   2.241  10.445 -0.8066  0.2507 -0.1381
12957TIP3    H160286   2.003   2.300  10.432 -0.3880  0.9094  0.3876
12957TIP3    H260287   2.064   2.171  10.381 -0.9426  1.2809 -1.2571
12958TIP3   OH260288   2.825   5.539  15.854 -0.1332  0.2553  0.6423
12958TIP3    H160289   2.877   5.481  15.909  0.8283  1.1974  0.7760
12958TIP3    H260290   2.877   5.620  15.849 -1.5825  1.2247  0.7446
12959TIP3   OH260291   6.340   4.847   1.770 -0.1452 -0.0157 -0.0651
12959TIP3    H160292   6.338   4.938   1.738  3.6595  0.7989  1.4401
12959TIP3    H260293   6.377   4.797   1.697 -1.0782 -0.1630 -0.4524
12960TIP3   OH260294   5.779   1.720  12.201  0.1100  0.1359 -0.2662
12960TIP3    H160295   5.685   1.731  12.187 -0.2144 -1.6332  0.2717
12960TIP3    H260296   5.800   1.778  12.274 -0.5210  0.6516 -0.4870
12961TIP3   OH260297   4.968   5.496   4.943  0.1866  0.4188  0.0740
12961TIP3    H160298   4.926   5.563   4.998  1.6986  0.7723  0.8465
12961TIP3    H260299   4.928   5.508   4.857 -0.1900  1.7495  0.4053
12962TIP3   OH260300   1.448   3.255   6.315  0.0694 -0.0071 -0.6573
12962TIP3    H160301   1.363   3.295   6.294  0.1377 -0.3155 -1.5938
12962TIP3    H260302   1.439   3.164   6.288  0.8079  0.0448 -1.1239
12963TIP3   OH260303   6.388   4.206   4.178 -0.2665  0.5228 -0.0910
12963TIP3    H160304   6.359   4.285   4.223 -0.1254  0.1177  0.7438
12963TIP3    H260305   6.460   4.173   4.232 -2.0162 -1.6157  1.1463
12964TIP3   OH260306   5.259   3.297   3.855  0.4457 -0.0522 -0.0025
12964TIP3    H160307   5.270   3.372   3.797  0.5254 -0.3579 -0.3936
12964TIP3    H260308   5.288   3.327   3.940 -0.1447  0.5564 -0.0141
12965TIP3   OH260309   2.530   2.071  14.164 -0.0912 -0.7466 -0.5635
12965TIP3    H160310   2.560   2.151  14.209  0.1862 -0.9073 -0.4600
12965TIP3    H260311   2.454   2.043  14.215 -0.3789 -0.3789 -0.7812
12966TIP3   OH260312   3.695   2.510  14.908 -0.1575 -0.8944  0.4049
12966TIP3    H160313   3.736   2.424  14.904 -0.3626 -1.0042  0.7000
12966TIP3    H260314   3.664   2.526  14.819  3.4166  0.6143 -0.7692
12967TIP3   OH260315   3.624   0.685   1.723  0.2871  0.5925  0.0661
12967TIP3    H160316   3.545   0.719   1.767  0.3593  1.0446 -0.1466
12967TIP3    H260317   3.696   0.719   1.775  0.3365 -1.0052  1.1202
12968TIP3   OH260318   0.580   6.251   6.510 -0.2006  0.1174  0.7103
12968TIP3    H160319   0.662   6.299   6.526 -0.3848  0.1718  1.5473
12968TIP3    H260320   0.524   6.313   6.464 -0.2054  0.4924  1.2194
12969TIP3   OH260321   1.255   6.517  13.284  0.3829  0.4837  0.1413
12969TIP3    H160322   1.197   6.590  13.305  1.0710  0.5919  1.7615
12969TIP3    H260323   1.329   6.558  13.239  0.1383  0.5910 -0.1717
12970TIP3   OH260324   6.672   6.624   0.444 -0.2171  0.0956 -0.3172
12970TIP3    H160325   6.671   6.719   0.448 -1.2569  0.0385  1.4613
12970TIP3    H260326   6.761   6.600   0.472  0.4924  0.5385 -2.0544
12971TIP3   OH260327   1.894   6.239   4.776 -0.0936 -0.1844 -0.1176
12971TIP3    H160328   1.929   6.150   4.775  2.0659  0.6080 -0.8719
12971TIP3    H260329   1.905   6.270   4.686  0.3516  1.2541  0.4060
12972TIP3   OH260330   5.733   5.992   3.551 -0.3038  0.1322  0.1792
12972TIP3    H160331   5.821   5.970   3.520 -0.8579 -0.1872 -1.2722
12972TIP3    H260332   5.718   5.933   3.625  0.6372  0.0870  0.3481
12973TIP3   OH260333   0.242   6.325   5.549 -0.1883  0.4198  0.1638
12973TIP3    H160334   0.295   6.404   5.536 -1.4917  1.5883  1.5430
12973TIP3    H260335   0.306   6.256   5.566  1.0662  0.8371 -2.3079
12974TIP3   OH260336   0.406   6.419  15.485  0.0258 -0.6233  0.6956
12974TIP3    H160337   0.455   6.419  15.568 -0.3102  0.4520  0.9052
12974TIP3    H260338   0.474   6.419  15.417  0.3058 -0.9297  0.9721
12975TIP3   OH260339   3.435   4.917   4.792  0.3794  0.0871 -0.2636
12975TIP3    H160340   3.413   4.904   4.884 -4.1082  3.5557 -0.4758
12975TIP3    H260341   3.514   4.971   4.792  0.8423 -0.5462  1.4654
12976TIP3   OH260342   0.993   1.733  16.730  0.9062  0.2836  0.0439
12976TIP3    H160343   0.948   1.652  16.755  2.6271 -1.5096 -2.2329
12976TIP3    H260344   0.933   1.775  16.668  0.0091  0.8006  1.2242
12977TIP3   OH260345   2.392   4.492   6.347 -0.4554  0.0165 -0.5739
12977TIP3    H160346   2.473   4.543   6.354  0.5473 -1.4246 -1.1739
12977TIP3    H260347   2.325   4.556   6.326  0.3938  1.3546  0.6008
12978TIP3   OH260348   2.581   3.273   0.968  0.0170  1.1052 -0.1372
12978TIP3    H160349   2.537   3.276   1.053  1.3780  1.4454  0.5904
12978TIP3    H260350   2.522   3.321   0.909 -0.8855  0.9811  0.6319
12979TIP3   OH260351   5.888   2.560   1.428  0.4232 -0.5075  0.4045
12979TIP3    H160352   5.912   2.652   1.436 -0.3472 -0.2488 -0.1743
12979TIP3    H260353   5.801   2.561   1.390  0.3594 -1.4795  0.5023
12980TIP3   OH260354   5.320   6.507  16.422 -0.2285  0.0150 -0.6153
12980TIP3    H160355   5.404   6.528  16.382 -0.1906 -0.2307 -0.6701
12980TIP3    H260356   5.319   6.411  16.427 -0.4032  0.0248 -0.3963
12981TIP3   OH260357   1.531   5.640  15.650  0.1071 -0.1396 -0.0107
12981TIP3    H160358   1.520   5.561  15.597 -0.6436  0.1465 -0.2860
12981TIP3    H260359   1.442   5.668  15.670  0.1933  2.4062 -2.5265
12982TIP3   OH260360   2.280   6.517  12.058 -0.9438 -0.2307  0.5955
12982TIP3    H160361   2.225   6.522  11.980 -0.7466 -0.0668  0.4664
12982TIP3    H260362   2.236   6.452  12.113 -1.6174  0.3519  0.7710
12983TIP3   OH260363   1.028   5.332   5.029 -0.3226  0.1358 -0.0072
12983TIP3    H160364   0.972   5.282   5.088 -1.4593 -1.1920 -2.0934
12983TIP3    H260365   1.112   5.338   5.075 -1.2524 -0.5197  1.8638
12984TIP3   OH260366   4.251   3.562  11.376  0.1002 -0.1041  0.1773
12984TIP3    H160367   4.165   3.601  11.360  0.7475  1.3967  0.2099
12984TIP3    H260368   4.278   3.598  11.461  1.3972  0.6632 -0.5237
12985TIP3   OH260369   0.305   1.537   1.342 -0.0048 -0.9162  0.5914
12985TIP3    H160370   0.377   1.555   1.282  1.3752 -2.8175  1.5767
12985TIP3    H260371   0.261   1.621   1.352  3.2199  0.8548  1.4067
12986TIP3   OH260372   1.311   6.146   2.163  0.0390  0.2021 -0.0765
12986TIP3    H160373   1.298   6.228   2.210  0.3925 -0.4685  1.2326
12986TIP3    H260374   1.405   6.141   2.147 -0.1641  0.8658 -1.7514
12987TIP3   OH260375   2.665   4.756   4.431 -0.1566 -0.5320  0.2378
12987TIP3    H160376   2.688   4.781   4.520  1.4920 -0.7658 -0.0897
12987TIP3    H260377   2.749   4.737   4.389 -1.0242 -2.2635 -0.8289
12988TIP3   OH260378   1.963   5.447   6.051 -0.1605 -0.6141 -0.9254
12988TIP3    H160379   1.922   5.526   6.086  2.9681 -0.1044  2.1765
12988TIP3    H260380   2.040   5.478   6.005 -0.8868 -1.7354 -3.0085
12989TIP3   OH260381   1.799   0.557   3.372 -0.2205 -0.3747 -0.6290
12989TIP3    H160382   1.720   0.549   3.426 -0.2628 -1.7890 -0.8805
12989TIP3    H260383   1.796   0.482   3.313  0.9864 -0.0771 -1.0954
12990TIP3   OH260384   4.731   0.569  13.668 -0.0975  0.3711  0.4405
12990TIP3    H160385   4.693   0.622  13.598  0.0932  1.5302  1.1803
12990TIP3    H260386   4.661   0.509  13.694  0.5892 -1.8204 -2.3623
12991TIP3   OH260387   5.715   4.218   5.439  0.0594 -0.0325 -0.0605
12991TIP3    H160388   5.705   4.182   5.351 -0.7549 -0.5926  0.2440
12991TIP3    H260389   5.722   4.141   5.495 -1.8499  0.2300  0.6173
12992TIP3   OH260390   2.839   3.390  11.589 -0.1522  0.2000 -0.4201
12992TIP3    H160391   2.851   3.347  11.504  0.0584 -0.7715  0.0791
12992TIP3    H260392   2.777   3.335  11.636  1.4012 -0.5627  0.8752
12993TIP3   OH260393   0.387   6.012  11.874  0.4538 -0.4405  0.2367
12993TIP3    H160394   0.423   5.930  11.906  1.3445 -0.0729  0.1900
12993TIP3    H260395   0.302   5.988  11.836  0.3297 -1.2007  0.9671
12994TIP3   OH260396   4.798   0.208   1.457 -0.1653  0.1354  0.4723
12994TIP3    H160397   4.711   0.247   1.470  0.0842  0.4142  1.3946
12994TIP3    H260398   4.837   0.261   1.387 -0.2849  0.7932  0.8904
12995TIP3   OH260399   5.260   5.078  16.475 -0.0042  0.1288  0.0544
12995TIP3    H160400   5.229   4.988  16.482  0.9967 -0.2951 -0.7541
12995TIP3    H260401   5.182   5.128  16.447 -0.5295 -0.5029  0.3809
12996TIP3   OH260402   5.692   2.563  14.916  0.0286  0.0034  0.7941
12996TIP3    H160403   5.611   2.563  14.864  0.5018  1.4497 -0.0052
12996TIP3    H260404   5.722   2.654  14.912 -0.5593  0.5450  4.6545
12997TIP3   OH260405   5.429   5.991  15.832  0.2956  0.5048  0.2237
12997TIP3    H160406   5.406   6.032  15.749 -1.5781 -0.2415  0.3310
12997TIP3    H260407   5.403   5.900  15.822  2.2920 -0.1900  0.7969
12998TIP3   OH260408   6.037   5.851   1.712 -0.7325 -0.4291  0.2242
12998TIP3    H160409   5.984   5.782   1.672  0.5659 -1.6027  0.4177
12998TIP3    H260410   6.128   5.826   1.693 -0.1928  0.8048  0.9922
12999TIP3   OH260411   2.606   5.202  11.398  0.4155  0.2283 -0.6955
12999TIP3    H160412   2.538   5.223  11.334 -0.0566  3.8314  0.7427
12999TIP3    H260413   2.590   5.262  11.470  4.3646  0.3545  0.2907
13000TIP3   OH260414   1.538   2.108  11.347  0.6029 -0.5229  0.1436
13000TIP3    H160415   1.579   2.071  11.269  1.3213 -1.5752  0.9827
13000TIP3    H260416   1.574   2.196  11.355 -1.9084  0.9034 -2.4718
13001TIP3   OH260417   0.956   0.234  15.628  0.4896  0.7093  0.3329
13001TIP3    H160418   1.002   0.315  15.608  1.7058  0.4123  1.7396
13001TIP3    H260419   0.897   0.221  15.554  2.0658  1.5565 -1.1469
13002TIP3   OH260420   4.906   6.675   2.980  0.0232  0.1379 -0.5382
13002TIP3    H160421   4.811   6.663   2.976 -0.3600  2.2045  0.9701
13002TIP3    H260422   4.941   6.598   2.934 -2.3096 -1.3023 -0.1073
13003TIP3   OH260423   2.643   6.430   0.416 -0.5372  0.3577 -0.7220
13003TIP3    H160424   2.643   6.514   0.369 -1.2805  0.4945 -0.4944
13003TIP3    H260425   2.573   6.380   0.375 -0.5756  0.1210 -0.3712
13004TIP3   OH260426   3.933   6.088   4.438 -0.1743  0.2119 -0.1164
13004TIP3    H160427   3.843   6.098   4.472 -1.0085  0.2538 -2.1985
13004TIP3    H260428   3.932   6.003   4.394  1.1208 -0.2180  0.6276
13005TIP3   OH260429   1.687   5.096   3.767 -0.3799 -0.2233 -0.3102
13005TIP3    H160430   1.772   5.055   3.786 -1.6334 -2.6534  0.4400
13005TIP3    H260431   1.709   5.188   3.750  2.5138 -0.9551 -1.2316
13006TIP3   OH260432   3.088   2.407  12.322 -0.1349  0.1974  0.1913
13006TIP3    H160433   3.000   2.441  12.341 -0.1023 -0.0746  0.8625
13006TIP3    H260434   3.072   2.318  12.290 -0.0682 -0.1434  1.0759
13007TIP3   OH260435   4.973   5.654  13.871 -0.9007  0.5471  0.2183
13007TIP3    H160436   4.887   5.641  13.911 -0.4104 -0.0946  1.0960
13007TIP3    H260437   5.013   5.724  13.923 -0.3627 -0.1114  0.7053
13008TIP3   OH260438   2.049   4.425   5.703 -0.3225 -0.1813  0.1454
13008TIP3    H160439   1.979   4.406   5.766  0.1401 -1.4638  0.3126
13008TIP3    H260440   2.013   4.398   5.618  0.1024 -1.2898  0.2942
13009TIP3   OH260441   3.134   2.700  14.105 -0.1681 -0.6014 -0.0707
13009TIP3    H160442   3.088   2.737  14.180  2.2072  0.3137  1.0658
13009TIP3    H260443   3.173   2.775  14.060  2.3058 -1.3711  0.5762
13010TIP3   OH260444   4.048   1.540   3.822  0.6425  0.1703  0.1434
13010TIP3    H160445   4.039   1.483   3.898 -0.5578 -0.6644 -0.5952
13010TIP3    H260446   4.095   1.616   3.855 -2.0930  1.0456  2.3869
13011TIP3   OH260447   1.366   4.267   6.674  0.3263  0.1909  0.2178
13011TIP3    H160448   1.457   4.239   6.665 -0.1248 -1.3343  0.0236
13011TIP3    H260449   1.316   4.186   6.667 -1.0011  0.8837  1.1925
13012TIP3   OH260450   3.186   6.045  14.587  0.3788  0.0395 -0.1187
13012TIP3    H160451   3.220   5.960  14.615 -0.2768 -0.3815 -0.5749
13012TIP3    H260452   3.151   6.085  14.667 -0.4779 -0.6825 -0.1202
13013TIP3   OH260453   5.269   6.519   5.341  0.2281  0.3379  0.0473
13013TIP3    H160454   5.269   6.424   5.352  1.2793  0.2568 -0.4827
13013TIP3    H260455   5.212   6.534   5.266 -0.5155  0.1983  0.5744
13014TIP3   OH260456   5.072   2.470  15.758  0.7837  0.4678 -0.2149
13014TIP3    H160457   5.065   2.550  15.706 -1.1900  0.3347 -0.2275
13014TIP3    H260458   4.993   2.421  15.738  1.5612 -1.1356  0.4246
13015TIP3   OH260459   4.737   3.649   1.743  1.1415 -0.0296  0.1830
13015TIP3    H160460   4.710   3.670   1.654  0.8071  0.4475  0.3910
13015TIP3    H260461   4.830   3.630   1.737  1.4866  1.6155 -0.0145
13016TIP3   OH260462   1.350   4.982  15.252  0.5123 -0.1986 -0.0473
13016TIP3    H160463   1.317   4.918  15.189 -0.9942  1.6119 -1.2088
13016TIP3    H260464   1.394   4.929  15.319  1.5159 -2.2515 -2.1783
13017TIP3   OH260465   1.620   4.563  12.112  0.5059 -0.0001 -0.6090
13017TIP3    H160466   1.558   4.631  12.136  0.1196 -0.3536 -0.6033
13017TIP3    H260467   1.574   4.481  12.129  1.6742 -0.3240  1.3752
13018TIP3   OH260468   1.091   0.712   0.308 -0.3633 -0.1843  0.5394
13018TIP3    H160469   1.162   0.656   0.339  0.3594 -0.8642 -2.0959
13018TIP3    H260470   1.045   0.739   0.388  0.1434 -3.3113  2.0267
13019TIP3   OH260471   5.377   0.757   5.741  0.1910 -0.2463 -0.3039
13019TIP3    H160472   5.293   0.733   5.702  0.6602 -1.4149 -0.6223
13019TIP3    H260473   5.356   0.776   5.833 -0.7849  1.7517 -0.8669
13020TIP3   OH260474   5.828   5.925  16.334  0.3767  0.1458 -0.2269
13020TIP3    H160475   5.907   5.932  16.387 -0.1612 -0.8803  0.7783
13020TIP3    H260476   5.820   5.831  16.314 -0.4809  0.2520 -0.4588
13021TIP3   OH260477   4.220   0.562  14.620 -0.0668 -0.2772 -0.1649
13021TIP3    H160478   4.238   0.473  14.591  0.1762 -0.3180  0.1025
13021TIP3    H260479   4.165   0.599  14.551  0.8274 -0.2314 -0.8620
13022TIP3   OH260480   6.614   5.421  16.861  0.8983 -0.0814 -0.0160
13022TIP3    H160481   6.655   5.336  16.842 -0.4844 -0.7497 -0.1169
13022TIP3    H260482   6.680   5.468  16.912  0.9744 -1.9728  1.7745
13023TIP3   OH260483   3.968   1.610   2.797  0.4222  0.4924  0.5045
13023TIP3    H160484   3.928   1.546   2.738 -0.2567 -0.2832  1.7568
13023TIP3    H260485   4.054   1.573   2.816 -0.3833 -0.6820  2.1008
13024TIP3   OH260486   3.517   4.516  15.959 -0.0470 -0.8490 -0.3577
13024TIP3    H160487   3.525   4.547  16.048 -0.4494  0.7234 -0.8420
13024TIP3    H260488   3.520   4.420  15.966  2.3031 -0.7413  1.0789
13025TIP3   OH260489   6.410   1.225   3.036 -0.3205 -0.3171 -0.4425
13025TIP3    H160490   6.484   1.217   3.095 -0.1350  0.2520 -0.6001
13025TIP3    H260491   6.405   1.140   2.992 -0.5328 -0.7855  0.4661
13026TIP3   OH260492   0.680   5.078   6.206  0.6213 -0.0773 -0.3196
13026TIP3    H160493   0.593   5.069   6.244  0.2290  0.0954 -1.1428
13026TIP3    H260494   0.740   5.051   6.275 -0.0460  0.5211  0.5092
13027TIP3   OH260495   6.667   2.334  11.379  0.5665 -0.0454  0.4706
13027TIP3    H160496   6.681   2.241  11.399 -0.7637 -0.4631 -0.4132
13027TIP3    H260497   6.628   2.334  11.292  0.0833  1.3210  0.6646
13028TIP3   OH260498   2.302   0.175   0.321 -0.4270 -0.0983 -0.5252
13028TIP3    H160499   2.373   0.128   0.276  0.0853 -0.1907  0.3652
13028TIP3    H260500   2.347   0.240   0.375 -0.9282 -0.9828  1.0129
13029TIP3   OH260501   4.315   6.292   2.052 -0.7669 -0.0724 -0.2501
13029TIP3    H160502   4.390   6.264   2.001 -0.0367 -0.8677  1.2106
13029TIP3    H260503   4.261   6.214   2.062  0.6424 -0.7996  2.7543
13030TIP3   OH260504   0.806   2.980   0.338  0.4050 -0.0740  0.6799
13030TIP3    H160505   0.844   3.055   0.384 -0.0670 -0.0420  1.0319
13030TIP3    H260506   0.868   2.961   0.268  0.5592  0.6135  0.6174
13031TIP3   OH260507   0.125   0.465   3.048 -0.3899 -0.6397  0.0677
13031TIP3    H160508   0.064   0.394   3.027  1.1114 -1.9272 -0.1281
13031TIP3    H260509   0.109   0.482   3.141 -1.2971 -0.6861 -0.0680
13032TIP3   OH260510   0.004   1.131   5.214  0.4207 -0.0186  0.5153
13032TIP3    H160511   0.069   1.061   5.210  0.4753 -0.0176  1.3011
13032TIP3    H260512  -0.026   1.131   5.305 -1.8055 -1.0480 -0.1252
13033TIP3   OH260513   2.312   1.412   6.411 -0.4633 -0.1992  0.4191
13033TIP3    H160514   2.357   1.334   6.444 -1.3979 -0.4574  1.1080
13033TIP3    H260515   2.354   1.485   6.456  0.2654 -0.3098 -0.0600
13034TIP3   OH260516   3.533   6.448  15.561 -0.0218  0.1960 -0.4435
13034TIP3    H160517   3.608   6.451  15.501  0.7647 -0.3883  0.4730
13034TIP3    H260518   3.509   6.539  15.575  2.1437  0.5983  1.1882
13035TIP3   OH260519   6.252   1.127   2.733  0.7245  0.7224 -0.2919
13035TIP3    H160520   6.303   1.081   2.666 -0.1852 -0.4013 -0.2343
13035TIP3    H260521   6.281   1.088   2.816 -2.3860 -2.2753 -0.4127
13036TIP3   OH260522   5.226   6.230  16.418 -0.1595  0.1841 -0.0978
13036TIP3    H160523   5.220   6.135  16.408 -1.7775  0.3055 -0.4819
13036TIP3    H260524   5.268   6.261  16.338 -1.0976 -0.0717 -0.6982
13037TIP3   OH260525   3.069   6.042  15.364 -0.3471  0.2911 -0.0972
13037TIP3    H160526   3.110   6.027  15.449  1.5514  1.2617 -0.7881
13037TIP3    H260527   2.983   6.001  15.371  0.6633 -1.7020  1.4775
13038TIP3   OH260528   0.234   5.234   6.320  0.5496 -0.2182 -0.4248
13038TIP3    H160529   0.187   5.267   6.397  0.6596  1.8542 -1.1777
13038TIP3    H260530   0.237   5.139   6.333 -2.5254 -0.3294  0.3907
13039TIP3   OH260531   4.583   0.877   5.938 -0.4197  0.1590 -0.2355
13039TIP3    H160532   4.643   0.861   5.866  0.6048 -1.5936  0.9367
13039TIP3    H260533   4.521   0.804   5.934  0.4754 -0.7398  1.4263
13040TIP3   OH260534   0.694   4.602   4.512  0.5557  0.2732  0.6324
13040TIP3    H160535   0.754   4.548   4.564  1.2224 -0.4893 -0.8628
13040TIP3    H260536   0.682   4.681   4.565  0.9015 -0.6053  2.1090
13041TIP3   OH260537   0.481   3.408  12.411 -0.3471  0.1398  0.6015
13041TIP3    H160538   0.528   3.484  12.377  0.2650  0.1555  1.4295
13041TIP3    H260539   0.516   3.397  12.500  0.1440 -1.5707  0.2330
13042TIP3   OH260540   4.169   4.974   2.180 -0.6549  0.7062 -0.0750
13042TIP3    H160541   4.108   5.027   2.232  0.7069  2.9837 -0.6962
13042TIP3    H260542   4.251   4.977   2.229  0.0855  1.1683 -1.3062
13043TIP3   OH260543   3.177   6.465   0.294 -0.1692 -0.2217 -0.7781
13043TIP3    H160544   3.233   6.392   0.322  0.5510  0.0024 -1.6000
13043TIP3    H260545   3.164   6.451   0.200 -0.9283  0.1201 -0.7317
13044TIP3   OH260546   5.627   6.000   2.378  0.5846  0.5305 -0.1434
13044TIP3    H160547   5.586   6.033   2.457  0.3624  2.5551 -1.0364
13044TIP3    H260548   5.702   5.949   2.409 -0.2102  0.2432  1.3737
13045TIP3   OH260549   0.387   3.974   3.320  1.0551  0.2042 -0.6674
13045TIP3    H160550   0.405   3.944   3.409  3.3830  0.0292 -1.1200
13045TIP3    H260551   0.427   4.061   3.315 -0.0269  0.6929 -1.2485
13046TIP3   OH260552   5.025   2.190  12.527  0.3131  0.0157 -0.0976
13046TIP3    H160553   4.943   2.141  12.513  0.4484  0.0782 -1.1465
13046TIP3    H260554   5.015   2.228  12.615 -0.1469 -1.2044  0.4007
13047TIP3   OH260555   4.938   5.196  11.947  0.1701 -0.7486 -0.5814
13047TIP3    H160556   4.876   5.264  11.923 -0.1905 -1.6359 -2.3256
13047TIP3    H260557   4.942   5.199  12.043 -0.5141  1.0803 -0.5812
13048TIP3   OH260558   0.371   3.520   6.295 -0.4431  0.8199  0.0307
13048TIP3    H160559   0.440   3.458   6.319  1.2346  1.6878 -2.2138
13048TIP3    H260560   0.336   3.551   6.378  1.4184 -0.1503  1.2283
13049TIP3   OH260561   0.513   4.894   4.958 -0.0442 -0.1263  0.4280
13049TIP3    H160562   0.447   4.952   4.996 -0.0395  0.3646 -0.2934
13049TIP3    H260563   0.469   4.853   4.884  0.4681  0.2553 -0.1002
13050TIP3   OH260564   6.414   3.503  12.101 -0.5350  0.1398  0.1655
13050TIP3    H160565   6.335   3.498  12.047 -0.0092 -0.9711 -0.5260
13050TIP3    H260566   6.475   3.557  12.050  0.1635 -1.3741 -0.6451
13051TIP3   OH260567   4.361   2.331   2.468 -0.6401 -0.0069  0.1642
13051TIP3    H160568   4.329   2.376   2.547 -0.3024  3.9364 -1.7179
13051TIP3    H260569   4.456   2.330   2.478 -0.6169  0.1752 -0.0382
13052TIP3   OH260570   5.827   3.309  13.624 -0.1588 -0.1341  0.2618
13052TIP3    H160571   5.769   3.372  13.668 -2.0774 -0.4548 -1.6557
13052TIP3    H260572   5.848   3.350  13.540  2.2992 -0.1519  0.7739
13053TIP3   OH260573   0.108   5.081   0.739  0.6750 -0.2312  0.0456
13053TIP3    H160574   0.175   5.071   0.807 -0.1215 -0.5081  0.8009
13053TIP3    H260575   0.053   5.004   0.748 -1.7586  1.5720  1.6698
13054TIP3   OH260576   5.653   1.971   4.032  0.2510  0.5427 -0.2714
13054TIP3    H160577   5.725   2.034   4.040  0.4731  0.1908  0.6306
13054TIP3    H260578   5.576   2.025   4.016  0.3165  1.1206  1.2422
13055TIP3   OH260579   0.928   3.092   3.582 -0.4003  0.9195  0.4058
13055TIP3    H160580   0.867   3.080   3.510  1.6596 -0.3914 -1.2373
13055TIP3    H260581   0.920   3.185   3.605 -0.6524  1.5480 -1.9824
13056TIP3   OH260582   1.307   2.164   4.685  0.4386  0.1930 -0.0902
13056TIP3    H160583   1.399   2.145   4.667 -0.0705 -2.5676 -0.2552
13056TIP3    H260584   1.261   2.084   4.659 -2.0755  1.6350 -0.3992
13057TIP3   OH260585   2.733   4.274   2.983 -0.3317 -0.0449 -0.2394
13057TIP3    H160586   2.640   4.282   3.003 -0.7830 -1.1497 -1.6952
13057TIP3    H260587   2.739   4.293   2.889  0.7621 -0.9932 -0.3824
13058TIP3   OH260588   6.536   0.056  15.014 -0.2794  0.5407 -0.4359
13058TIP3    H160589   6.541   0.064  14.919  0.4268  3.3094 -0.2407
13058TIP3    H260590   6.484   0.132  15.042 -2.6890 -1.5364  1.2697
13059TIP3   OH260591   5.538   2.448   1.561 -0.1652 -0.5888  0.2681
13059TIP3    H160592   5.579   2.459   1.476  2.2563  1.2902  1.5475
13059TIP3    H260593   5.609   2.422   1.619 -0.9839  1.4053  2.3443
13060TIP3   OH260594   3.813   1.024  16.714 -0.1911 -0.0758  0.8603
13060TIP3    H160595   3.810   1.047  16.807 -0.1420 -0.6474  1.0081
13060TIP3    H260596   3.722   1.031  16.685 -0.4273 -1.1593  1.2789
13061TIP3   OH260597   4.005   3.865   1.069 -0.0337  0.2821  0.4141
13061TIP3    H160598   3.928   3.921   1.077 -0.1434  0.5540 -1.8562
13061TIP3    H260599   3.972   3.784   1.031  0.4438 -0.5948  1.7875
13062TIP3   OH260600   0.925   4.940  11.696  0.3176 -0.1785  0.2565
13062TIP3    H160601   0.939   4.848  11.672 -1.8016 -0.3290 -0.5771
13062TIP3    H260602   0.901   4.936  11.789 -0.1080 -0.5148  0.1373
13063TIP3   OH260603   1.622   3.855   5.379 -0.2628 -0.3136  0.3227
13063TIP3    H160604   1.532   3.865   5.410  0.0501  0.5466  0.9945
13063TIP3    H260605   1.667   3.934   5.410  0.7342 -0.7514  0.0311
13064TIP3   OH260606   3.544   2.603   2.095  0.3629  0.6282  1.2254
13064TIP3    H160607   3.494   2.679   2.125 -0.4198  0.9046 -0.6526
13064TIP3    H260608   3.480   2.549   2.049  0.5440 -2.0219  3.7665
13065TIP3   OH260609   5.619   0.761   4.052  0.0443 -0.0024 -1.3084
13065TIP3    H160610   5.538   0.734   4.010 -0.0902  1.1910 -1.8668
13065TIP3    H260611   5.658   0.824   3.991  1.1726 -0.2283 -0.8466
13066TIP3   OH260612   5.128   2.394  14.823 -0.2676 -0.0879 -0.0852
13066TIP3    H160613   5.221   2.415  14.832 -0.3386  0.2777 -0.1854
13066TIP3    H260614   5.122   2.300  14.840  0.0910 -0.0699  0.1284
13067TIP3   OH260615   2.245   3.362   2.225  0.0878 -0.0527  0.0283
13067TIP3    H160616   2.152   3.382   2.235  0.2693  0.8505 -0.0545
13067TIP3    H260617   2.290   3.445   2.240  0.7560  0.0342 -2.1580
13068TIP3   OH260618   2.289   4.205  11.609 -0.1569  0.1042  0.2708
13068TIP3    H160619   2.350   4.135  11.585 -0.7460 -0.9661  1.7664
13068TIP3    H260620   2.341   4.285  11.601  0.7006 -0.5399 -0.9224
13069TIP3   OH260621   4.894   0.044   6.315 -0.3522 -0.4741  0.2183
13069TIP3    H160622   4.822  -0.018   6.319  1.3130 -2.5439 -0.2641
13069TIP3    H260623   4.970  -0.008   6.290  1.4465  1.5053  1.1921
13070TIP3   OH260624   6.718   4.089  16.271 -0.1581 -0.5193 -0.0830
13070TIP3    H160625   6.626   4.062  16.277 -0.0512 -0.6296  1.3772
13070TIP3    H260626   6.754   4.035  16.201 -1.1165 -0.7271 -0.4372
13071TIP3   OH260627   1.651   2.771  16.249 -0.8468  0.2675 -0.8587
13071TIP3    H160628   1.640   2.709  16.177 -0.1881 -0.2955 -0.4851
13071TIP3    H260629   1.696   2.721  16.317 -1.7450  0.6956  0.0800
13072TIP3   OH260630   5.469   2.354   2.326 -0.3367 -0.0732  0.1419
13072TIP3    H160631   5.504   2.329   2.240  0.3458 -0.3472  0.4852
13072TIP3    H260632   5.473   2.273   2.377 -2.8556 -0.4913 -0.2157
13073TIP3   OH260633   3.769   3.838  15.398 -0.0459  0.3274 -0.3264
13073TIP3    H160634   3.790   3.869  15.310  0.1409  0.4791 -0.2279
13073TIP3    H260635   3.854   3.820  15.438 -0.1415 -0.1441 -0.3211
13074TIP3   OH260636   2.951   5.584  13.867  0.1902 -0.3459  0.2102
13074TIP3    H160637   3.002   5.646  13.814  1.4089 -0.9523  0.6283
13074TIP3    H260638   2.874   5.634  13.894  0.3943  0.5138 -0.6983
13075TIP3   OH260639   0.426   2.691   0.480  0.0047 -0.2563  0.3053
13075TIP3    H160640   0.455   2.602   0.459  2.4479  0.3968  0.6006
13075TIP3    H260641   0.407   2.731   0.395  2.4700  0.0053 -0.2057
13076TIP3   OH260642   3.720   4.779   3.575 -1.8614  0.0203 -1.0216
13076TIP3    H160643   3.673   4.799   3.656  0.6394 -0.5383  0.6753
13076TIP3    H260644   3.812   4.793   3.597 -0.9222 -2.1851 -3.1398
13077TIP3   OH260645   4.498   0.785   1.455  0.7137  0.3741  0.1851
13077TIP3    H160646   4.448   0.709   1.484  0.8068 -0.1154 -0.9275
13077TIP3    H260647   4.460   0.808   1.370  0.8350  1.4364  0.4084
13078TIP3   OH260648   5.405   5.096   1.520 -0.2948 -0.0040 -0.3095
13078TIP3    H160649   5.443   5.048   1.594 -0.3524 -1.6292 -1.2811
13078TIP3    H260650   5.311   5.077   1.526 -0.0985 -1.7104 -1.8096
13079TIP3   OH260651   4.947   5.130   4.379 -0.2715  0.6482  0.5782
13079TIP3    H160652   4.936   5.056   4.438  2.5983  2.3989  3.6392
13079TIP3    H260653   5.039   5.126   4.353 -1.3682 -0.0966 -4.1681
13080TIP3   OH260654   2.278   2.783   4.436 -0.1640  0.1436 -0.6345
13080TIP3    H160655   2.295   2.783   4.342 -1.5469 -0.5153 -0.9066
13080TIP3    H260656   2.194   2.828   4.445 -0.2768 -0.2229  0.2337
13081TIP3   OH260657   2.953   5.372  13.711 -0.0870 -0.0871  0.1054
13081TIP3    H160658   2.951   5.449  13.769 -0.7682 -0.9425  1.2659
13081TIP3    H260659   3.038   5.376  13.669 -0.8037  2.3413 -1.3096
13082TIP3   OH260660   0.618   5.662  12.646 -0.0520  0.0494 -0.4057
13082TIP3    H160661   0.602   5.681  12.553 -1.1291  1.9455  0.1041
13082TIP3    H260662   0.679   5.589  12.645  0.3955  0.3655 -2.6195
13083TIP3   OH260663   6.658   2.209  10.337 -0.4744 -0.3849  0.0256
13083TIP3    H160664   6.732   2.267  10.318  1.5561 -1.8948  2.6774
13083TIP3    H260665   6.688   2.122  10.310 -2.3913 -0.7139 -1.2795
13084TIP3   OH260666   2.856   2.318   5.663 -0.0372  0.5953 -0.4329
13084TIP3    H160667   2.942   2.276   5.670 -1.5161 -2.7704 -0.7636
13084TIP3    H260668   2.835   2.346   5.752  0.6162 -0.2377 -0.0119
13085TIP3   OH260669   0.079   0.731  16.357  0.3268 -0.6160 -0.0818
13085TIP3    H160670   0.034   0.670  16.416  0.3127 -1.1386 -0.6324
13085TIP3    H260671   0.025   0.733  16.278 -0.1903  0.8276  0.2653
13086TIP3   OH260672   4.978   1.467  13.820  1.2124 -0.2288 -0.6334
13086TIP3    H160673   4.905   1.515  13.781  0.0806 -0.6634  0.8337
13086TIP3    H260674   5.052   1.484  13.762 -0.0229  0.3022 -2.1249
13087TIP3   OH260675   2.555   5.690   3.719  0.6010 -0.3394  0.3595
13087TIP3    H160676   2.502   5.671   3.797 -0.5938 -1.2485 -0.6251
13087TIP3    H260677   2.610   5.612   3.709 -0.4671 -0.9977 -0.6392
13088TIP3   OH260678   1.268   5.094   3.020  0.1366 -0.0545 -0.0724
13088TIP3    H160679   1.265   5.016   2.965 -0.6360  0.8473 -1.3720
13088TIP3    H260680   1.355   5.130   3.005  0.4314 -0.5633  0.3935
13089TIP3   OH260681   1.794   0.965   0.820 -0.5868 -0.1040 -0.1032
13089TIP3    H160682   1.759   0.888   0.777 -2.0234  0.8037 -0.6297
13089TIP3    H260683   1.855   1.002   0.756  0.4917 -1.0412  0.3486
13090TIP3   OH260684   0.545   6.462   4.562 -0.0656  0.5482 -0.3953
13090TIP3    H160685   0.541   6.432   4.653 -1.4966  0.5944 -0.4231
13090TIP3    H260686   0.551   6.557   4.569  1.2723  0.4916 -0.3592
13091TIP3   OH260687   5.576   1.891  13.066 -0.2949  0.1729  0.1794
13091TIP3    H160688   5.536   1.834  13.000 -2.1273  0.7877  0.6954
13091TIP3    H260689   5.555   1.849  13.150 -0.2027  0.7246  0.4847
13092TIP3   OH260690   2.228   1.772   1.144  0.0037 -0.1447 -0.0129
13092TIP3    H160691   2.188   1.852   1.178  1.0593  0.5081 -0.2431
13092TIP3    H260692   2.323   1.786   1.155  0.1858 -1.5865  0.4213
13093TIP3   OH260693   5.934   4.964   4.973 -0.4783 -0.2681 -0.1738
13093TIP3    H160694   5.977   4.891   5.016  0.5609  0.2770 -0.2676
13093TIP3    H260695   5.932   4.941   4.881  2.3123  0.9407 -0.6396
13094TIP3   OH260696   1.530   4.128  16.354 -0.1693 -0.7510  0.3000
13094TIP3    H160697   1.452   4.125  16.410 -1.7880  0.2159 -1.7621
13094TIP3    H260698   1.541   4.037  16.324  0.5190 -1.2109  1.8465
13095TIP3   OH260699   4.242   6.374   4.134  0.1447  0.0946  0.4639
13095TIP3    H160700   4.204   6.431   4.201  0.2309 -2.9945  3.4380
13095TIP3    H260701   4.166   6.340   4.086 -0.2035  0.1111  0.9871
13096TIP3   OH260702   2.556   1.022   0.954  0.7579  0.3131  0.7861
13096TIP3    H160703   2.634   1.041   1.005  0.2382 -1.7143  2.4365
13096TIP3    H260704   2.497   0.978   1.015 -2.2093  2.7651 -0.0346
13097TIP3   OH260705   4.483   1.913  15.818  0.2842 -0.3131  0.2129
13097TIP3    H160706   4.510   1.969  15.746  2.0402  0.3637  1.3305
13097TIP3    H260707   4.408   1.958  15.857  1.2523  0.9750  0.6807
13098TIP3   OH260708   5.344   3.342  13.947 -0.4405 -0.1451  0.0419
13098TIP3    H160709   5.400   3.311  14.018  1.8227  2.1100 -0.6084
13098TIP3    H260710   5.383   3.307  13.867  0.0659  1.3333 -0.4091
13099TIP3   OH260711   4.106   1.559  16.157  0.0668  0.1732 -0.4945
13099TIP3    H160712   4.061   1.573  16.240  1.0285 -0.0442  0.0757
13099TIP3    H260713   4.043   1.512  16.103 -0.0901 -0.8726  0.5735
13100TIP3   OH260714   6.542   5.628  13.684 -0.3829  0.1487  0.7954
13100TIP3    H160715   6.630   5.590  13.677 -0.5016  0.0096  0.0495
13100TIP3    H260716   6.512   5.600  13.771 -0.2179 -0.9446  0.5193
13101TIP3   OH260717   0.521   1.848   5.681 -0.2946  0.0517 -0.1432
13101TIP3    H160718   0.466   1.778   5.646  1.5409 -1.8912  0.6527
13101TIP3    H260719   0.574   1.806   5.748  1.2956  2.1025 -0.0193
13102TIP3   OH260720   1.630   3.036  11.120  0.0427 -0.5246 -0.0458
13102TIP3    H160721   1.591   3.123  11.115  1.4955  0.1577  0.0588
13102TIP3    H260722   1.611   2.997  11.034  0.2355  0.2736 -0.4669
13103TIP3   OH260723   1.257   4.825   5.286  0.0210 -0.3353  0.1257
13103TIP3    H160724   1.247   4.747   5.341  0.1188 -0.3561  0.1127
13103TIP3    H260725   1.246   4.792   5.196  0.5427 -0.4141  0.0901
13104TIP3   OH260726   5.176   3.230   3.151  0.1914  0.0535 -0.4327
13104TIP3    H160727   5.174   3.217   3.245 -1.6951  0.4849 -0.3771
13104TIP3    H260728   5.243   3.170   3.120  0.5464 -0.4026  1.1314
13105TIP3   OH260729   3.649   2.969   3.033  0.2388 -0.3577  0.2867
13105TIP3    H160730   3.555   2.966   3.018  0.2268 -1.4983  0.4561
13105TIP3    H260731   3.687   2.942   2.949  0.3302 -1.7644  0.7439
13106TIP3   OH260732   0.034   5.947   1.694  0.0102  0.0393 -0.1080
13106TIP3    H160733   0.075   6.024   1.656 -0.3604  1.2434  1.8183
13106TIP3    H260734  -0.038   5.981   1.747  0.1600 -1.5649  1.2301
13107TIP3   OH260735   1.363   1.051   2.326 -0.1102  0.1200  0.5387
13107TIP3    H160736   1.277   1.065   2.365  0.1431 -0.0325  1.1581
13107TIP3    H260737   1.361   0.959   2.297  0.2642 -0.2528  1.6439
13108TIP3   OH260738   4.673   0.355  15.572  0.7400 -0.4889 -0.4588
13108TIP3    H160739   4.604   0.317  15.627 -0.3555 -0.0445 -1.4994
13108TIP3    H260740   4.720   0.415  15.631 -1.2464  0.9896 -0.2909
13109TIP3   OH260741   6.388   5.478   1.460 -0.5817  0.2552  0.2236
13109TIP3    H160742   6.335   5.454   1.536 -0.4711 -0.1476  0.1795
13109TIP3    H260743   6.326   5.481   1.388 -0.5586 -0.1674  0.1808
13110TIP3   OH260744   3.033   0.533   2.975  0.1391  0.3076  0.6232
13110TIP3    H160745   3.006   0.441   2.972  0.3653  0.2351  0.7656
13110TIP3    H260746   3.045   0.557   2.884 -0.5786  0.3954  0.5422
13111TIP3   OH260747   6.618   3.702  13.678  0.6245  0.8125  0.6105
13111TIP3    H160748   6.670   3.776  13.649 -1.2049  1.8913 -0.0614
13111TIP3    H260749   6.669   3.664  13.750  2.2368  1.8754  0.0859
13112TIP3   OH260750   3.959   5.397  14.507 -0.3379 -0.1418 -0.4174
13112TIP3    H160751   4.012   5.476  14.522 -2.6858  1.4169  0.1812
13112TIP3    H260752   3.954   5.389  14.412  2.3633 -1.3909 -0.5431
13113TIP3   OH260753   3.277   3.481   4.259  0.1057  0.3208 -0.7934
13113TIP3    H160754   3.294   3.422   4.186 -1.4978 -0.0993 -0.8816
13113TIP3    H260755   3.329   3.446   4.331 -1.6850 -1.9684 -0.5108
13114TIP3   OH260756   4.181   0.958  14.600 -0.0812  0.5616 -0.7960
13114TIP3    H160757   4.119   0.891  14.628  0.5290  0.3463  0.0704
13114TIP3    H260758   4.222   0.989  14.681 -1.0117  2.6734 -1.0566
13115TIP3   OH260759   2.367   6.529   2.422 -0.3285  0.1342 -0.0625
13115TIP3    H160760   2.406   6.598   2.474  1.3700  1.1590 -2.5021
13115TIP3    H260761   2.429   6.456   2.428 -1.0610 -0.4389  0.7982
13116TIP3   OH260762   5.535   3.328  16.196 -0.0865 -0.3943 -0.1195
13116TIP3    H160763   5.545   3.318  16.101  1.0932  0.3592 -0.0975
13116TIP3    H260764   5.505   3.418  16.207 -1.1492 -0.7689  0.1910
13117TIP3   OH260765   0.160   1.495   3.376 -0.5901  0.0929 -0.2135
13117TIP3    H160766   0.243   1.542   3.388 -1.0378  1.1186 -1.0848
13117TIP3    H260767   0.174   1.441   3.299 -0.4409 -0.4298  0.1695
13118TIP3   OH260768   3.492   6.756   2.828 -0.4830  0.4559  0.2058
13118TIP3    H160769   3.429   6.799   2.886  0.1744  2.4595 -0.4951
13118TIP3    H260770   3.514   6.822   2.763 -0.1193 -1.2815 -1.5109
13119TIP3   OH260771   6.238   5.035  15.134 -0.3024  0.2177 -0.1054
13119TIP3    H160772   6.168   5.098  15.148  0.2763  0.5386  1.4617
13119TIP3    H260773   6.237   4.979  15.212  0.3586 -0.5897 -0.6495
13120TIP3   OH260774   0.104   0.312   2.389  0.5269 -0.1240  0.0189
13120TIP3    H160775   0.124   0.405   2.402  0.2943 -0.1566  0.6389
13120TIP3    H260776   0.009   0.309   2.378  0.6923 -0.1128 -1.6657
13121TIP3   OH260777   0.892   6.670   5.366 -0.2001 -0.8079 -0.2641
13121TIP3    H160778   0.837   6.601   5.329 -1.1348 -0.9473  1.2997
13121TIP3    H260779   0.857   6.751   5.330 -0.2091 -1.0247 -0.7471
13122TIP3   OH260780   6.371   3.312   1.576 -0.7421 -0.3597  0.2766
13122TIP3    H160781   6.458   3.283   1.547 -0.6532 -0.0782  0.2572
13122TIP3    H260782   6.338   3.240   1.630  0.4438  0.4460  2.1886
13123TIP3   OH260783   6.643   3.802  15.732 -0.2479 -0.0244  0.2725
13123TIP3    H160784   6.662   3.736  15.799  0.1577  0.5869  0.7737
13123TIP3    H260785   6.661   3.886  15.775 -1.0530  0.4389 -0.2511
13124TIP3   OH260786   0.428   4.154   3.712 -0.0212  0.0240  0.9255
13124TIP3    H160787   0.490   4.094   3.670 -1.9782 -1.7634  0.3731
13124TIP3    H260788   0.441   4.237   3.668 -0.2178 -1.1328 -1.4621
13125TIP3   OH260789   5.589   2.498  15.820  0.4004  0.0148  0.3985
13125TIP3    H160790   5.520   2.466  15.761  1.4577  0.9251 -1.3977
13125TIP3    H260791   5.612   2.422  15.874  0.8920 -1.5073 -1.8502
13126TIP3   OH260792   1.124   5.583  11.393  0.3462 -0.3609  0.4243
13126TIP3    H160793   1.042   5.621  11.362  1.6658  1.4725 -1.1223
13126TIP3    H260794   1.176   5.659  11.421  1.3949 -1.4974  1.7220
13127TIP3   OH260795   3.041   0.885   4.863  0.1061  0.2083 -0.1049
13127TIP3    H160796   3.136   0.872   4.854 -0.0013 -0.4056 -0.3776
13127TIP3    H260797   3.018   0.945   4.792  0.2718  0.2707 -0.1069
13128TIP3   OH260798   1.299   2.212   2.587  0.0726 -0.0368  0.6830
13128TIP3    H160799   1.262   2.258   2.512  0.5797 -0.3675  0.2226
13128TIP3    H260800   1.250   2.130   2.591 -1.5778  0.9412  2.1534
13129TIP3   OH260801   6.054   6.419  16.963  0.3332 -0.1016  0.6388
13129TIP3    H160802   6.099   6.350  16.914 -0.8740 -0.9319  0.6510
13129TIP3    H260803   6.044   6.383  17.052 -1.6825 -0.6082  0.2603
13130TIP3   OH260804   6.484   1.601  11.770  0.0170 -0.2884 -0.4033
13130TIP3    H160805   6.528   1.541  11.831 -2.1166 -0.0080  1.5826
13130TIP3    H260806   6.393   1.572  11.771 -0.7989  2.0736 -0.5008
13131TIP3   OH260807   1.637   2.739  14.895 -0.0100  0.3469  0.0744
13131TIP3    H160808   1.543   2.724  14.890 -0.0432  0.0419  1.3336
13131TIP3    H260809   1.663   2.759  14.805 -1.9066  4.2201  0.1904
13132TIP3   OH260810   2.956   0.349   6.376 -0.4798 -0.3650  0.0164
13132TIP3    H160811   2.872   0.371   6.416 -0.7459  0.0524 -0.7529
13132TIP3    H260812   2.951   0.256   6.358 -0.3544 -0.5645  0.9384
13133TIP3   OH260813   2.248   3.713   2.094 -0.0048  0.2619 -0.1992
13133TIP3    H160814   2.309   3.773   2.051  0.1201 -0.3129 -0.8388
13133TIP3    H260815   2.303   3.651   2.141 -0.1061 -0.0862 -0.5410
13134TIP3   OH260816   4.247   4.574   1.918 -0.4444 -0.2557  0.0296
13134TIP3    H160817   4.230   4.632   1.992  0.0681 -0.0777  0.0089
13134TIP3    H260818   4.165   4.525   1.907 -0.3247 -0.7437  1.1249
13135TIP3   OH260819   3.852   6.155  14.675 -0.3458  0.0507  0.1542
13135TIP3    H160820   3.884   6.245  14.687 -1.8500  1.1090 -2.8160
13135TIP3    H260821   3.924   6.110  14.631 -0.7472  0.7817 -1.3038
13136TIP3   OH260822   6.259   4.193  12.599 -0.3679  0.6666 -0.5984
13136TIP3    H160823   6.217   4.108  12.611 -0.8059  0.8654 -0.7312
13136TIP3    H260824   6.195   4.257  12.630 -0.0729  0.9551 -0.5776
13137TIP3   OH260825   3.859   2.561   0.924  0.0659  1.0996 -0.6757
13137TIP3    H160826   3.836   2.617   0.851 -0.3372  0.5905 -0.9455
13137TIP3    H260827   3.946   2.590   0.950  0.1619  1.3643 -1.2803
13138TIP3   OH260828   3.643   5.663   2.719 -0.4831  0.0051  0.1318
13138TIP3    H160829   3.677   5.687   2.805  3.8518  0.3310 -1.4190
13138TIP3    H260830   3.684   5.725   2.659 -1.2752 -1.8006 -2.4350
13139TIP3   OH260831   2.835   4.775  15.086  0.0027 -0.8272  0.4635
13139TIP3    H160832   2.755   4.792  15.136  0.5507 -1.7166  1.7113
13139TIP3    H260833   2.854   4.858  15.043 -1.2116 -0.4068  0.6916
13140TIP3   OH260834   5.528   3.376  13.312 -0.5430 -0.2554 -0.2253
13140TIP3    H160835   5.596   3.330  13.261  0.7414  1.3209 -0.0183
13140TIP3    H260836   5.556   3.467  13.312 -1.8615  0.1874  1.2093
13141TIP3   OH260837   0.390   5.727  15.145 -0.2483 -0.0571  0.2338
13141TIP3    H160838   0.421   5.671  15.216 -3.2878 -1.8221  0.3462
13141TIP3    H260839   0.407   5.677  15.065 -0.6537  0.0136  0.1015
13142TIP3   OH260840   2.326   3.657   5.654 -0.3674  0.6364  0.4927
13142TIP3    H160841   2.251   3.597   5.649 -0.5945  0.2472  4.7203
13142TIP3    H260842   2.401   3.603   5.630 -0.8351 -0.7710  1.9816
13143TIP3   OH260843   6.245   1.170  14.554 -0.5470 -0.4734 -0.3179
13143TIP3    H160844   6.163   1.191  14.598  0.2688  1.1756  0.4763
13143TIP3    H260845   6.303   1.243  14.575  1.1886 -1.6900 -0.7219
13144TIP3   OH260846   0.626   4.334   1.825  0.0260  0.4829  0.4339
13144TIP3    H160847   0.676   4.413   1.805 -0.4659  1.3364  2.3052
13144TIP3    H260848   0.535   4.358   1.806  0.2536 -1.3613 -3.8489
13145TIP3   OH260849   1.837   0.225   5.535 -0.3814 -0.1294 -0.2326
13145TIP3    H160850   1.895   0.195   5.605 -1.0809  0.8730  0.8129
13145TIP3    H260851   1.893   0.280   5.480  0.0211 -0.3943 -0.0932
13146TIP3   OH260852   4.224   0.886  13.345  0.2865 -0.7640  0.5240
13146TIP3    H160853   4.267   0.968  13.367 -3.5595  0.9300  2.7270
13146TIP3    H260854   4.219   0.838  13.428 -0.4655 -1.7093 -0.0415
13147TIP3   OH260855   4.235   5.176  11.271  0.1915 -0.2869  0.2636
13147TIP3    H160856   4.215   5.091  11.310 -0.2564  0.2337  1.1998
13147TIP3    H260857   4.296   5.217  11.332 -0.7379  0.6579  0.5828
13148TIP3   OH260858   5.665   3.583  13.609  0.3367 -0.1190 -0.1088
13148TIP3    H160859   5.735   3.645  13.627 -1.1327  1.6572 -0.2788
13148TIP3    H260860   5.649   3.590  13.515 -0.5585  0.0511  0.0467
13149TIP3   OH260861   1.153   1.837  13.028 -0.0983 -0.2463 -0.1223
13149TIP3    H160862   1.232   1.799  13.066  1.3690  2.3053 -0.4329
13149TIP3    H260863   1.117   1.891  13.098  0.3858  1.2996 -1.0312
13150TIP3   OH260864   6.018   6.301   0.303 -0.4377 -0.1285  0.1398
13150TIP3    H160865   6.062   6.381   0.332 -2.4426  1.3579 -0.6493
13150TIP3    H260866   5.926   6.314   0.329 -0.9523 -1.8157 -0.7206
13151TIP3   OH260867   5.616   5.761   1.537  0.2134  0.1778 -0.5621
13151TIP3    H160868   5.705   5.771   1.571 -0.1330  0.6120  0.2728
13151TIP3    H260869   5.589   5.850   1.515  0.7050 -0.1810 -2.7822
13152TIP3   OH260870   4.571   1.699  14.836  0.7448 -0.3274  0.3295
13152TIP3    H160871   4.537   1.611  14.820  2.2616 -1.5751  3.0555
13152TIP3    H260872   4.540   1.720  14.925 -0.4127  2.3833 -0.6199
13153TIP3   OH260873   4.033   3.293   2.423 -0.2932  0.1521  0.0572
13153TIP3    H160874   4.042   3.385   2.399 -1.6142  0.3586  0.2805
13153TIP3    H260875   4.121   3.266   2.449 -0.0950  1.6875  1.1147
13154TIP3   OH260876   5.466   4.204   4.231 -0.1603  0.1982  0.2348
13154TIP3    H160877   5.537   4.206   4.167 -1.8158  1.7658 -1.7289
13154TIP3    H260878   5.476   4.284   4.282  0.3846 -0.3869  1.0680
13155TIP3   OH260879   3.726   1.175  13.211 -0.1379  0.8053  0.2598
13155TIP3    H160880   3.689   1.105  13.265 -0.2541  0.9121  0.3180
13155TIP3    H260881   3.714   1.254  13.263  0.5793  0.7756  0.4776
13156TIP3   OH260882   0.941   4.288   3.420 -0.2963  0.2029  0.2207
13156TIP3    H160883   0.883   4.298   3.495  0.0699 -1.1621  0.7144
13156TIP3    H260884   0.946   4.194   3.405  1.6099  0.2813  0.0582
13157TIP3   OH260885   1.642   3.709  12.300  0.3401  0.0534  0.1085
13157TIP3    H160886   1.600   3.633  12.260  0.6331 -0.4780  0.7834
13157TIP3    H260887   1.639   3.691  12.394  3.2003 -0.6570  0.1635
13158TIP3   OH260888   0.144   1.602  15.704 -0.4620  0.8491 -0.5878
13158TIP3    H160889   0.068   1.592  15.647 -0.4508  0.5801 -0.5530
13158TIP3    H260890   0.109   1.600  15.793 -0.3966  0.5868 -0.5686
13159TIP3   OH260891   3.460   5.492  17.109  0.0099 -0.1845 -0.2140
13159TIP3    H160892   3.476   5.563  17.172 -0.3787  0.4808 -0.8551
13159TIP3    H260893   3.526   5.504  17.042 -0.0388 -0.4522 -0.3095
13160TIP3   OH260894   3.690   5.808   4.135  0.0293 -0.1408  0.1943
13160TIP3    H160895   3.679   5.743   4.065  1.4038 -0.3893  0.1739
13160TIP3    H260896   3.651   5.888   4.100 -0.2704 -0.5459 -0.4135
13161TIP3   OH260897   2.779   0.392   5.916  1.1422 -0.2591  0.3831
13161TIP3    H160898   2.796   0.298   5.911  2.5029 -0.0924  1.3426
13161TIP3    H260899   2.734   0.413   5.834  1.4961 -1.6057 -0.1755
13162TIP3   OH260900   3.677   0.417   4.305  0.5841  0.2576  0.0211
13162TIP3    H160901   3.702   0.400   4.214  0.0046  0.3366 -0.1549
13162TIP3    H260902   3.584   0.438   4.301  0.9958  2.3923  0.3474
13163TIP3   OH260903   0.921   1.791   4.105  0.1640  0.7321 -0.6542
13163TIP3    H160904   0.861   1.855   4.145  0.2129  0.8291 -0.7360
13163TIP3    H260905   0.983   1.771   4.175  0.5047  1.2232 -0.8057
13164TIP3   OH260906   2.519   6.634   4.094 -0.2679  0.4071  0.0121
13164TIP3    H160907   2.565   6.587   4.164 -1.0601  0.2338  0.4301
13164TIP3    H260908   2.473   6.705   4.139 -2.4208 -0.8906 -0.0024
13165TIP3   OH260909   5.931   1.462   5.412  0.1153  0.4069  0.0508
13165TIP3    H160910   6.000   1.489   5.473 -0.4922  1.5577  0.2651
13165TIP3    H260911   5.974   1.455   5.328  1.2815 -2.5711  0.7793
13166TIP3   OH260912   1.148   0.141  12.374  0.0974  0.0277 -0.2152
13166TIP3    H160913   1.222   0.109  12.322 -1.1903  0.3622 -2.3587
13166TIP3    H260914   1.071   0.105  12.331 -1.1613  2.2487  0.0557
13167TIP3   OH260915   2.499   5.796   1.828  0.3141 -0.2664 -0.2693
13167TIP3    H160916   2.405   5.812   1.822  0.0818 -0.5419  1.8570
13167TIP3    H260917   2.507   5.712   1.874  1.5443  0.7021  1.4247
13168TIP3   OH260918   3.698   2.681  15.476  0.0741  0.4583 -0.3422
13168TIP3    H160919   3.701   2.773  15.448 -0.6864  0.2474 -1.1782
13168TIP3    H260920   3.636   2.680  15.548  1.0996  0.8065  0.5694
13169TIP3   OH260921   6.094   4.979   4.047 -0.1728  0.0192 -0.1833
13169TIP3    H160922   6.106   4.914   3.977 -0.4846 -1.8459  1.4227
13169TIP3    H260923   6.005   4.964   4.078  0.4454 -0.1701  1.5620
13170TIP3   OH260924   4.281   0.412  14.061 -0.2389  0.0240 -0.1299
13170TIP3    H160925   4.297   0.326  14.099  1.2469  0.6722  0.7895
13170TIP3    H260926   4.186   0.424  14.067 -0.2824 -0.8509  1.2657
13171TIP3   OH260927   4.415   4.568  16.582  0.2910 -0.1500 -0.0504
13171TIP3    H160928   4.389   4.635  16.645 -0.5569 -0.2938 -0.2305
13171TIP3    H260929   4.360   4.492  16.604  1.4552 -0.8975  0.3521
13172TIP3   OH260930   4.830   2.201   4.342 -0.1837 -0.8449  0.4605
13172TIP3    H160931   4.906   2.147   4.320 -1.9534 -2.7747 -1.3545
13172TIP3    H260932   4.757   2.139   4.349 -2.1219  1.1449 -0.6153
13173TIP3   OH260933   4.462   4.624   1.281 -0.3634  0.2996  0.3947
13173TIP3    H160934   4.467   4.606   1.374 -1.0454 -1.1499  0.1920
13173TIP3    H260935   4.368   4.615   1.260 -0.2961  1.1469 -0.3289
13174TIP3   OH260936   2.586   5.535  17.090  0.1300  0.0853 -0.1274
13174TIP3    H160937   2.577   5.543  17.185  3.4868 -1.5043  0.4795
13174TIP3    H260938   2.600   5.624  17.060  1.1072  0.4387  1.2395
13175TIP3   OH260939   3.846   5.789  12.748  0.1447  0.2195 -0.2476
13175TIP3    H160940   3.869   5.699  12.770  1.0425  0.4318 -0.2382
13175TIP3    H260941   3.778   5.813  12.810  2.5681  0.7803  2.4187
13176TIP3   OH260942   4.103   0.757   2.364 -0.0023  1.1015  0.4631
13176TIP3    H160943   4.087   0.785   2.454  0.4027  0.3108  0.7958
13176TIP3    H260944   4.168   0.687   2.372 -2.4393 -1.4074 -0.0683
13177TIP3   OH260945   3.185   4.105   2.854  0.4225 -0.3600  0.0750
13177TIP3    H160946   3.219   4.029   2.806  0.0566 -0.4538 -0.0365
13177TIP3    H260947   3.254   4.127   2.916 -1.0005 -3.2927  3.0138
13178TIP3   OH260948   1.986   0.725  16.098  0.3640  0.0940  0.7549
13178TIP3    H160949   1.950   0.718  16.009 -0.1540 -0.0145  0.9639
13178TIP3    H260950   2.039   0.646  16.109 -2.7428 -2.0690  1.9001
13179TIP3   OH260951   3.000   0.130  16.347 -0.3203 -0.4558 -0.1690
13179TIP3    H160952   3.075   0.152  16.402  0.3707 -1.5528 -0.6317
13179TIP3    H260953   2.930   0.107  16.409  0.0598 -0.4725  0.2555
13180TIP3   OH260954   4.069   1.870  11.680  0.1908 -0.5980 -0.0693
13180TIP3    H160955   4.148   1.910  11.644  1.4615 -1.0737  2.0102
13180TIP3    H260956   4.031   1.821  11.607  1.6301 -0.0862 -1.2080
13181TIP3   OH260957   5.317   5.268  11.191  0.1391 -0.2731 -0.0322
13181TIP3    H160958   5.233   5.278  11.236 -0.4301  0.9165 -1.3017
13181TIP3    H260959   5.378   5.241  11.260 -1.5689 -2.7769  0.6580
13182TIP3   OH260960   2.855   2.964   4.217  0.2691 -0.3373  0.4719
13182TIP3    H160961   2.861   3.050   4.258 -0.9957 -0.3247  0.6507
13182TIP3    H260962   2.876   2.980   4.124  1.0765 -0.0285  0.6961
13183TIP3   OH260963   5.837   5.962   5.214  0.2062  0.0055  0.8400
13183TIP3    H160964   5.814   5.914   5.294 -1.3578  0.0629  0.4643
13183TIP3    H260965   5.789   6.045   5.222  2.9211  1.6485  1.5297
13184TIP3   OH260966   0.222   1.535  11.373 -0.0861 -0.2046 -0.0773
13184TIP3    H160967   0.258   1.555  11.286 -2.1271  1.2888 -0.6530
13184TIP3    H260968   0.184   1.447  11.363 -1.1301  0.3255 -1.0117
13185TIP3   OH260969   0.378   1.344   6.435  0.0411 -0.0287 -0.2422
13185TIP3    H160970   0.459   1.354   6.385  0.3176 -2.5288 -0.4022
13185TIP3    H260971   0.354   1.434   6.460  1.8897  0.9291 -1.6759
13186TIP3   OH260972   3.606   1.495  15.042 -0.4447  0.4664 -0.3247
13186TIP3    H160973   3.547   1.569  15.052 -0.6832  0.5872 -2.1942
13186TIP3    H260974   3.549   1.418  15.038 -0.2869  0.3082  0.3067
13187TIP3   OH260975   1.856   6.624   5.963 -0.6419  0.1362 -0.1261
13187TIP3    H160976   1.768   6.650   5.989 -0.8140 -0.0439 -0.5126
13187TIP3    H260977   1.907   6.624   6.044 -1.0755 -0.0791  0.1469
13188TIP3   OH260978   3.318   0.851  14.850  0.7994 -0.1626  0.1845
13188TIP3    H160979   3.269   0.803  14.783 -0.2150 -0.3201  1.0136
13188TIP3    H260980   3.409   0.849  14.819  0.4886 -0.9871 -0.7393
13189TIP3   OH260981   5.591   5.652   5.952 -0.2128  0.2324  0.0438
13189TIP3    H160982   5.685   5.653   5.974 -0.2764 -0.6335  0.4076
13189TIP3    H260983   5.565   5.560   5.963 -1.0507  0.4187 -0.3030
13190TIP3   OH260984   0.300   0.986  14.945 -0.0073 -0.5065 -0.5294
13190TIP3    H160985   0.374   0.955  14.893  2.2827 -0.1208  2.2715
13190TIP3    H260986   0.284   1.075  14.913  1.1257 -0.3865 -0.7910
13191TIP3   OH260987   3.657   1.059  15.468 -0.2024  0.3091 -0.1406
13191TIP3    H160988   3.658   1.088  15.377 -0.0779  1.0318  0.0853
13191TIP3    H260989   3.664   1.140  15.519  1.8686 -0.2180  0.4865
13192TIP3   OH260990   2.044   4.138   4.984 -0.6659 -0.1035  0.1087
13192TIP3    H160991   2.125   4.087   4.985 -0.6860 -0.2192 -1.2473
13192TIP3    H260992   1.997   4.110   5.062  0.4959 -0.2021  0.7961
13193TIP3   OH260993   2.613   3.140   2.884  0.5092 -0.0422 -0.1979
13193TIP3    H160994   2.665   3.220   2.886  0.0088  0.2708  0.3850
13193TIP3    H260995   2.607   3.118   2.791 -1.5535  2.0583 -0.6441
13194TIP3   OH260996   3.974   3.354  14.685  0.0625 -0.1943  0.1434
13194TIP3    H160997   3.962   3.443  14.716 -0.0363 -0.3702  0.6177
13194TIP3    H260998   4.031   3.313  14.749 -0.2881 -0.6143  0.1978
13195TIP3   OH260999   3.407   1.011   5.444  0.4730 -0.4387 -0.0607
13195TIP3    H161000   3.461   1.079   5.484 -0.5016 -0.9678  2.3324
13195TIP3    H261001   3.321   1.051   5.434 -0.3765 -1.4547  2.2478
13196TIP3   OH261002   0.527   4.565  15.163  0.3398  0.0739  0.3530
13196TIP3    H161003   0.521   4.562  15.068 -2.0470 -0.5336  0.4561
13196TIP3    H261004   0.479   4.644  15.187 -0.3309 -0.5347  1.0830
13197TIP3   OH261005   4.775   2.144  14.778  0.3271 -0.0827  0.4230
13197TIP3    H161006   4.776   2.061  14.825 -0.9200  0.0430  0.7051
13197TIP3    H261007   4.802   2.209  14.843 -2.8976  0.3283  1.5770
13198TIP3   OH261008   2.705   2.618   4.279 -0.0644 -0.2617  0.3288
13198TIP3    H161009   2.625   2.589   4.323 -0.4635 -2.2681 -1.5367
13198TIP3    H261010   2.763   2.542   4.282 -0.1420 -0.5532 -2.5045
13199TIP3   OH261011   3.244   1.855  13.829  0.4515  0.3560 -0.1671
13199TIP3    H161012   3.189   1.932  13.841  2.3036  1.6764  0.1967
13199TIP3    H261013   3.316   1.866  13.891  1.6461 -0.8223 -1.2634
13200TIP3   OH261014   4.287   1.694  12.724  0.2157 -0.1749  0.1274
13200TIP3    H161015   4.247   1.624  12.774  1.3477  0.4724  2.0351
13200TIP3    H261016   4.306   1.655  12.639  0.5290 -2.0852  1.0330
13201TIP3   OH261017   3.494   0.623  15.155 -0.3066  0.0375 -0.4391
13201TIP3    H161018   3.492   0.604  15.062  0.6406  1.5943 -0.8220
13201TIP3    H261019   3.576   0.670  15.168 -0.2368 -0.4793  1.2583
13202TIP3   OH261020   4.838   4.142   0.342 -0.0877 -0.2326 -0.1243
13202TIP3    H161021   4.756   4.105   0.376 -0.1496 -0.5307 -0.5860
13202TIP3    H261022   4.820   4.235   0.332 -0.0740 -0.1407  0.6335
13203TIP3   OH261023   1.697   4.952  15.280  0.2103 -0.2092 -0.4288
13203TIP3    H161024   1.641   5.030  15.282  0.0102 -0.3585  0.7523
13203TIP3    H261025   1.775   4.978  15.329  0.6700 -0.3825 -1.0564
13204TIP3   OH261026   3.020   5.406   4.656  0.0237  0.7381  0.0943
13204TIP3    H161027   3.079   5.479   4.673  1.4768 -0.2175 -0.6382
13204TIP3    H261028   2.934   5.446   4.649  0.7039  2.3117  0.2405
13205TIP3   OH261029   0.551   5.387   1.296  0.0700  0.3626 -0.3353
13205TIP3    H161030   0.539   5.293   1.279 -0.8259  0.5201 -0.5914
13205TIP3    H261031   0.520   5.400   1.385 -0.3838  0.5209 -0.5134
13206TIP3   OH261032   5.813   1.742   0.445  0.4349  0.0923 -0.5093
13206TIP3    H161033   5.845   1.746   0.354 -0.4538 -2.0859 -0.9815
13206TIP3    H261034   5.842   1.656   0.476 -0.0206  0.4607  0.9977
13207TIP3   OH261035   3.833   4.860  16.079 -0.9731 -0.2870  0.6003
13207TIP3    H161036   3.875   4.803  16.143 -0.3637 -0.4428  0.0746
13207TIP3    H261037   3.906   4.901  16.032 -1.3900 -0.6334 -0.3937
13208TIP3   OH261038   1.843   5.422   0.919 -0.3926  0.2761 -0.4962
13208TIP3    H161039   1.878   5.373   0.845  1.1401  0.4208  0.0850
13208TIP3    H261040   1.853   5.513   0.894  0.6922  0.3410  0.0885
13209TIP3   OH261041   1.960   2.827   2.512 -0.1348 -0.1217 -0.0828
13209TIP3    H161042   1.936   2.906   2.560 -2.4520  1.1810 -3.0449
13209TIP3    H261043   2.004   2.859   2.433  0.8353 -1.9438 -0.3386
13210TIP3   OH261044   5.146   0.085  15.282  0.6836 -0.0947 -0.3828
13210TIP3    H161045   5.200   0.164  15.282  0.3728  0.1644  1.5814
13210TIP3    H261046   5.067   0.110  15.330  0.3732 -1.4776 -0.1261
13211TIP3   OH261047   2.086   3.142   4.583  0.8947  0.1907 -0.0785
13211TIP3    H161048   2.055   3.174   4.668 -0.6001 -0.4641 -0.3415
13211TIP3    H261049   2.139   3.065   4.605 -0.5590 -0.7644  0.2343
13212TIP3   OH261050   6.415   3.973  14.770  0.2401  0.2448  0.2133
13212TIP3    H161051   6.340   3.973  14.829  0.3830  0.0765  0.3943
13212TIP3    H261052   6.403   3.896  14.716 -0.0828  0.5962 -0.2242
13213TIP3   OH261053   3.192   4.481  10.494  0.0034 -0.1462  0.4153
13213TIP3    H161054   3.258   4.550  10.484  0.2892 -0.6278 -1.2018
13213TIP3    H261055   3.120   4.509  10.438 -1.0366  0.1566  1.8430
13214TIP3   OH261056   3.505   3.756   0.109 -0.1881 -0.4883  0.0532
13214TIP3    H161057   3.519   3.782   0.018 -1.3900 -0.2205 -0.0771
13214TIP3    H261058   3.546   3.670   0.117  0.2279 -0.3550 -0.6432
13215TIP3   OH261059   5.254   3.295  13.191 -0.2477  0.4897 -0.0983
13215TIP3    H161060   5.223   3.383  13.170  0.3541  0.6184 -0.4670
13215TIP3    H261061   5.341   3.308  13.230 -0.5609  0.1207  0.7566
13216TIP3   OH261062   2.509   3.840  14.408 -0.2028 -0.3871 -0.6554
13216TIP3    H161063   2.603   3.852  14.419 -0.6967  1.3970  3.1332
13216TIP3    H261064   2.494   3.748  14.430  0.3901  0.1845  2.7268
13217TIP3   OH261065   2.978   6.638   4.221  0.4919 -0.2318 -0.6144
13217TIP3    H161066   3.000   6.633   4.314 -1.9346  1.6852  0.1524
13217TIP3    H261067   3.011   6.723   4.193 -1.0683  0.3570 -0.7724
13218TIP3   OH261068   6.071   0.881  11.972 -0.2869 -0.1962  0.1321
13218TIP3    H161069   6.039   0.971  11.970  1.1133  0.3526  0.9458
13218TIP3    H261070   6.018   0.838  12.040 -0.5927  0.1524  0.1187
13219TIP3   OH261071   6.100   1.313   2.845 -0.1105 -0.3112  0.3833
13219TIP3    H161072   6.101   1.373   2.770  0.7918 -0.5160  0.2290
13219TIP3    H261073   6.140   1.233   2.812  1.8335  0.1456  1.5265
13220TIP3   OH261074   4.503   5.905   4.518 -0.8608 -0.2489 -0.5606
13220TIP3    H161075   4.563   5.878   4.587 -2.0519  0.8620  0.9881
13220TIP3    H261076   4.436   5.956   4.563 -1.0907  1.4855 -2.6870
13221TIP3   OH261077   2.480   4.266  13.494  0.6196  0.6738 -0.4934
13221TIP3    H161078   2.419   4.204  13.454  1.0895 -1.0876  1.3629
13221TIP3    H261079   2.434   4.350  13.493 -0.5564  0.0448 -1.9090
13222TIP3   OH261080   4.304   0.647  14.219  0.1851 -0.9018 -0.1474
13222TIP3    H161081   4.377   0.701  14.188  0.1454 -0.0418  1.1815
13222TIP3    H261082   4.291   0.582  14.150  2.2427 -1.1213 -0.3769
13223TIP3   OH261083   6.315   0.170   3.562  0.2295 -0.4379  0.4822
13223TIP3    H161084   6.277   0.161   3.475 -0.1162 -2.8256  0.8253
13223TIP3    H261085   6.263   0.239   3.604  1.3375  1.8066 -1.6097
13224TIP3   OH261086   3.463   5.574  15.675 -0.4093 -0.3564 -0.1504
13224TIP3    H161087   3.439   5.544  15.762 -1.4440 -1.6924 -0.8508
13224TIP3    H261088   3.428   5.663  15.670 -2.4507 -1.0847  0.0213
13225TIP3   OH261089   2.243   3.818   0.343  0.8045 -0.3889  0.1352
13225TIP3    H161090   2.196   3.797   0.424  1.1113  0.9156  0.6719
13225TIP3    H261091   2.321   3.762   0.345  0.1355 -1.3543  0.0525
13226TIP3   OH261092   0.110   3.030  11.046  0.2372 -0.2712 -0.0971
13226TIP3    H161093   0.117   3.072  10.961 -0.5026 -1.0552 -0.5621
13226TIP3    H261094   0.020   2.996  11.049  0.1494  0.0179  1.1194
13227TIP3   OH261095   1.323   6.634   6.085  0.4330  0.4098  0.0495
13227TIP3    H161096   1.345   6.656   6.175  1.1896 -2.4831  0.6806
13227TIP3    H261097   1.263   6.560   6.092 -0.6491  1.0152 -1.8427
13228TIP3   OH261098   6.053   4.278   4.480  0.4686  0.6782 -0.5019
13228TIP3    H161099   6.083   4.196   4.442 -0.6465  0.3660 -0.7399
13228TIP3    H261100   6.063   4.266   4.574  0.6249  0.4016 -0.5529
13229TIP3   OH261101   5.920   3.417  13.384  0.1281  0.1692 -0.1846
13229TIP3    H161102   5.973   3.495  13.399  1.7861 -0.5375 -2.0789
13229TIP3    H261103   5.863   3.440  13.311  0.7641 -0.4433 -0.8839
13230TIP3   OH261104   2.439   3.934   3.473 -0.1800 -0.0010  0.1389
13230TIP3    H161105   2.445   3.885   3.392 -3.2491  1.2093 -0.9819
13230TIP3    H261106   2.415   3.869   3.539  0.6701 -0.7413 -0.2715
13231TIP3   OH261107   5.116   2.739   4.167 -0.3767 -0.2895  0.0940
13231TIP3    H161108   5.133   2.832   4.182 -0.8488 -0.1581 -0.1883
13231TIP3    H261109   5.176   2.714   4.097 -0.0892 -0.2528  0.3262
13232TIP3   OH261110   2.469   5.505   3.095 -0.7154  0.2261  0.0089
13232TIP3    H161111   2.499   5.587   3.056  2.0258 -0.3908  0.6507
13232TIP3    H261112   2.439   5.530   3.182 -0.1844  0.5970  0.0920
13233TIP3   OH261113   2.015   2.255  12.539  0.1268 -0.2160  0.3554
13233TIP3    H161114   1.931   2.217  12.512  0.6940 -0.7091 -0.7622
13233TIP3    H261115   2.005   2.269  12.633 -1.6985  1.0197  0.0333
13234TIP3   OH261116   2.932   6.243   0.830 -0.7684  0.0055  0.5519
13234TIP3    H161117   2.934   6.190   0.909 -0.4412 -0.0024  0.5387
13234TIP3    H261118   2.839   6.250   0.808 -0.9648  1.0157  1.6184
13235TIP3   OH261119   2.937   1.547   2.808  0.3301  0.2159 -0.7346
13235TIP3    H161120   2.946   1.560   2.713  0.6966  1.8823 -0.5106
13235TIP3    H261121   3.013   1.493   2.832 -0.9734 -2.1772 -1.6725
13236TIP3   OH261122   1.305   6.175   1.645  0.3448  0.0934  0.4173
13236TIP3    H161123   1.261   6.166   1.560 -0.5700  2.1232  0.6155
13236TIP3    H261124   1.310   6.086   1.679 -0.5937 -0.5898 -1.1242
13237TIP3   OH261125   2.102   4.784   5.757 -0.2120 -0.0018 -0.3878
13237TIP3    H161126   2.120   4.700   5.798  2.4789  1.6419  2.2358
13237TIP3    H261127   2.032   4.822   5.810 -0.1318  0.1588 -0.3973
13238TIP3   OH261128   0.124   3.809   5.315  0.5622  0.7700 -0.3705
13238TIP3    H161129   0.207   3.770   5.343  0.7051  1.6739  0.5250
13238TIP3    H261130   0.141   3.903   5.315 -0.2601  0.9294 -0.8695
13239TIP3   OH261131   1.722   2.937  12.508  0.3588 -0.5000 -0.5148
13239TIP3    H161132   1.640   2.986  12.507  1.3336  1.2120 -1.2363
13239TIP3    H261133   1.780   2.987  12.565  0.5395 -2.3942  1.0473
13240TIP3   OH261134   1.824   0.887  14.316 -0.2504  0.6167  0.4039
13240TIP3    H161135   1.882   0.936  14.374  1.4722 -1.2231  0.3359
13240TIP3    H261136   1.755   0.855  14.373  1.1580 -0.7620  1.4216
13241TIP3   OH261137   1.136   4.704   1.922  0.3261  0.5025  0.2030
13241TIP3    H161138   1.125   4.609   1.932  1.9288  0.3125  0.5734
13241TIP3    H261139   1.083   4.727   1.846  0.9714 -0.9466 -0.7411
13242TIP3   OH261140   4.453   3.613  16.384  0.0376  0.0545 -0.1245
13242TIP3    H161141   4.424   3.562  16.308  0.1707 -0.3951  0.1212
13242TIP3    H261142   4.455   3.703  16.353  0.5445 -0.1754 -0.7962
13243TIP3   OH261143   6.216   0.808   5.543 -0.4076  0.0921 -0.3146
13243TIP3    H161144   6.218   0.786   5.636 -0.6491  0.7084 -0.1599
13243TIP3    H261145   6.308   0.808   5.517 -0.3695 -0.6302 -0.2132
13244TIP3   OH261146   0.965   1.999  11.921  0.1189  0.2475  0.3390
13244TIP3    H161147   0.976   1.923  11.978  0.8915  0.0833 -0.0131
13244TIP3    H261148   0.921   2.064  11.976  0.6033 -0.0026  1.0436
13245TIP3   OH261149   0.493   5.151   2.740  0.2219  0.1143  0.0259
13245TIP3    H161150   0.544   5.232   2.734  2.0329 -0.9923 -0.4064
13245TIP3    H261151   0.407   5.178   2.773  1.4610  1.9272  2.0194
13246TIP3   OH261152   5.436   3.488   2.687  0.3515  0.1941 -0.1131
13246TIP3    H161153   5.400   3.405   2.718  0.0185 -0.8505 -2.9589
13246TIP3    H261154   5.376   3.515   2.617  1.7967  1.5429 -0.8911
13247TIP3   OH261155   1.482   3.226   0.503 -0.5344 -0.1313  0.1465
13247TIP3    H161156   1.571   3.193   0.514 -0.5037  0.2067  1.0279
13247TIP3    H261157   1.433   3.153   0.466  0.2395 -0.1266 -0.9182
13248TIP3   OH261158   0.744   6.172  16.328  0.1891  0.3614 -0.0657
13248TIP3    H161159   0.664   6.216  16.300  0.1463  1.2942  1.4171
13248TIP3    H261160   0.730   6.080  16.305 -0.3940  0.8377 -1.7518
13249TIP3   OH261161   5.648   0.053   2.881  0.0973 -1.4027 -0.5295
13249TIP3    H161162   5.625   0.025   2.970 -2.9451  0.6208 -0.5162
13249TIP3    H261163   5.598  -0.006   2.824  0.1265 -1.1875 -0.7820
13250TIP3   OH261164   2.947   0.169  12.897 -0.0206 -0.1910  0.1902
13250TIP3    H161165   2.872   0.198  12.950 -0.4819  0.6095 -0.8747
13250TIP3    H261166   2.976   0.248  12.851  1.1422 -0.6143  0.1520
13251TIP3   OH261167   4.312   5.497  16.531 -0.3907 -0.0238 -0.0604
13251TIP3    H161168   4.323   5.589  16.508 -0.5273 -0.2067 -0.8955
13251TIP3    H261169   4.382   5.479  16.594  1.6055 -0.1088 -2.1770
13252TIP3   OH261170   3.390   1.562   3.682 -0.1439 -0.1748  0.1873
13252TIP3    H161171   3.430   1.536   3.766 -0.3859  0.0420  0.3677
13252TIP3    H261172   3.367   1.654   3.694  1.8978  0.5505 -0.8925
13253TIP3   OH261173   4.798   1.557  15.167  0.0495  0.3086  0.5194
13253TIP3    H161174   4.814   1.635  15.220 -0.8727  1.9505 -1.4698
13253TIP3    H261175   4.850   1.571  15.088 -1.9514  0.1302 -0.9145
13254TIP3   OH261176   2.017   5.832  16.365 -0.0472  0.6084 -0.2095
13254TIP3    H161177   1.996   5.856  16.275  0.4144  2.1424  0.0763
13254TIP3    H261178   2.110   5.850  16.374 -0.1050  0.5260  0.5994
13255TIP3   OH261179   4.993   6.085  12.808 -0.2286 -0.6632  0.8667
13255TIP3    H161180   5.071   6.056  12.856  0.2131  1.0663  1.2841
13255TIP3    H261181   4.920   6.069  12.867  0.1447  0.0969  1.5573
13256TIP3   OH261182   1.769   5.784   2.680 -0.6686 -0.2444  0.7051
13256TIP3    H161183   1.766   5.856   2.617 -1.5582 -2.0557 -1.4740
13256TIP3    H261184   1.696   5.803   2.740 -0.9439  0.6300  0.1239
13257TIP3   OH261185   5.494   3.333  11.993  0.1985  0.8045  0.1376
13257TIP3    H161186   5.564   3.345  11.929 -0.7181  2.0528 -0.6692
13257TIP3    H261187   5.472   3.240  11.988  2.1807  0.2590  0.8464
13258TIP3   OH261188   5.296   4.392  13.141 -0.3902  0.2597  0.2642
13258TIP3    H161189   5.316   4.426  13.054 -1.8613  1.7574  0.4490
13258TIP3    H261190   5.211   4.349  13.131 -0.5007  0.3116  0.9379
13259TIP3   OH261191   2.319   1.983   5.923 -0.2417 -0.2080  0.5334
13259TIP3    H161192   2.226   1.987   5.949 -0.1139 -0.3125  1.0139
13259TIP3    H261193   2.324   1.906   5.866 -0.5558  0.1109  0.0691
13260TIP3   OH261194   4.722   4.511  16.153 -0.3922  1.1546 -0.3963
13260TIP3    H161195   4.640   4.503  16.202 -1.3594  0.3491 -2.0663
13260TIP3    H261196   4.755   4.597  16.177 -2.0456  1.7660 -0.1515
13261TIP3   OH261197   5.028   4.686   1.805 -0.0314 -0.0438 -0.4457
13261TIP3    H161198   5.025   4.739   1.884 -1.4326 -2.5561  1.3558
13261TIP3    H261199   4.937   4.681   1.775  0.0325 -1.3717 -0.5191
13262TIP3   OH261200   2.375   1.777   5.777  0.0028 -0.6175  0.0391
13262TIP3    H161201   2.355   1.825   5.697 -0.4063 -0.2718  0.3431
13262TIP3    H261202   2.304   1.713   5.784 -1.4078  1.0026  1.4388
13263TIP3   OH261203   3.255   6.774  15.314 -0.5713  0.5177 -0.1079
13263TIP3    H161204   3.188   6.795  15.380 -0.2554 -2.1870  1.2164
13263TIP3    H261205   3.274   6.682  15.328  1.8704  0.6463 -1.9330
13264TIP3   OH261206   0.923   6.140   2.497  0.1241  0.1855 -0.0326
13264TIP3    H161207   0.948   6.189   2.576  0.6468  0.7788 -0.5413
13264TIP3    H261208   0.869   6.202   2.447  0.9092  0.3143 -0.7507
13265TIP3   OH261209   2.214   2.302   4.847  0.3002  0.0390  0.2063
13265TIP3    H161210   2.187   2.269   4.933  0.4150 -0.5518  0.0166
13265TIP3    H261211   2.233   2.395   4.862  0.5441 -0.1141  0.8661
13266TIP3   OH261212   2.818   3.132   1.528 -0.1163  0.2471  0.0993
13266TIP3    H161213   2.860   3.170   1.605  0.9761 -0.1846 -0.2616
13266TIP3    H261214   2.746   3.080   1.564 -0.6287  1.3380  0.7021
13267TIP3   OH261215   3.769   2.150   2.260 -0.5627  0.2795  0.7171
13267TIP3    H161216   3.852   2.161   2.307 -0.0162  0.2673 -0.2123
13267TIP3    H261217   3.724   2.234   2.270  1.1400  1.6003 -1.7070
13268TIP3   OH261218   3.440   3.550  16.454  0.4067 -0.0569  0.0841
13268TIP3    H161219   3.375   3.492  16.494  1.0137 -1.2145 -0.5530
13268TIP3    H261220   3.459   3.509  16.370 -0.2514  1.8862 -1.0633
13269TIP3   OH261221   5.075   4.310   2.157 -0.2960 -0.4576  0.0272
13269TIP3    H161222   5.112   4.292   2.070 -0.4452 -3.1804  0.4428
13269TIP3    H261223   4.988   4.268   2.154 -0.6914  0.2625  1.1808
13270TIP3   OH261224   0.012   6.207   0.184 -0.4256  0.1037  0.1470
13270TIP3    H161225  -0.079   6.224   0.162 -0.7735 -0.2147  1.2635
13270TIP3    H261226   0.037   6.133   0.128 -0.4833  0.9073 -0.9775
13271TIP3   OH261227   2.167   5.922   5.682  0.2477  0.6331 -0.2025
13271TIP3    H161228   2.197   5.999   5.731  1.1384 -0.5746  1.2152
13271TIP3    H261229   2.160   5.853   5.748  0.5720 -0.8139 -1.6373
13272TIP3   OH261230   4.529   4.279  14.969 -0.8521  0.3112  0.1079
13272TIP3    H161231   4.501   4.234  14.890  2.0221 -1.1920 -0.1605
13272TIP3    H261232   4.519   4.372  14.948 -1.4035 -0.0721 -1.4802
13273TIP3   OH261233   1.425   2.411  16.526  0.1310  0.0901  0.0140
13273TIP3    H161234   1.485   2.352  16.571 -0.1898 -0.2730 -0.0257
13273TIP3    H261235   1.459   2.498  16.544  0.9066 -0.1268 -0.3572
13274TIP3   OH261236   4.427   1.391  11.387  0.3700 -0.3474 -0.0250
13274TIP3    H161237   4.382   1.461  11.339  1.1253 -1.0479 -1.8431
13274TIP3    H261238   4.460   1.333  11.319 -0.3290 -2.5749  1.4234
13275TIP3   OH261239   5.480   1.998  15.373 -0.0881  0.5661  0.0671
13275TIP3    H161240   5.571   1.971  15.365 -0.0010  1.0507 -0.7056
13275TIP3    H261241   5.484   2.094  15.381 -0.3441  0.4510  3.2299
13276TIP3   OH261242   6.526   6.353   5.041 -0.4289  0.3132  0.2171
13276TIP3    H161243   6.471   6.277   5.059  0.0269  0.2561  1.4627
13276TIP3    H261244   6.536   6.396   5.126  0.0015  1.3056 -0.3178
13277TIP3   OH261245   5.488   2.792   1.803  0.4155 -0.4418 -0.2298
13277TIP3    H161246   5.403   2.750   1.807  0.6841 -1.1378 -1.3802
13277TIP3    H261247   5.514   2.804   1.894 -0.7874 -0.4529  0.1247
13278TIP3   OH261248   3.808   5.185   3.727  0.1489  0.4045 -0.3149
13278TIP3    H161249   3.809   5.241   3.804  0.5953  0.5524 -0.4279
13278TIP3    H261250   3.727   5.135   3.735  0.0783  0.5870  0.1271
13279TIP3   OH261251   1.236   4.234  13.450  0.0792 -0.3736 -0.0221
13279TIP3    H161252   1.155   4.263  13.409  0.1556 -2.4069 -1.8009
13279TIP3    H261253   1.305   4.265  13.391  0.5539  0.3824  0.8928
13280TIP3   OH261254   5.630   6.618   1.475  0.9205 -0.2256 -0.3104
13280TIP3    H161255   5.686   6.681   1.429  0.6314  0.7464  0.6383
13280TIP3    H261256   5.690   6.552   1.507  1.4230  0.3387 -0.0617
13281TIP3   OH261257   5.512   5.482   2.476  0.2605 -0.7140 -0.3293
13281TIP3    H161258   5.531   5.505   2.385 -0.9911  0.7200 -0.2700
13281TIP3    H261259   5.476   5.562   2.514  2.1266 -0.8224  1.8768
13282TIP3   OH261260   0.404   5.896   4.989 -0.5548 -0.1494 -0.1264
13282TIP3    H161261   0.456   5.970   4.955  2.7636 -1.3579  1.8153
13282TIP3    H261262   0.417   5.827   4.923 -1.0137  0.0233 -0.3993
13283TIP3   OH261263   3.988   2.016  14.639 -0.6337 -0.3739 -0.0555
13283TIP3    H161264   4.022   2.066  14.565 -1.4459 -2.3206 -1.8400
13283TIP3    H261265   4.062   1.965  14.671 -0.4583 -0.0725  0.0236
13284TIP3   OH261266   3.286   6.595  14.494 -0.3575 -0.3152  0.0830
13284TIP3    H161267   3.249   6.644  14.568 -1.5678  1.3279 -1.5135
13284TIP3    H261268   3.327   6.518  14.534  0.0901  1.1006  2.5492
13285TIP3   OH261269   2.454   6.598   3.813  0.3314  0.0236  0.7314
13285TIP3    H161270   2.379   6.561   3.767  0.3104 -0.1329  0.8925
13285TIP3    H261271   2.423   6.615   3.902  0.3298  0.4640  0.6530
13286TIP3   OH261272   3.304   4.156   4.621  0.5108 -0.1891  0.7287
13286TIP3    H161273   3.258   4.213   4.684  0.0630  0.2575  0.0081
13286TIP3    H261274   3.395   4.185   4.625 -0.1676  2.8546 -1.9423
13287TIP3   OH261275   3.853   3.917  12.244  0.7996 -0.2237 -0.3911
13287TIP3    H161276   3.869   4.010  12.255  0.8081 -0.1154 -1.2569
13287TIP3    H261277   3.759   3.907  12.261  0.4112  0.2522 -2.0576
13288TIP3   OH261278   2.735   4.056   3.142  0.0889  0.4020  0.1464
13288TIP3    H161279   2.823   4.069   3.107  0.0691  0.2334  0.0277
13288TIP3    H261280   2.680   4.051   3.064  0.3684 -2.4873  0.0119
13289TIP3   OH261281   3.579   4.465  15.001 -0.0782 -0.0389  0.6635
13289TIP3    H161282   3.564   4.450  14.908  1.8883  1.4292  0.0298
13289TIP3    H261283   3.638   4.393  15.027  0.1770  0.1095  0.5052
13290TIP3   OH261284   1.288   3.921   2.049 -0.2815 -0.3978 -0.1833
13290TIP3    H161285   1.250   3.833   2.045 -0.4754 -0.3397  0.2841
13290TIP3    H261286   1.294   3.940   2.143  1.8403 -0.8147 -0.1764
13291TIP3   OH261287   3.033   5.086   6.486  0.9397 -0.0402  0.6130
13291TIP3    H161288   2.954   5.046   6.522  0.5272 -0.0109 -0.2206
13291TIP3    H261289   3.104   5.029   6.513  0.3038 -1.6982 -1.0093
13292TIP3   OH261290   4.595   5.517  12.561  0.2968 -0.1584  0.0522
13292TIP3    H161291   4.627   5.428  12.572  0.1660 -0.3620 -1.1205
13292TIP3    H261292   4.597   5.532  12.467 -0.0240  0.9552  0.2070
13293TIP3   OH261293   2.679   6.190   5.749 -0.0309  0.1211  0.2759
13293TIP3    H161294   2.738   6.120   5.722  0.1349  0.8889 -1.4592
13293TIP3    H261295   2.735   6.268   5.754  0.0694 -0.0073  3.4522
13294TIP3   OH261296   2.181   1.022  14.262  0.0694 -0.0449  0.0817
13294TIP3    H161297   2.235   0.955  14.219 -0.2886  0.1104 -0.6260
13294TIP3    H261298   2.174   0.992  14.352  0.6496 -0.5046 -0.0149
13295TIP3   OH261299   6.086   5.703   0.774 -1.0752 -0.2729  0.3997
13295TIP3    H161300   6.160   5.697   0.835 -0.7562  0.4145  0.0894
13295TIP3    H261301   6.026   5.765   0.815 -0.8488  0.2114  0.0101
13296TIP3   OH261302   2.143   2.292   3.575  0.7624 -0.2961 -0.4317
13296TIP3    H161303   2.201   2.220   3.599  1.7808  0.6010 -0.1250
13296TIP3    H261304   2.139   2.348   3.653 -0.5580 -0.3412 -0.4297
13297TIP3   OH261305   0.493   5.530  16.683  0.2477 -0.3438  0.1440
13297TIP3    H161306   0.403   5.501  16.695 -0.2626  0.5435 -1.3650
13297TIP3    H261307   0.528   5.536  16.773 -2.3459  2.8583  1.1217
13298TIP3   OH261308   4.570   1.945  11.218  0.3043  0.2162  0.0488
13298TIP3    H161309   4.479   1.971  11.203  0.4428  0.3914 -0.5513
13298TIP3    H261310   4.607   2.017  11.269  0.3840  0.6773 -0.6396
13299TIP3   OH261311   6.204   1.903  11.441  0.3331 -0.3500  0.1632
13299TIP3    H161312   6.216   1.997  11.432  1.0722 -0.2440  1.8879
13299TIP3    H261313   6.287   1.865  11.412  0.0000 -0.4923 -0.6283
13300TIP3   OH261314   4.161   5.556  14.454  0.0241 -0.0823 -0.0761
13300TIP3    H161315   4.227   5.489  14.438  1.4885  1.2157  0.3550
13300TIP3    H261316   4.154   5.604  14.372  0.6982  0.6859  0.2999
13301TIP3   OH261317   0.512   0.773  16.749 -0.2041 -0.5522  0.5845
13301TIP3    H161318   0.599   0.808  16.769 -0.2320 -0.6616  0.9001
13301TIP3    H261319   0.476   0.833  16.684 -0.2720  0.0289  1.1545
13302TIP3   OH261320   4.162   6.264  13.673 -0.1471 -0.3137  0.0427
13302TIP3    H161321   4.104   6.271  13.597 -1.3524  2.0111  1.0655
13302TIP3    H261322   4.215   6.343  13.671  1.1592 -1.1287  0.6114
13303TIP3   OH261323   5.983   3.716  15.873  0.3680 -0.1981  0.3204
13303TIP3    H161324   6.011   3.708  15.782 -0.7867  0.2386 -0.0874
13303TIP3    H261325   6.001   3.807  15.896  1.9795 -0.6479  1.0107
13304TIP3   OH261326   5.865   0.703   5.700 -0.5109  0.2781  0.4226
13304TIP3    H161327   5.895   0.751   5.623 -1.7427 -1.4647 -1.2314
13304TIP3    H261328   5.771   0.693   5.687 -0.3386 -2.4016  0.7426
13305TIP3   OH261329   2.293   5.973   2.600  0.0952 -0.3408 -0.3059
13305TIP3    H161330   2.219   6.029   2.623 -0.1995 -0.9568  0.2993
13305TIP3    H261331   2.364   6.003   2.658  0.3343  0.2594 -0.8969
13306TIP3   OH261332   6.375   1.142  14.913  0.4051 -0.5071  0.3468
13306TIP3    H161333   6.431   1.178  14.844 -0.0324  0.9017  0.6935
13306TIP3    H261334   6.363   1.050  14.888  1.3349 -0.3668 -0.7268
13307TIP3   OH261335   1.187   0.538   2.075  0.4299  0.5016  0.6035
13307TIP3    H161336   1.248   0.482   2.122  0.2443 -1.0980 -0.9703
13307TIP3    H261337   1.240   0.613   2.047  1.1871  0.0888  0.9000
13308TIP3   OH261338   2.678   5.617  11.706  0.2370  0.2027  0.3821
13308TIP3    H161339   2.663   5.675  11.631 -1.2046  0.6257  0.9522
13308TIP3    H261340   2.651   5.669  11.782  0.0209 -0.8121  1.0200
13309TIP3   OH261341   3.770   6.228  17.083  0.4006  0.2045 -0.3646
13309TIP3    H161342   3.818   6.256  17.005  0.6350  2.0308  0.3782
13309TIP3    H261343   3.735   6.142  17.060  2.7904 -0.5704 -1.4663
13310TIP3   OH261344   3.367   0.284  13.212  0.8296 -0.2067  0.5741
13310TIP3    H161345   3.300   0.248  13.154  0.9765 -0.8107  0.7777
13310TIP3    H261346   3.355   0.239  13.295  1.4119 -0.2348  0.6511
13311TIP3   OH261347   4.309   3.292  15.894 -0.4087  0.3783 -0.0109
13311TIP3    H161348   4.392   3.289  15.847  0.3933  0.2686  1.3440
13311TIP3    H261349   4.308   3.210  15.945 -0.7419  0.9535  0.9384
13312TIP3   OH261350   1.535   6.213   6.484 -0.4167 -0.0612 -0.1395
13312TIP3    H161351   1.498   6.126   6.470 -0.0814 -0.1831 -0.2725
13312TIP3    H261352   1.585   6.231   6.405  0.2198 -0.1085  0.2442
13313TIP3   OH261353   1.086   6.680   1.716  0.0731 -0.1879 -0.0584
13313TIP3    H161354   1.136   6.731   1.652  1.3179  1.3076  1.9810
13313TIP3    H261355   1.003   6.728   1.726  0.6438  0.6529  0.7796
13314TIP3   OH261356   4.904   3.934   4.973  0.0815  0.1898  0.1865
13314TIP3    H161357   4.856   3.956   4.893  0.6467  0.4509 -0.0844
13314TIP3    H261358   4.952   4.013   4.995  1.4436 -0.4651 -0.3052
13315TIP3   OH261359   6.433   2.121  14.658  0.3180  0.3684  0.2310
13315TIP3    H161360   6.426   2.159  14.570 -1.1707  1.0839  0.6264
13315TIP3    H261361   6.477   2.188  14.710  1.2756 -0.0888  0.0479
13316TIP3   OH261362   5.871   0.691   0.592 -0.4151  0.0034 -0.0755
13316TIP3    H161363   5.836   0.682   0.503  1.8549 -0.8120 -0.9522
13316TIP3    H261364   5.923   0.771   0.590 -2.2848  1.3488  1.2868
13317TIP3   OH261365   2.647   3.866   1.817 -0.2741  0.0926 -0.0910
13317TIP3    H161366   2.726   3.845   1.769 -0.5098 -1.2042  0.0637
13317TIP3    H261367   2.665   3.952   1.856 -0.0935  1.2204 -2.4593
13318TIP3   OH261368   5.949   1.188   1.339  0.0340 -0.0715 -0.5862
13318TIP3    H161369   5.970   1.226   1.254 -0.0130 -2.5988 -1.8140
13318TIP3    H261370   5.989   1.101   1.337 -1.2736 -0.7838  1.3572
13319TIP3   OH261371   0.862   6.032  13.995 -0.4053 -0.1825  0.3725
13319TIP3    H161372   0.839   6.020  13.903  2.0224  1.4163 -0.5258
13319TIP3    H261373   0.921   5.959  14.015 -0.8650 -0.4825  0.6541
13320TIP3   OH261374   2.741   0.554  17.176  0.1953 -0.0153  0.3058
13320TIP3    H161375   2.667   0.591  17.128 -0.9499 -1.5737  0.7710
13320TIP3    H261376   2.815   0.608  17.151 -0.8132  0.6985 -1.3364
13321TIP3   OH261377   5.236   1.288   2.080  0.0572  0.1836  0.1414
13321TIP3    H161378   5.295   1.359   2.054 -1.3949  1.2775 -0.3538
13321TIP3    H261379   5.165   1.292   2.016 -0.3132 -1.4052  0.4195
13322TIP3   OH261380   5.165   3.314   5.939 -0.0975 -0.0488 -0.5209
13322TIP3    H161381   5.260   3.315   5.947 -0.0680 -0.9435 -0.6130
13322TIP3    H261382   5.141   3.404   5.918  0.5406  0.6196  1.4574
13323TIP3   OH261383   5.296   1.644   1.097  0.1142  0.2227 -0.3174
13323TIP3    H161384   5.354   1.609   1.165  0.1665 -0.5246 -0.7416
13323TIP3    H261385   5.209   1.613   1.122 -0.4559  2.7584  1.2944
13324TIP3   OH261386   2.027   2.235   1.542  0.3145  0.2576  0.2367
13324TIP3    H161387   1.945   2.279   1.562 -0.6277 -1.1549 -0.3206
13324TIP3    H261388   2.044   2.179   1.618 -1.4929 -2.5653 -1.2591
13325TIP3   OH261389   6.730   3.366  11.949  0.1086  0.4253  0.2779
13325TIP3    H161390   6.751   3.407  12.033  0.2245  0.3481  0.2855
13325TIP3    H261391   6.774   3.281  11.952 -0.8468 -0.0776  0.6304
13326TIP3   OH261392   4.998   1.844   4.118 -0.3998  0.8145  0.2680
13326TIP3    H161393   5.028   1.927   4.157 -0.5377  0.7313  0.5562
13326TIP3    H261394   5.052   1.777   4.162 -1.2422  0.6308  1.0510
13327TIP3   OH261395   2.899   5.732  12.654  0.1742  0.2957 -0.5146
13327TIP3    H161396   2.846   5.745  12.732 -0.6451  0.4949 -1.0823
13327TIP3    H261397   2.967   5.799  12.659  0.2809  0.1444  0.1426
13328TIP3   OH261398   6.222   5.085  16.989 -0.0266  0.2573 -0.1732
13328TIP3    H161399   6.244   4.992  17.001 -0.8064 -0.0209 -0.8031
13328TIP3    H261400   6.284   5.115  16.922 -0.8264 -0.2469 -1.1665
13329TIP3   OH261401   0.255   5.216  14.122  0.6537 -0.0360  0.3817
13329TIP3    H161402   0.317   5.148  14.096 -0.9364 -0.7368 -1.8998
13329TIP3    H261403   0.256   5.214  14.218 -0.8145 -4.8335  0.5786
13330TIP3   OH261404   4.164   4.622  15.413 -0.5088  0.8922 -0.5724
13330TIP3    H161405   4.091   4.627  15.352 -1.1671  0.6025  0.1790
13330TIP3    H261406   4.189   4.530  15.413 -1.3240  0.6445  0.5056
13331TIP3   OH261407   3.996   6.082   2.336  0.3998  0.3909  0.9238
13331TIP3    H161408   3.921   6.130   2.302 -0.3130  0.0513  1.9759
13331TIP3    H261409   4.026   6.135   2.410  0.7333  0.1305  0.9760
13332TIP3   OH261410   0.685   4.530  12.276  0.6422 -0.1192  0.7056
13332TIP3    H161411   0.655   4.504  12.363  2.0705  1.3470  1.7070
13332TIP3    H261412   0.611   4.577  12.238  0.3543  0.1360  1.5660
13333TIP3   OH261413   4.818   4.221  14.014 -0.3224  0.6732  0.4258
13333TIP3    H161414   4.734   4.175  14.012 -0.8883  1.2898  3.8181
13333TIP3    H261415   4.883   4.152  13.999 -1.3376 -0.2098 -0.0697
13334TIP3   OH261416   2.234   1.237  13.072  0.0966 -0.0453 -0.0243
13334TIP3    H161417   2.290   1.162  13.090  2.3099  1.4357 -0.3294
13334TIP3    H261418   2.220   1.235  12.977  0.3786  0.0591 -0.0690
13335TIP3   OH261419   2.191   5.025  10.670 -0.0979 -0.0577 -0.8813
13335TIP3    H161420   2.259   5.049  10.608  1.7081 -0.8519  0.6929
13335TIP3    H261421   2.152   4.945  10.634 -0.5881  0.7017 -2.0654
13336TIP3   OH261422   5.277   4.666  11.382 -0.3059  0.0969 -0.3185
13336TIP3    H161423   5.339   4.654  11.310 -0.5622  0.3482 -0.5832
13336TIP3    H261424   5.197   4.624  11.351 -0.2226 -0.3800  0.0927
13337TIP3   OH261425   4.584   1.694  11.115 -0.5551 -0.1524 -0.2054
13337TIP3    H161426   4.517   1.710  11.049 -0.5274  0.8354 -0.0006
13337TIP3    H261427   4.607   1.781  11.148  1.3337 -0.3852 -0.7660
13338TIP3   OH261428   0.979   5.929   5.653  0.5440  0.1039 -0.2626
13338TIP3    H161429   1.055   5.984   5.671  0.6765  0.4584 -1.7629
13338TIP3    H261430   1.015   5.855   5.604 -0.1572  0.6089 -1.5647
13339TIP3   OH261431   5.711   0.686   2.631 -0.1623  0.3339 -0.0780
13339TIP3    H161432   5.616   0.682   2.642 -0.1034  1.6499  1.1604
13339TIP3    H261433   5.736   0.596   2.607 -1.5488 -0.3876  0.9958
13340TIP3   OH261434   4.421   0.656  16.904  0.4154 -0.3600 -0.0594
13340TIP3    H161435   4.372   0.643  16.985  0.3837  1.6702  0.3143
13340TIP3    H261436   4.425   0.570  16.863 -1.7132 -0.9740  0.8888
13341TIP3   OH261437   2.035   0.903  13.128 -0.1838 -1.0624 -0.2488
13341TIP3    H161438   1.993   0.817  13.135 -0.8815 -0.5941  2.8412
13341TIP3    H261439   2.128   0.885  13.135 -0.3948 -1.5519  3.2856
13342TIP3   OH261440   5.120   4.094   6.034 -0.0631  0.4900 -0.5009
13342TIP3    H161441   5.160   4.129   6.114 -1.1623 -0.1605  0.3840
13342TIP3    H261442   5.036   4.058   6.064 -0.7575  0.7226 -2.0581
13343TIP3   OH261443   3.232   4.835   2.116 -0.5268  0.5818  0.2047
13343TIP3    H161444   3.227   4.803   2.205 -1.7506  0.8856  0.2614
13343TIP3    H261445   3.293   4.776   2.072 -0.1998  0.2154  1.1378
13344TIP3   OH261446   5.836   6.633   3.854 -0.2420  0.3169 -0.3098
13344TIP3    H161447   5.854   6.543   3.883  1.4764  0.4534 -0.8477
13344TIP3    H261448   5.914   6.658   3.805 -1.9889  0.9860 -2.9444
13345TIP3   OH261449   4.882   5.870   4.191 -0.4979 -0.3463  0.6699
13345TIP3    H161450   4.926   5.808   4.133 -1.3654  1.2547 -1.9052
13345TIP3    H261451   4.795   5.833   4.205 -0.7315 -0.1525 -0.1826
13346TIP3   OH261452   4.641   6.667  16.663 -0.2622  0.4426 -0.2179
13346TIP3    H161453   4.590   6.687  16.741 -0.6528 -0.1701 -0.3027
13346TIP3    H261454   4.606   6.583  16.633 -0.6285  1.0051 -1.4675
13347TIP3   OH261455   3.723   3.684  14.446  0.0854 -0.8275 -0.2603
13347TIP3    H161456   3.818   3.698  14.439 -0.1263  0.6555 -0.5635
13347TIP3    H261457   3.702   3.624  14.375  0.4809  0.6795 -1.7209
13348TIP3   OH261458   6.693   2.648   3.075  0.4570 -0.4491  0.0456
13348TIP3    H161459   6.713   2.741   3.066  0.7211 -0.4674  0.4172
13348TIP3    H261460   6.753   2.605   3.014  0.4480 -0.3866 -0.0075
13349TIP3   OH261461   3.438   3.039  11.224 -0.2108 -0.1395  0.4047
13349TIP3    H161462   3.440   3.080  11.310  0.8309  1.5506 -0.3544
13349TIP3    H261463   3.394   3.103  11.168 -0.6358 -1.0929 -0.3788
13350TIP3   OH261464   1.753   1.438   1.819 -0.3102 -0.3199 -0.0174
13350TIP3    H161465   1.739   1.518   1.768 -1.2300 -0.3242  0.2159
13350TIP3    H261466   1.803   1.467   1.895  0.0781 -0.1177 -0.3416
13351TIP3   OH261467   0.540   3.208  11.587  0.1391 -0.3645 -0.2786
13351TIP3    H161468   0.615   3.217  11.528  0.6154 -0.4526  0.3064
13351TIP3    H261469   0.464   3.234  11.534  0.7032  0.7664 -0.5606
13352TIP3   OH261470   1.042   2.091  15.279  0.2037 -0.1468  0.2108
13352TIP3    H161471   0.952   2.070  15.255  0.1318 -1.4406  1.4727
13352TIP3    H261472   1.084   2.006  15.292  2.3384  0.2852 -2.7082
13353TIP3   OH261473   0.378   1.024  11.720 -0.3649 -0.6454 -0.0107
13353TIP3    H161474   0.387   1.113  11.687 -2.4907 -0.5483 -0.4512
13353TIP3    H261475   0.464   0.984  11.705  0.9922  1.6071  1.2044
13354TIP3   OH261476   0.213   2.589   1.659 -0.5501  0.4073 -0.5802
13354TIP3    H161477   0.214   2.607   1.753  0.2728 -0.9145 -0.3096
13354TIP3    H261478   0.122   2.566   1.640 -0.2177 -2.1961  0.5262
13355TIP3   OH261479   1.225   2.640  17.000  0.5532  0.1435 -0.2498
13355TIP3    H161480   1.187   2.564  17.045 -0.1480  1.2836  1.1909
13355TIP3    H261481   1.314   2.645  17.035  0.5761  0.0356 -0.2902
13356TIP3   OH261482   2.428   2.488  10.851 -0.0201  0.1759  0.2005
13356TIP3    H161483   2.355   2.459  10.795 -1.0546  0.9256  1.1264
13356TIP3    H261484   2.457   2.570  10.812  1.9204 -1.1986 -1.5302
13357TIP3   OH261485   3.905   6.451  15.782 -0.0958  0.1496 -0.2306
13357TIP3    H161486   3.883   6.499  15.862 -3.6762 -1.7724  0.1244
13357TIP3    H261487   3.870   6.505  15.711  1.5031  0.9902 -0.4271
13358TIP3   OH261488   5.423   3.072  10.588  0.1187  0.2416  0.6513
13358TIP3    H161489   5.331   3.093  10.606 -0.5152 -0.8357 -1.0674
13358TIP3    H261490   5.460   3.153  10.553  0.0860  0.9273  2.1290
13359TIP3   OH261491   4.118   2.049   4.860 -0.1208 -0.4029 -0.7082
13359TIP3    H161492   4.131   2.113   4.930 -2.4550 -0.6708  0.0343
13359TIP3    H261493   4.029   2.064   4.829 -0.4240 -2.7093 -1.1291
13360TIP3   OH261494   2.067   5.714  15.290 -0.6654 -0.2789 -0.2220
13360TIP3    H161495   1.986   5.679  15.252 -0.0766 -2.4617  0.4045
13360TIP3    H261496   2.099   5.644  15.347  0.0085  1.7537  2.0828
13361TIP3   OH261497   6.479   4.131   2.282 -0.4016  0.0941 -0.0875
13361TIP3    H161498   6.524   4.201   2.234  2.6064 -1.1408  0.6798
13361TIP3    H261499   6.442   4.175   2.358  1.0603  0.9675  0.1694
13362TIP3   OH261500   6.503   1.771   3.413 -0.2916 -0.1644 -0.3269
13362TIP3    H161501   6.536   1.698   3.466  0.9333  0.0056 -0.8287
13362TIP3    H261502   6.444   1.729   3.349 -1.7266 -0.3770  1.0647
13363TIP3   OH261503   4.181   4.484  15.894 -0.0187 -0.3610 -0.1270
13363TIP3    H161504   4.102   4.438  15.922  1.2407 -1.7986  1.2385
13363TIP3    H261505   4.149   4.552  15.834 -2.2212 -1.1977  0.0056
13364TIP3   OH261506   4.562   2.592  15.008  0.2805  0.1038 -0.2722
13364TIP3    H161507   4.624   2.629  15.071 -0.5722  1.2196 -0.0690
13364TIP3    H261508   4.607   2.515  14.973  0.8679 -0.4158  1.5175
13365TIP3   OH261509   0.978   1.760  12.044 -0.8418 -0.1309 -0.2382
13365TIP3    H161510   0.912   1.738  12.110 -0.9546 -2.5638 -1.0781
13365TIP3    H261511   1.059   1.771  12.094 -1.2416 -0.3381  0.4633
13366TIP3   OH261512   3.050   0.652   5.460  0.3643  0.2100  0.2621
13366TIP3    H161513   2.988   0.592   5.419  0.9672 -0.3645  0.1814
13366TIP3    H261514   3.108   0.596   5.512  0.4631  0.7958  0.7942
13367TIP3   OH261515   3.006   5.841  13.745 -0.0584 -0.2459  0.4484
13367TIP3    H161516   2.960   5.896  13.682  1.3162 -0.1427 -0.5006
13367TIP3    H261517   2.980   5.875  13.830 -1.8321 -0.2850 -0.0338
13368TIP3   OH261518   0.012   2.245  14.664 -0.1040  0.4369  0.0896
13368TIP3    H161519   0.022   2.236  14.569 -1.5689  1.9567 -0.2573
13368TIP3    H261520  -0.073   2.288  14.675 -1.4834 -2.4809  2.2394
13369TIP3   OH261521   2.559   1.798   2.732 -0.1752 -0.6644 -0.2291
13369TIP3    H161522   2.526   1.865   2.792 -1.8297 -0.5733 -1.1552
13369TIP3    H261523   2.644   1.773   2.767 -1.7129 -1.8316  3.1478
13370TIP3   OH261524   1.398   2.360   0.676  0.4478  0.5057 -0.2763
13370TIP3    H161525   1.306   2.354   0.652  0.2249 -0.5391  0.6969
13370TIP3    H261526   1.424   2.448   0.652 -0.6619  0.6395 -1.0600
13371TIP3   OH261527   1.057   5.733  13.267  0.3059  0.0856 -0.3269
13371TIP3    H161528   1.026   5.643  13.262  1.2789 -0.5745  2.9391
13371TIP3    H261529   1.153   5.725  13.265  0.6057  0.4714  3.4776
13372TIP3   OH261530   2.979   6.295  14.517 -0.4580  0.6034  0.4376
13372TIP3    H161531   3.018   6.261  14.597  0.3731 -0.1926 -0.2836
13372TIP3    H261532   3.052   6.334  14.469 -0.4619 -1.0693 -1.0223
13373TIP3   OH261533   0.036   6.285   2.549  0.0220 -0.2716 -0.1179
13373TIP3    H161534   0.076   6.239   2.475 -0.8182  0.3635 -1.0048
13373TIP3    H261535   0.086   6.256   2.625 -0.6715 -2.9275 -0.5554
13374TIP3   OH261536   2.385   2.949  14.771 -0.8011  0.1748 -0.0045
13374TIP3    H161537   2.426   2.911  14.848  0.3232  0.1767 -0.5890
13374TIP3    H261538   2.310   2.892  14.754  0.3554 -1.3061 -0.3485
13375TIP3   OH261539   5.570   1.319  12.213 -0.3101  0.4657 -0.0308
13375TIP3    H161540   5.515   1.291  12.139  0.1287  2.0882 -1.0337
13375TIP3    H261541   5.582   1.413  12.199  0.4017  0.6712  1.7329
13376TIP3   OH261542   3.867   2.679  12.139 -0.3678 -0.0630 -0.4105
13376TIP3    H161543   3.949   2.708  12.099  1.6208 -1.4274  2.2951
13376TIP3    H261544   3.862   2.586  12.120 -0.5481 -0.2690  0.5797
13377TIP3   OH261545   1.860   2.374   5.144  0.2763  0.4010 -0.4626
13377TIP3    H161546   1.800   2.379   5.219 -0.5026  0.1136 -1.0462
13377TIP3    H261547   1.856   2.461   5.104 -2.0839 -0.3915 -2.2097
13378TIP3   OH261548   3.336   0.945  16.011 -0.2513  0.1043  0.2934
13378TIP3    H161549   3.399   0.878  15.985  0.1753 -0.4367  2.4747
13378TIP3    H261550   3.296   0.974  15.929  1.1159 -1.2526 -0.9163
13379TIP3   OH261551   3.690   1.908   4.077 -0.7875  0.1551  0.2575
13379TIP3    H161552   3.714   1.861   4.157  0.3662 -0.3794 -0.3670
13379TIP3    H261553   3.626   1.973   4.105 -1.0614 -0.6009  1.4576
13380TIP3   OH261554   4.124   5.373  17.179 -0.0904  0.1202  0.1323
13380TIP3    H161555   4.123   5.310  17.107  0.7228  1.1190 -0.8035
13380TIP3    H261556   4.071   5.447  17.147 -0.3074  0.2851  0.8478
13381TIP3   OH261557   0.055   2.409   4.120  0.0474  0.0743 -0.0107
13381TIP3    H161558  -0.003   2.362   4.180 -0.1828  0.9269  0.4431
13381TIP3    H261559   0.061   2.497   4.156  2.4232 -0.2451  0.5011
13382TIP3   OH261560   2.067   5.550  16.269 -0.7863  0.1309  0.0224
13382TIP3    H161561   2.067   5.621  16.205 -0.8778  0.4366  0.3605
13382TIP3    H261562   2.020   5.479  16.225 -0.4813  0.1931 -0.4080
13383TIP3   OH261563   3.834   5.806  14.493  0.2734 -0.3068  0.0641
13383TIP3    H161564   3.895   5.754  14.440 -0.2522  0.2285 -1.1039
13383TIP3    H261565   3.887   5.877  14.529  0.6481 -0.7035  0.2912
13384TIP3   OH261566   3.478   5.801   3.409 -0.4166 -0.1576 -0.5400
13384TIP3    H161567   3.384   5.818   3.410 -0.1202  1.5668 -0.4032
13384TIP3    H261568   3.514   5.857   3.478  0.5803 -1.7481  0.3125
13385TIP3   OH261569   5.458   5.066   0.748 -0.4591  0.1420 -0.4416
13385TIP3    H161570   5.503   4.981   0.744 -0.1365  0.2366  0.8844
13385TIP3    H261571   5.438   5.078   0.840 -1.8235  0.8443 -0.8087
13386TIP3   OH261572   4.863   6.261   3.032  0.0288  0.4503 -0.3831
13386TIP3    H161573   4.769   6.244   3.026 -0.0591  0.0182  1.6823
13386TIP3    H261574   4.869   6.356   3.038 -0.2830  0.4648 -0.2633
13387TIP3   OH261575   5.258   0.780   5.978 -0.7487 -0.0939 -0.0748
13387TIP3    H161576   5.179   0.829   6.003 -0.8103 -0.4891  0.5251
13387TIP3    H261577   5.246   0.694   6.018 -0.9353 -0.8202 -1.6425
13388TIP3   OH261578   2.452   0.581   6.188  0.3681 -0.2738 -0.2539
13388TIP3    H161579   2.431   0.613   6.100  1.2656  1.7733  0.2193
13388TIP3    H261580   2.370   0.590   6.236  0.7625  2.4432  0.1149
13389TIP3   OH261581   4.835   4.017  14.325 -0.4307 -0.1168  0.1063
13389TIP3    H161582   4.902   4.085  14.314  0.6427 -0.4255  3.7195
13389TIP3    H261583   4.757   4.065  14.352  0.1942 -0.1709  2.1768
13390TIP3   OH261584   1.218   6.670   0.727 -0.1805  0.2270  0.6165
13390TIP3    H161585   1.167   6.626   0.795  0.4777 -0.3849  0.7281
13390TIP3    H261586   1.295   6.614   0.715 -1.2887 -0.8541 -2.1420
13391TIP3   OH261587   4.778   6.255  14.059 -0.2887 -0.1493 -0.3293
13391TIP3    H161588   4.701   6.281  14.008  0.1473  1.3134 -0.3117
13391TIP3    H261589   4.803   6.170  14.023  0.4002  1.0999 -3.1413
13392TIP3   OH261590   0.308   3.640  15.414 -0.0112 -0.2369  0.5652
13392TIP3    H161591   0.320   3.665  15.322 -0.1044  0.6020  0.7731
13392TIP3    H261592   0.321   3.721  15.463 -0.2524 -0.6158  1.2743
13393TIP3   OH261593   0.913   3.290  13.562 -0.4525  0.5065 -0.2601
13393TIP3    H161594   0.844   3.301  13.497  0.3050  0.7911 -1.0297
13393TIP3    H261595   0.890   3.352  13.631 -1.7230 -0.4068  0.1662
13394TIP3   OH261596   0.515   1.519   5.080  0.3383 -0.1298  0.4478
13394TIP3    H161597   0.450   1.580   5.114 -0.8971 -0.6092 -0.9393
13394TIP3    H261598   0.594   1.572   5.070  0.3806  0.3085  2.7435
13395TIP3   OH261599   6.553   5.084  14.628  0.0194 -1.2783 -0.4224
13395TIP3    H161600   6.539   5.000  14.584 -0.8799 -0.9481 -0.7943
13395TIP3    H261601   6.481   5.090  14.691 -0.5411 -0.3367 -1.1197
13396TIP3   OH261602   1.636   0.849   6.524 -0.7532 -0.2302 -0.1152
13396TIP3    H161603   1.621   0.769   6.575  1.3716 -0.9336 -0.4735
13396TIP3    H261604   1.560   0.855   6.466 -1.5488 -1.3044  0.7653
13397TIP3   OH261605   6.578   1.118   4.445  0.6290  0.5892  0.6111
13397TIP3    H161606   6.632   1.049   4.484  1.0020  1.1128  1.0380
13397TIP3    H261607   6.611   1.199   4.484  1.5630  1.2343 -1.4047
13398TIP3   OH261608   6.490   4.863  16.939  0.1839  0.3754 -0.0265
13398TIP3    H161609   6.543   4.942  16.927 -2.2239  1.8713 -2.1388
13398TIP3    H261610   6.472   4.833  16.849 -1.0571 -1.0729  0.6556
13399TIP3   OH261611   5.056   5.917   4.867 -0.1924 -0.2170 -0.3986
13399TIP3    H161612   4.993   5.984   4.841  0.3478 -0.1723 -1.6769
13399TIP3    H261613   5.028   5.889   4.954 -0.0295  2.1527  0.4799
13400TIP3   OH261614   6.145   2.771  13.213  0.2281 -0.6370 -0.2907
13400TIP3    H161615   6.148   2.773  13.309 -1.4830 -0.6529 -0.2233
13400TIP3    H261616   6.110   2.685  13.193 -1.2723  0.0918 -0.8682
13401TIP3   OH261617   4.253   1.948  12.552  0.3600 -0.7310  0.3485
13401TIP3    H161618   4.192   1.999  12.606  0.3604 -0.0203 -0.3071
13401TIP3    H261619   4.274   1.871  12.605  0.3560 -0.0483  1.3641
13402TIP3   OH261620   0.032   3.835  10.836 -0.7483  0.3985  0.0510
13402TIP3    H161621   0.007   3.747  10.865  0.5149  0.3952  1.2398
13402TIP3    H261622   0.024   3.890  10.914  0.7078  0.8326 -0.0613
13403TIP3   OH261623   3.208   5.445  14.814  0.4301 -0.5699  0.2144
13403TIP3    H161624   3.131   5.394  14.790  0.3159 -0.1053 -0.4337
13403TIP3    H261625   3.254   5.459  14.732 -0.1910  1.4180  0.1362
13404TIP3   OH261626   0.951   1.193  15.784 -0.4332 -0.0460  0.2166
13404TIP3    H161627   0.863   1.176  15.750 -0.3632  0.8134 -0.4400
13404TIP3    H261628   0.938   1.216  15.876 -0.9814  0.7596 -0.0515
13405TIP3   OH261629   2.865   1.903  16.959  0.0168  0.2469 -0.4076
13405TIP3    H161630   2.789   1.874  17.010 -0.8552  0.9803 -1.2424
13405TIP3    H261631   2.864   1.848  16.881  1.1941 -0.6928  0.2096
13406TIP3   OH261632   4.283   1.208   2.159  0.4724  0.6411 -0.0610
13406TIP3    H161633   4.301   1.249   2.074  0.1708 -0.3520 -0.6148
13406TIP3    H261634   4.286   1.114   2.142 -2.3105  0.3645  0.3885
13407TIP3   OH261635   3.573   0.154   4.380  0.1680 -0.4693  0.4502
13407TIP3    H161636   3.623   0.229   4.348  0.3972 -0.7670  0.0933
13407TIP3    H261637   3.521   0.188   4.452  0.1579  0.0630  0.1932
13408TIP3   OH261638   3.121   0.271  14.055  0.4291  0.5576  0.1808
13408TIP3    H161639   3.073   0.271  14.138 -0.6634  1.8643 -0.4036
13408TIP3    H261640   3.162   0.358  14.051  1.1576  0.2041 -0.2745
13409TIP3   OH261641   5.962   3.347  14.663  0.8639 -0.0282  0.3696
13409TIP3    H161642   5.977   3.282  14.594  4.1560 -0.3379  1.2378
13409TIP3    H261643   5.983   3.302  14.744 -0.8728  0.9708  1.4376
13410TIP3   OH261644   3.686   2.803  15.844  0.5678 -0.1556 -0.5647
13410TIP3    H161645   3.698   2.824  15.937 -0.9555 -0.2104 -0.3297
13410TIP3    H261646   3.676   2.708  15.842  2.5471 -0.3911 -1.0476
13411TIP3   OH261647   4.714   0.636  11.686  0.6409 -0.7435 -0.2009
13411TIP3    H161648   4.678   0.671  11.605 -0.8723 -2.9225 -0.5492
13411TIP3    H261649   4.661   0.677  11.755  1.2427  0.3075 -0.3324
13412TIP3   OH261650   3.257   2.828  16.950 -0.2075 -0.3827 -0.1478
13412TIP3    H161651   3.182   2.801  16.897 -1.0275  1.7083 -0.1311
13412TIP3    H261652   3.261   2.763  17.020 -0.5709 -1.8355 -1.4103
13413TIP3   OH261653   0.605   6.115   4.087  0.0314  0.4580  0.0477
13413TIP3    H161654   0.604   6.188   4.149 -0.3163  0.2913  0.2344
13413TIP3    H261655   0.522   6.122   4.040  0.6934  1.1776 -1.0938
13414TIP3   OH261656   6.263   3.272   6.387  0.0144  0.1464  0.0592
13414TIP3    H161657   6.287   3.216   6.313  1.5572 -0.2582  0.8295
13414TIP3    H261658   6.205   3.339   6.349 -0.9435 -1.2781 -1.0933
13415TIP3   OH261659   2.854   0.585   6.672 -0.1639  0.3535 -0.0258
13415TIP3    H161660   2.818   0.530   6.602 -0.8063  1.1815 -0.3652
13415TIP3    H261661   2.783   0.645   6.694  0.9012  1.8862 -0.5579
13416TIP3   OH261662   4.233   4.299  12.559 -0.1193  0.5212 -0.2943
13416TIP3    H161663   4.173   4.312  12.486 -1.1718 -1.0719  0.2215
13416TIP3    H261664   4.176   4.270  12.631  1.0080  1.1281  0.8747
13417TIP3   OH261665   5.784   2.617   4.694  0.2417 -0.5208  0.2014
13417TIP3    H161666   5.797   2.672   4.771 -2.3933  0.2256  0.2028
13417TIP3    H261667   5.845   2.544   4.706  1.7495  0.8920  1.6471
13418TIP3   OH261668   3.906   2.146   4.115  0.1466 -0.5675  0.4556
13418TIP3    H161669   3.901   2.063   4.161  0.1871 -0.0010  1.5200
13418TIP3    H261670   3.849   2.205   4.164 -0.0036 -0.0020 -0.3693
13419TIP3   OH261671   6.357   2.631  10.355 -0.6403 -0.1597 -0.2848
13419TIP3    H161672   6.332   2.701  10.294 -1.0247  0.3378  0.4281
13419TIP3    H261673   6.449   2.650  10.375 -0.8055  0.2777  0.0758
13420TIP3   OH261674   0.824   4.632   4.804 -0.2049  0.0783  0.7263
13420TIP3    H161675   0.736   4.621   4.840  0.3914 -0.0816  2.2040
13420TIP3    H261676   0.866   4.548   4.818 -0.1919 -0.2715 -1.1615
13421TIP3   OH261677   4.672   6.510  11.287 -0.2665  0.5917  0.0037
13421TIP3    H161678   4.734   6.440  11.309  0.6838  1.0432 -1.0860
13421TIP3    H261679   4.600   6.466  11.242  0.2446  0.2764 -0.5196
13422TIP3   OH261680   6.447   4.066  16.251 -0.2171 -0.5043  0.1087
13422TIP3    H161681   6.356   4.047  16.231 -0.8369  0.2580  1.9909
13422TIP3    H261682   6.465   4.148  16.205 -0.5875 -0.4661  0.0317
13423TIP3   OH261683   4.993   2.548   6.377  0.2216 -0.4268 -0.5496
13423TIP3    H161684   5.031   2.492   6.309  0.4710 -2.2176  0.9562
13423TIP3    H261685   4.928   2.492   6.420  2.2015 -0.5496  2.6472
13424TIP3   OH261686   3.150   1.784   5.715 -0.2412  0.2346 -0.4968
13424TIP3    H161687   3.237   1.824   5.713 -0.9373  1.7659 -1.3387
13424TIP3    H261688   3.111   1.814   5.797 -0.7414  1.2894 -1.1010
13425TIP3   OH261689   5.642   1.260  11.305 -0.1785 -0.1944  0.3397
13425TIP3    H161690   5.590   1.183  11.329 -1.3672  0.3982 -0.2866
13425TIP3    H261691   5.587   1.308  11.244  0.5427  1.1696  0.7291
13426TIP3   OH261692   1.177   1.252   5.892  0.2988 -0.0565  0.4154
13426TIP3    H161693   1.247   1.192   5.865 -0.9383 -0.4487 -2.2044
13426TIP3    H261694   1.102   1.195   5.907 -0.3588  0.6362 -0.1555
13427TIP3   OH261695   6.037   6.468   2.515  0.0447 -0.4157  0.1684
13427TIP3    H161696   6.105   6.431   2.571  0.1200 -1.7799 -0.7944
13427TIP3    H261697   5.970   6.400   2.509 -1.0060  0.5703  0.3840
13428TIP3   OH261698   1.316   2.503  11.641  0.1175 -0.3635  0.2499
13428TIP3    H161699   1.352   2.584  11.677  0.8497 -0.9782  0.9471
13428TIP3    H261700   1.392   2.449  11.623 -0.1846 -0.0320 -2.4944
13429TIP3   OH261701   0.359   0.531   2.729  0.7298 -0.0160  0.1827
13429TIP3    H161702   0.360   0.477   2.808  0.9850  1.3303  1.1305
13429TIP3    H261703   0.427   0.492   2.673 -0.4910 -1.9260 -0.0865
13430TIP3   OH261704   1.236   1.907   5.381 -0.0077 -0.0760  0.1613
13430TIP3    H161705   1.250   1.910   5.286  0.1060 -1.4113  0.1253
13430TIP3    H261706   1.325   1.913   5.418 -0.1506  5.2364  0.4328
13431TIP3   OH261707   1.764   4.125   2.214 -0.4820 -0.6543  0.2187
13431TIP3    H161708   1.729   4.186   2.278 -0.6505  0.2738 -0.7287
13431TIP3    H261709   1.826   4.177   2.163 -1.4163 -0.9569 -1.3023
13432TIP3   OH261710   4.824   3.358  11.152 -0.1705  0.6594  0.1135
13432TIP3    H161711   4.920   3.353  11.147 -0.1549  0.8634  0.1890
13432TIP3    H261712   4.793   3.286  11.096  0.0246  1.7454 -1.4600
13433TIP3   OH261713   4.690   6.636  14.915 -0.0296 -0.2236  0.2930
13433TIP3    H161714   4.647   6.660  14.833 -0.0122 -0.5909  0.1773
13433TIP3    H261715   4.721   6.547  14.901  2.6331  0.7288 -0.4124
13434TIP3   OH261716   6.520   3.997  12.969 -0.0608  0.8731  0.0584
13434TIP3    H161717   6.488   3.947  12.894 -0.8131  0.5309  0.6039
13434TIP3    H261718   6.466   4.076  12.970  0.3744  1.1818 -0.1284
13435TIP3   OH261719   1.444   2.576  11.284 -0.1089  0.3412 -0.2963
13435TIP3    H161720   1.364   2.530  11.310  1.0289 -2.2497 -1.1029
13435TIP3    H261721   1.455   2.555  11.191  0.7523  1.9019 -0.5949
13436TIP3   OH261722   1.978   1.459  14.992  0.2350 -1.0524  0.1628
13436TIP3    H161723   1.977   1.551  15.018 -2.3881 -0.6398 -1.0376
13436TIP3    H261724   2.060   1.425  15.027  1.4680  1.8089  0.3322
13437TIP3   OH261725   4.283   6.542  16.337  0.2336 -0.0005 -0.1133
13437TIP3    H161726   4.361   6.522  16.389  0.2878 -1.6680 -0.7905
13437TIP3    H261727   4.233   6.460  16.335 -1.7649  1.1212  0.6277
13438TIP3   OH261728   4.462   2.567  15.285 -0.1520  0.2831  0.3578
13438TIP3    H161729   4.447   2.608  15.200  0.3083 -0.4775 -0.1047
13438TIP3    H261730   4.375   2.559  15.323 -0.2513  1.7608  0.5151
13439TIP3   OH261731   3.065   2.057  13.924  0.1060 -0.2030  0.3631
13439TIP3    H161732   2.971   2.052  13.908  0.1929 -1.3591  0.1122
13439TIP3    H261733   3.075   2.035  14.016  0.1261 -0.0518  0.3969
13440TIP3   OH261734   0.746   3.417  15.313 -0.9594 -0.2380  0.4542
13440TIP3    H161735   0.672   3.398  15.255 -0.5405 -0.3991 -0.0382
13440TIP3    H261736   0.720   3.496  15.360 -1.3245 -0.1249  0.0714
13441TIP3   OH261737   6.458   0.915  12.152 -0.3133 -0.4604 -0.0100
13441TIP3    H161738   6.417   0.847  12.098 -0.0665 -0.4409 -0.2205
13441TIP3    H261739   6.410   0.911  12.235 -2.5454  1.3158 -1.1136
13442TIP3   OH261740   3.741   4.594   2.592  0.2571  0.0457  0.2290
13442TIP3    H161741   3.685   4.523   2.623 -0.4728  0.3575 -0.3490
13442TIP3    H261742   3.761   4.645   2.671 -0.9926  0.4219  0.3281
13443TIP3   OH261743   5.605   5.258   5.228 -0.5142  0.5076 -0.3804
13443TIP3    H161744   5.522   5.269   5.274 -0.4527  0.1222 -0.1673
13443TIP3    H261745   5.584   5.200   5.154 -0.3088 -0.1437  0.0595
13444TIP3   OH261746   2.177   3.737   5.212  0.1832  0.1420  0.2479
13444TIP3    H161747   2.115   3.715   5.142 -0.0474 -1.0835  0.8157
13444TIP3    H261748   2.234   3.660   5.218 -0.5328 -0.2817  2.1907
13445TIP3   OH261749   5.170   6.491  16.115 -0.2318 -0.7862 -0.1548
13445TIP3    H161750   5.235   6.422  16.132  0.6368 -0.3982 -1.6954
13445TIP3    H261751   5.185   6.555  16.184  2.7635  0.4645 -1.7679
13446TIP3   OH261752   1.280   0.289  13.488  0.3147  0.4241  0.6854
13446TIP3    H161753   1.289   0.323  13.399 -1.1352 -0.0356  0.3411
13446TIP3    H261754   1.196   0.322  13.518  0.3324 -0.2513  1.5248
13447TIP3   OH261755   5.955   1.839  14.016 -0.3547 -0.2778 -0.4373
13447TIP3    H161756   5.972   1.746  14.028 -0.5882 -0.1570  1.0349
13447TIP3    H261757   6.042   1.879  14.010 -0.2443 -0.4789 -0.1634
13448TIP3   OH261758   4.962   5.762  11.044 -0.1069  0.2030 -0.9859
13448TIP3    H161759   5.027   5.735  10.979 -0.7337  0.3600 -1.6877
13448TIP3    H261760   4.921   5.680  11.071  0.8675  0.0153  0.0114
13449TIP3   OH261761   6.519   1.084   2.126 -0.0201 -0.3289  0.0620
13449TIP3    H161762   6.452   1.063   2.190 -1.1075 -1.0137 -1.2608
13449TIP3    H261763   6.471   1.119   2.051  1.1362 -0.3605 -0.7221
13450TIP3   OH261764   2.717   0.368  12.928 -0.3533  0.2759 -0.1398
13450TIP3    H161765   2.669   0.316  12.992 -2.9372  0.5652 -1.7255
13450TIP3    H261766   2.747   0.444  12.978  0.0623 -0.7790  1.3005
13451TIP3   OH261767   0.903   2.228  16.765  0.5298  0.0658  0.4433
13451TIP3    H161768   0.841   2.287  16.723  0.0885  0.3202  1.4092
13451TIP3    H261769   0.989   2.268  16.750  0.2638  0.7988  0.8293
13452TIP3   OH261770   4.927   0.985   0.612  0.0744 -0.3123 -0.3766
13452TIP3    H161771   4.953   1.069   0.648  0.4402 -0.6998  0.2797
13452TIP3    H261772   4.973   0.920   0.665  0.3668 -0.9141 -1.3323
13453TIP3   OH261773   5.185   3.854   4.292 -0.1919 -0.1783 -0.3305
13453TIP3    H161774   5.132   3.817   4.221  0.9879 -0.8411 -0.8932
13453TIP3    H261775   5.124   3.910   4.340 -1.3690 -0.7997 -1.0326
13454TIP3   OH261776   1.124   0.735  10.738  0.1428  0.0633 -0.2719
13454TIP3    H161777   1.045   0.757  10.689 -0.9152 -1.3343  0.6967
13454TIP3    H261778   1.193   0.733  10.673 -0.3739  2.3565 -0.9847
13455TIP3   OH261779   2.902   4.090   1.788 -0.6574 -0.0717 -0.6871
13455TIP3    H161780   2.841   4.163   1.775 -1.4587 -0.1032  2.2831
13455TIP3    H261781   2.939   4.105   1.875  0.5609 -2.2217 -0.7765
13456TIP3   OH261782   5.637   2.978  14.307 -0.3784  0.6451 -0.6296
13456TIP3    H161783   5.617   2.915  14.238  1.0024 -0.1705 -0.3252
13456TIP3    H261784   5.568   2.965  14.373 -0.6036  0.0695 -0.9720
13457TIP3   OH261785   5.019   5.016   0.341 -0.3646  0.4113 -0.2767
13457TIP3    H161786   5.088   5.069   0.381 -0.1505  0.0355 -0.1391
13457TIP3    H261787   5.015   5.045   0.250 -1.2633  1.6947  0.1423
13458TIP3   OH261788   4.548   2.311   3.852  0.3433  0.4266 -0.5198
13458TIP3    H161789   4.640   2.314   3.826  0.3068  1.9419 -0.5813
13458TIP3    H261790   4.547   2.344   3.942  0.2232 -2.8560  0.8271
13459TIP3   OH261791   6.336   6.653   1.300  0.0502  0.3445  0.0352
13459TIP3    H161792   6.352   6.595   1.374  0.1128  0.8414  0.4105
13459TIP3    H261793   6.343   6.596   1.223  1.3693  0.0930  0.3193
13460TIP3   OH261794   1.190   4.563  12.670  0.2258  0.0540 -0.0303
13460TIP3    H161795   1.199   4.653  12.640  1.1750  0.0164  0.1171
13460TIP3    H261796   1.095   4.549  12.677  0.0844  1.2986  0.7266
13461TIP3   OH261797   3.177   4.829  11.594  0.2703  0.6842  0.4597
13461TIP3    H161798   3.183   4.850  11.687  0.3273 -0.8564  0.8291
13461TIP3    H261799   3.209   4.908  11.549 -1.3070  2.0944  1.6573
13462TIP3   OH261800   0.109   5.142   3.132 -0.2223 -0.0487  0.2289
13462TIP3    H161801   0.121   5.234   3.156 -0.6262 -0.2662  1.3288
13462TIP3    H261802   0.193   5.116   3.094  0.1699  0.5493  0.6655
13463TIP3   OH261803   5.421   0.224  13.981  0.0315  0.2773 -0.1281
13463TIP3    H161804   5.407   0.279  14.058 -0.1903  0.2813 -0.1722
13463TIP3    H261805   5.351   0.248  13.921  1.5076  1.9772 -1.2929
13464TIP3   OH261806   5.886   2.682   4.938  0.2075 -0.6607 -0.3133
13464TIP3    H161807   5.959   2.622   4.955 -0.1254 -1.2401 -0.8642
13464TIP3    H261808   5.811   2.643   4.982  0.5187  0.7288  1.5677
13465TIP3   OH261809   3.706   5.579  12.407  0.5459  0.2383  0.3541
13465TIP3    H161810   3.681   5.493  12.373  1.0277 -0.0697  0.7609
13465TIP3    H261811   3.628   5.611  12.452  0.2663  0.1508 -0.0712
13466TIP3   OH261812   5.598   3.119  15.896  0.7991 -0.9748 -0.0977
13466TIP3    H161813   5.655   3.169  15.838 -0.5918  0.8705  0.0575
13466TIP3    H261814   5.520   3.100  15.844  0.7098 -1.7914  0.3062
13467TIP3   OH261815   5.560   0.147   1.242  0.3282  0.3211  0.2914
13467TIP3    H161816   5.489   0.087   1.266 -0.3878  0.8634 -0.4149
13467TIP3    H261817   5.632   0.122   1.299 -0.8496  0.6248  2.0017
13468TIP3   OH261818   3.849   6.551   5.633  0.3435 -0.4598 -0.2673
13468TIP3    H161819   3.901   6.481   5.594  2.0272  0.7867 -0.3754
13468TIP3    H261820   3.908   6.626   5.636 -1.5555  1.1441 -0.6591
13469TIP3   OH261821   5.549   3.701  15.565  0.0708 -0.2792  0.2905
13469TIP3    H161822   5.540   3.606  15.570 -2.1881 -0.1425 -0.1670
13469TIP3    H261823   5.567   3.729  15.654 -0.4312 -1.0505  0.6419
13470TIP3   OH261824   3.198   6.280  12.276  0.4674  0.2475 -0.4862
13470TIP3    H161825   3.108   6.269  12.245  0.4407  0.7086 -0.5814
13470TIP3    H261826   3.213   6.374  12.274  0.7218  0.2276  0.1884
13471TIP3   OH261827   1.927   5.325  13.736 -0.4917  0.1071 -0.0340
13471TIP3    H161828   2.006   5.287  13.697  0.7917  0.1006  2.3628
13471TIP3    H261829   1.933   5.419  13.719  0.1766  0.1353  0.3490
13472TIP3   OH261830   1.403   0.053   1.128  0.2153 -0.4638  0.1274
13472TIP3    H161831   1.380   0.007   1.047 -1.7000 -0.7320  0.7823
13472TIP3    H261832   1.405  -0.015   1.194  0.1553 -0.0100  0.6022
13473TIP3   OH261833   0.432   3.098   1.437 -0.2312  0.2785 -0.2187
13473TIP3    H161834   0.375   3.158   1.485  2.1786  0.5885  2.5044
13473TIP3    H261835   0.520   3.123   1.462  0.9746 -4.4308  1.3193
13474TIP3   OH261836   0.898   3.764   5.737 -0.0574  0.1863  0.2720
13474TIP3    H161837   0.891   3.681   5.690 -1.0443  0.0290  0.6732
13474TIP3    H261838   0.839   3.823   5.691  0.5647  0.6499  0.0502
13475TIP3   OH261839   0.538   4.616  11.048  0.2111 -0.1838  0.6384
13475TIP3    H161840   0.610   4.611  11.110  0.7942 -0.3360 -0.0372
13475TIP3    H261841   0.578   4.597  10.963 -0.2235  1.6759 -0.0323
13476TIP3   OH261842   1.319   4.515  12.448 -0.2697 -0.5802  0.3802
13476TIP3    H161843   1.272   4.514  12.530  0.0200  1.7245  0.6554
13476TIP3    H261844   1.397   4.568  12.466  0.0116 -0.3817 -1.2486
13477TIP3   OH261845   6.763   1.506  15.263 -0.3248  0.0417 -0.0329
13477TIP3    H161846   6.818   1.559  15.320  0.8161 -2.0085  0.8663
13477TIP3    H261847   6.684   1.488  15.314 -0.0337 -0.4173  0.2516
13478TIP3   OH261848   4.741   5.471   2.799  0.2594  1.0434  0.3043
13478TIP3    H161849   4.835   5.466   2.782  0.4678 -0.1130  1.6042
13478TIP3    H261850   4.727   5.560   2.831  1.1382  0.8518  1.2717
13479TIP3   OH261851   1.704   3.789   1.038  0.1738  0.3033  0.1513
13479TIP3    H161852   1.730   3.881   1.045  2.2282 -0.2869  0.9760
13479TIP3    H261853   1.769   3.750   0.980  0.7182 -1.0745  1.6041
13480TIP3   OH261854   2.883   5.362  11.065 -0.0037 -0.1658 -0.1036
13480TIP3    H161855   2.855   5.295  11.127  0.9090 -0.6046 -0.1572
13480TIP3    H261856   2.978   5.352  11.060 -0.0566 -0.0993 -1.5359
13481TIP3   OH261857   0.520   2.383   5.173 -0.4882 -0.1914  0.3333
13481TIP3    H161858   0.452   2.446   5.198 -0.7117 -0.8960  1.5588
13481TIP3    H261859   0.523   2.320   5.245  1.7317  0.0108  0.4844
13482TIP3   OH261860   5.270   3.280   3.415 -0.3417  0.4273  0.3746
13482TIP3    H161861   5.234   3.367   3.396 -1.7654  0.1413  1.5293
13482TIP3    H261862   5.263   3.272   3.510  3.5902  0.6095  0.8115
13483TIP3   OH261863   3.117   1.996  15.045 -0.4442  0.2949  0.1278
13483TIP3    H161864   3.031   2.013  15.006  0.1917  1.6221 -0.7703
13483TIP3    H261865   3.128   1.901  15.037 -2.0972 -0.0003  0.8994
13484TIP3   OH261866   4.863   1.718  12.244  0.1576 -0.0066 -0.5864
13484TIP3    H161867   4.879   1.797  12.193 -0.6930 -0.7072 -2.0392
13484TIP3    H261868   4.893   1.739  12.332  2.5285  0.9726 -1.5400
13485TIP3   OH261869   6.240   6.245   5.850  0.2324 -0.7029 -0.2750
13485TIP3    H161870   6.153   6.211   5.830  0.2268 -1.6716  1.2417
13485TIP3    H261871   6.270   6.192   5.923  1.5954  0.4340  0.0285
13486TIP3   OH261872   6.419   6.200   0.943 -0.3476 -0.3903 -0.6791
13486TIP3    H161873   6.478   6.275   0.929 -0.0374 -0.4006  0.4687
13486TIP3    H261874   6.367   6.195   0.862  1.6203 -0.7504 -2.0054
13487TIP3   OH261875   6.314   1.325   5.844  0.1028  0.2348  0.0121
13487TIP3    H161876   6.370   1.340   5.921 -0.9362 -0.5731  0.9624
13487TIP3    H261877   6.270   1.409   5.831 -1.6616 -0.2990  1.9670
13488TIP3   OH261878   1.531   4.499   6.015  0.4602 -0.0378  0.2376
13488TIP3    H161879   1.533   4.415   6.062 -1.9389 -0.9157 -1.0446
13488TIP3    H261880   1.587   4.484   5.938 -0.4015 -0.6795 -0.2772
13489TIP3   OH261881   0.531   0.539  12.446 -0.1076 -1.1069  0.0869
13489TIP3    H161882   0.480   0.607  12.490 -1.0865 -0.7304 -1.5725
13489TIP3    H261883   0.489   0.528  12.361  2.4833 -0.8710 -1.3202
13490TIP3   OH261884   5.738   5.266  11.386  0.2665 -0.1956 -0.1026
13490TIP3    H161885   5.736   5.242  11.479 -2.1557  0.4429  0.0731
13490TIP3    H261886   5.653   5.239  11.353  0.1324  1.8051 -1.5433
13491TIP3   OH261887   3.783   4.617  13.536 -0.0779  0.6081 -0.2796
13491TIP3    H161888   3.712   4.676  13.512 -2.2123 -1.2546  1.0415
13491TIP3    H261889   3.840   4.615  13.459 -1.5970  1.9614 -1.5024
13492TIP3   OH261890   1.007   2.666  14.073 -0.4233  0.0035 -0.2001
13492TIP3    H161891   0.994   2.741  14.131 -0.9895  0.2510 -0.6314
13492TIP3    H261892   1.044   2.703  13.993  0.2077 -0.3137 -0.0551
13493TIP3   OH261893   3.436   3.457  11.522  0.2849  0.0530  0.4464
13493TIP3    H161894   3.410   3.399  11.593  0.3981 -1.6164 -0.7893
13493TIP3    H261895   3.521   3.491  11.547 -0.3816  0.7829  1.8055
13494TIP3   OH261896   1.112   2.418  12.858  0.4291 -0.7736 -0.0836
13494TIP3    H161897   1.088   2.339  12.908  1.9848 -1.2376 -0.0165
13494TIP3    H261898   1.155   2.384  12.780  3.2483 -0.0673  1.0179
13495TIP3   OH261899   3.335   0.604  16.231 -0.2926  0.6138  0.0734
13495TIP3    H161900   3.344   0.510  16.247  0.2468  0.5469 -0.5700
13495TIP3    H261901   3.346   0.645  16.317 -2.9250 -0.0287  0.8219
13496TIP3   OH261902   5.634   1.868   3.706  0.2009 -0.4024 -0.5452
13496TIP3    H161903   5.634   1.914   3.791  2.3658  1.5768 -1.5001
13496TIP3    H261904   5.550   1.892   3.666 -0.9371 -1.5167  1.0351
13497TIP3   OH261905   5.241   3.756   0.032  0.1832  0.0018 -0.0813
13497TIP3    H161906   5.310   3.758  -0.034  0.9482  1.1118  0.7114
13497TIP3    H261907   5.279   3.707   0.105  1.3091  2.9535  1.4997
13498TIP3   OH261908   5.928   5.029   3.655  0.1383 -0.3257 -0.6863
13498TIP3    H161909   5.881   4.989   3.582 -1.0784 -2.0124  0.9292
13498TIP3    H261910   5.948   4.956   3.714  0.4019  1.0710  1.0381
13499TIP3   OH261911   3.681   0.869   5.746  0.0703  0.1156 -0.3215
13499TIP3    H161912   3.695   0.801   5.812  0.1269  0.7149  0.2979
13499TIP3    H261913   3.694   0.825   5.663  2.2165 -0.1882  0.1193
13500TIP3   OH261914   4.413   4.285   4.030 -0.1651  0.5782  0.2908
13500TIP3    H161915   4.359   4.364   4.036  0.0039  0.6138  1.4792
13500TIP3    H261916   4.423   4.255   4.120  1.0756  0.0695  0.0082
13501TIP3   OH261917   3.289   4.010   0.150  0.0630 -0.4516  0.5841
13501TIP3    H161918   3.350   4.075   0.115 -2.1666  0.9420 -1.0209
13501TIP3    H261919   3.283   3.944   0.082  0.2216 -0.9052  1.0055
13502TIP3   OH261920   6.759   4.548   2.882 -0.4238  0.7571 -0.7264
13502TIP3    H161921   6.671   4.562   2.918 -0.0602  0.7547  0.1938
13502TIP3    H261922   6.755   4.461   2.841 -0.8855  0.8125 -0.8013
13503TIP3   OH261923   5.106   2.888   0.516 -0.0815  0.0217  0.3572
13503TIP3    H161924   5.076   2.965   0.564  0.5239  0.4443  0.0758
13503TIP3    H261925   5.201   2.886   0.531 -0.3453 -1.9397  2.1846
13504TIP3   OH261926   6.363   5.333  14.790 -0.0405 -0.1911  0.1315
13504TIP3    H161927   6.341   5.301  14.702  0.9293  0.3650 -0.3220
13504TIP3    H261928   6.279   5.336  14.835 -0.6871  0.3642 -1.0566
13505TIP3   OH261929   2.698   1.419   2.503 -0.8520  0.0938 -0.1459
13505TIP3    H161930   2.657   1.428   2.589 -0.6427 -1.9709  0.2312
13505TIP3    H261931   2.775   1.476   2.508 -0.4679 -0.4977  1.2981
13506TIP3   OH261932   2.064   6.258  12.969 -0.2146 -0.5571 -0.2703
13506TIP3    H161933   2.112   6.248  13.052 -0.2377 -0.4072 -0.2391
13506TIP3    H261934   1.979   6.217  12.985  0.2602 -1.7209 -0.6428
13507TIP3   OH261935   3.245   5.821   1.779 -0.0820 -0.3236  0.3074
13507TIP3    H161936   3.153   5.826   1.752 -0.2459  0.6825  0.9950
13507TIP3    H261937   3.246   5.760   1.852 -0.4620  0.7694  1.2545
13508TIP3   OH261938   1.442   4.451  11.802  0.1867  0.5936  0.2639
13508TIP3    H161939   1.514   4.420  11.747 -0.7239  1.3137 -1.4104
13508TIP3    H261940   1.432   4.383  11.869  1.6446 -0.0961 -0.1781
13509TIP3   OH261941   0.348   3.590  14.286  0.0044  0.5268  0.3261
13509TIP3    H161942   0.287   3.536  14.235  0.8368  0.8607 -1.0786
13509TIP3    H261943   0.293   3.641  14.345 -0.9344 -0.4251  0.2966
13510TIP3   OH261944   4.852   1.454   5.767  0.1156 -0.2909  0.9589
13510TIP3    H161945   4.837   1.542   5.801 -1.0458  0.0609 -0.3893
13510TIP3    H261946   4.786   1.442   5.699  0.9992 -1.7604  0.2929
13511TIP3   OH261947   2.239   2.368   2.370  0.0691 -0.0640 -0.4633
13511TIP3    H161948   2.154   2.408   2.387  1.0498  1.2185  1.8690
13511TIP3    H261949   2.260   2.320   2.450  1.3595 -0.7309 -1.1576
13512TIP3   OH261950   2.766   2.794   3.095  0.1675  0.3123 -0.8032
13512TIP3    H161951   2.808   2.793   3.181 -0.2758 -0.1440 -0.5854
13512TIP3    H261952   2.721   2.878   3.092  0.6025  0.5473 -0.7969
13513TIP3   OH261953   4.184   1.775   1.133 -0.1141  0.5651  0.4027
13513TIP3    H161954   4.261   1.825   1.106 -0.4772 -0.2774 -2.5693
13513TIP3    H261955   4.204   1.685   1.108 -2.2887  0.4212 -1.0988
13514TIP3   OH261956   3.660   3.716  10.850  0.0677 -0.0324  0.0397
13514TIP3    H161957   3.660   3.700  10.755  0.1402 -0.8764  0.1687
13514TIP3    H261958   3.576   3.681  10.880 -0.0049  0.3405  0.2682
13515TIP3   OH261959   2.498   4.173  12.615  0.2570 -0.0369 -0.4176
13515TIP3    H161960   2.533   4.258  12.588 -0.1041 -0.0159 -0.8300
13515TIP3    H261961   2.540   4.109  12.557  0.7801 -0.1806  0.1102
13516TIP3   OH261962   3.873   4.677   4.552  0.7860  0.0188  0.5171
13516TIP3    H161963   3.876   4.609   4.484 -2.1048  0.6604 -0.3921
13516TIP3    H261964   3.784   4.672   4.586  0.9661  2.3590  1.5007
13517TIP3   OH261965   2.424   3.668   3.852 -0.1826 -0.0992  0.1301
13517TIP3    H161966   2.410   3.722   3.930 -0.2016 -0.9365  0.7274
13517TIP3    H261967   2.376   3.713   3.782  1.0918  1.4798  0.2255
13518TIP3   OH261968   2.852   1.836  13.060  0.7102  1.0171 -0.2471
13518TIP3    H161969   2.888   1.749  13.079 -1.0369  0.4983  0.9143
13518TIP3    H261970   2.889   1.859  12.975  2.5195 -0.1245  0.1735
13519TIP3   OH261971   4.118   6.228   5.125 -0.0877  0.0907  0.2567
13519TIP3    H161972   4.038   6.280   5.128 -0.6038 -0.7445  2.9053
13519TIP3    H261973   4.097   6.155   5.067 -1.0800  0.1588  0.5148
13520TIP3   OH261974   2.412   3.385  15.018  0.0199 -0.3562 -0.2252
13520TIP3    H161975   2.459   3.302  15.018  1.4154  0.4051 -0.1058
13520TIP3    H261976   2.321   3.361  15.003  0.4520 -1.8724 -0.5807
13521TIP3   OH261977   3.968   0.385   2.398 -0.2852 -0.4771 -0.0639
13521TIP3    H161978   3.952   0.291   2.403  1.1943 -0.7262  0.6039
13521TIP3    H261979   3.895   0.424   2.446 -2.7334 -1.0008 -3.0362
13522TIP3   OH261980   6.172   1.028  14.161 -0.4248  0.2029 -0.0990
13522TIP3    H161981   6.156   0.953  14.218  0.5650  1.0913  1.4219
13522TIP3    H261982   6.248   1.072  14.200  0.2954  0.8709 -2.1156
13523TIP3   OH261983   3.177   3.770  11.382 -0.2345  0.0426 -0.1156
13523TIP3    H161984   3.111   3.817  11.331 -0.0090 -0.7208 -1.1280
13523TIP3    H261985   3.213   3.706  11.322 -1.7776 -2.7006  1.6736
13524TIP3   OH261986   1.414   2.283  10.517 -0.3961  0.2486  0.0677
13524TIP3    H161987   1.426   2.277  10.422 -2.0344 -4.4519 -0.0916
13524TIP3    H261988   1.495   2.247  10.553 -0.8080 -0.4600  0.3036
13525TIP3   OH261989   4.542   4.644   6.288 -0.6886  0.5253 -0.5239
13525TIP3    H161990   4.611   4.657   6.224  0.1825 -1.2234  0.0071
13525TIP3    H261991   4.469   4.606   6.239  0.1078 -1.1581 -0.4668
13526TIP3   OH261992   0.610   2.610   3.993  0.1578  0.5609  0.7916
13526TIP3    H161993   0.680   2.562   3.948  1.5427  1.8034  1.5349
13526TIP3    H261994   0.608   2.572   4.081  0.3438  0.9394  0.9629
13527TIP3   OH261995   2.760   2.131  14.406 -0.3879 -0.0849 -0.6978
13527TIP3    H161996   2.744   2.225  14.417  3.8290  0.6850  0.7784
13527TIP3    H261997   2.686   2.089  14.450 -1.9735  2.5346 -0.6509
13528TIP3   OH261998   6.507   3.381  14.710 -0.3474  0.0550  0.2603
13528TIP3    H161999   6.429   3.418  14.669 -0.1925  1.1800  0.9489
13528TIP3    H262000   6.486   3.377  14.803  0.5805  0.8191  0.5148
13529TIP3   OH262001   0.534   6.207  11.613 -0.2942  0.3209 -0.0037
13529TIP3    H162002   0.544   6.112  11.607  0.8735  0.4757 -0.9565
13529TIP3    H262003   0.443   6.223  11.588 -0.1894 -0.4686 -0.9559
13530TIP3   OH262004   3.390   5.665   1.447  0.2764  0.3704 -0.0476
13530TIP3    H162005   3.395   5.574   1.477  1.6533  1.0882  2.1680
13530TIP3    H262006   3.297   5.685   1.447 -0.0092 -0.8650  0.0291
13531TIP3   OH262007   2.226   1.123   5.251 -0.5968 -0.3137  0.0587
13531TIP3    H162008   2.143   1.169   5.264 -0.8313 -0.6135 -0.3654
13531TIP3    H262009   2.203   1.045   5.201 -0.1396 -0.6774  0.3987
13532TIP3   OH262010   4.295   0.760   0.952  0.4038  0.3163 -0.3541
13532TIP3    H162011   4.338   0.724   0.874 -0.1592 -1.8570  0.2706
13532TIP3    H262012   4.256   0.684   0.995 -1.1405  1.7544  0.9237
13533TIP3   OH262013   6.058   6.609   5.531  0.2617  0.0900  0.3820
13533TIP3    H162014   6.036   6.613   5.624  1.7661 -0.8633  0.8089
13533TIP3    H262015   6.140   6.657   5.524  0.8054 -0.8875 -0.2140
13534TIP3   OH262016   5.804   6.077  17.201  0.6298 -0.1999  0.1474
13534TIP3    H162017   5.755   6.135  17.259  0.2505 -1.0436  0.6947
13534TIP3    H262018   5.885   6.058  17.249  0.7045 -0.2087  0.0195
13535TIP3   OH262019   5.066   5.107   0.100 -0.5881 -0.1895 -0.6964
13535TIP3    H162020   5.121   5.169   0.051  0.8211 -1.5396 -0.9239
13535TIP3    H262021   4.977   5.124   0.070 -0.2844  1.8868 -0.5407
13536TIP3   OH262022   1.700   2.423  16.152  0.3765  0.0745 -0.1490
13536TIP3    H162023   1.729   2.352  16.210 -1.1811 -0.4345  0.0567
13536TIP3    H262024   1.658   2.378  16.079 -0.2250  0.7706 -0.2446
13537TIP3   OH262025   6.259   6.235  16.302 -0.5606  0.8281  0.2060
13537TIP3    H162026   6.274   6.223  16.208 -1.3557 -0.8124  0.2565
13537TIP3    H262027   6.346   6.254  16.337  0.2235 -1.1211 -0.5246
13538TIP3   OH262028   3.965   4.934  17.014 -0.1717 -0.2091 -0.0180
13538TIP3    H162029   4.054   4.962  16.990 -0.0427 -1.9999 -1.9684
13538TIP3    H262030   3.978   4.881  17.093  0.3535  0.3780  0.2976
13539TIP3   OH262031   6.285   2.804   2.253  0.1267  0.2806 -0.2592
13539TIP3    H162032   6.284   2.856   2.334 -1.3375  1.4819 -0.9939
13539TIP3    H262033   6.266   2.715   2.282 -0.4794  0.7060  0.7251
13540TIP3   OH262034   5.497   3.449  16.579 -0.1181  0.2193  0.3916
13540TIP3    H162035   5.512   3.425  16.671 -3.2776 -1.9829  0.4864
13540TIP3    H262036   5.418   3.501  16.581 -1.7493 -2.0054 -1.1907
13541TIP3   OH262037   5.793   3.640  12.231 -0.3464  0.4535 -0.0238
13541TIP3    H162038   5.788   3.692  12.312 -1.0242 -0.1936  0.3665
13541TIP3    H262039   5.782   3.703  12.161 -2.0605  0.7463  0.4632
13542TIP3   OH262040   2.763   4.533  13.571  0.2109  0.1784 -0.0732
13542TIP3    H162041   2.842   4.511  13.621  1.0282  0.1140 -1.3454
13542TIP3    H262042   2.782   4.619  13.533 -0.2560  0.0850 -0.5332
13543TIP3   OH262043   4.441   1.393   5.639 -0.1100  0.2537  0.5102
13543TIP3    H162044   4.421   1.301   5.621 -0.2001  0.0951  1.4035
13543TIP3    H262045   4.524   1.408   5.594  0.4579 -0.5752  1.2448
13544TIP3   OH262046   2.711   5.665   1.648 -0.2723 -0.1893  0.6903
13544TIP3    H162047   2.618   5.671   1.670 -0.8064  0.8485 -1.5545
13544TIP3    H262048   2.737   5.577   1.675 -2.8415 -1.8250 -1.6904
13545TIP3   OH262049   2.476   1.541   0.678  0.4608  0.2015  0.0651
13545TIP3    H162050   2.477   1.534   0.773 -0.9415  1.0899  0.1702
13545TIP3    H262051   2.509   1.629   0.660  2.1527 -0.4915 -0.3688
13546TIP3   OH262052   0.643   0.605  15.895 -0.3450 -0.0996  0.6743
13546TIP3    H162053   0.659   0.512  15.915  1.6357  0.0539  0.0238
13546TIP3    H262054   0.689   0.619  15.812 -0.9376  1.3770  0.5841
13547TIP3   OH262055   3.471   5.747  10.793 -0.4020 -0.1782  0.0789
13547TIP3    H162056   3.450   5.819  10.734  1.7982  1.6652  1.3750
13547TIP3    H262057   3.531   5.692  10.744 -0.9998 -0.3774 -0.4391
13548TIP3   OH262058   1.326   6.745   2.914  0.2820  0.5472 -0.2403
13548TIP3    H162059   1.362   6.724   3.001 -2.3228  2.7180  1.5444
13548TIP3    H262060   1.244   6.697   2.910  1.2732 -1.1218 -2.4874
13549TIP3   OH262061   1.285   6.077   1.254 -0.0017  0.3515 -0.0537
13549TIP3    H162062   1.215   6.093   1.317  0.1364  0.3314  0.1061
13549TIP3    H262063   1.288   5.982   1.245  1.8031  0.1484  2.0121
13550TIP3   OH262064   0.473   5.031  14.526 -0.4339  0.5425  0.4550
13550TIP3    H162065   0.419   5.036  14.447  0.9941 -0.3167 -0.6267
13550TIP3    H262066   0.468   4.939  14.552 -0.0671  0.6092  0.7609
13551TIP3   OH262067   3.459   0.739  12.926 -0.1873  0.0538  0.4329
13551TIP3    H162068   3.466   0.818  12.981  1.1494  0.9507 -0.9478
13551TIP3    H262069   3.548   0.707  12.919 -0.3408 -0.0809 -1.1283
13552TIP3   OH262070   2.978   2.605   2.362 -0.2718  0.3085 -0.3849
13552TIP3    H162071   2.904   2.546   2.351 -0.8633  1.1547 -1.1300
13552TIP3    H262072   2.984   2.619   2.456 -0.0243 -1.0328 -0.1869
13553TIP3   OH262073   4.891   5.615  12.608 -0.2755  0.3441 -0.2414
13553TIP3    H162074   4.812   5.575  12.642 -0.3643  0.3969 -0.3848
13553TIP3    H262075   4.922   5.672  12.679 -0.0688 -0.0858  0.0154
13554TIP3   OH262076   0.007   2.604   0.091  0.2895  0.2210  0.4494
13554TIP3    H162077   0.064   2.672   0.054 -1.4957  0.8734 -1.3040
13554TIP3    H262078  -0.080   2.643   0.091 -0.8400 -2.0551 -0.7360
13555TIP3   OH262079   5.979   6.344  14.063 -0.2289  0.1549 -0.3004
13555TIP3    H162080   5.993   6.383  14.149 -1.1985  2.0423 -0.9304
13555TIP3    H262081   6.066   6.314  14.036  0.8180  2.7040 -0.0872
13556TIP3   OH262082   3.936   5.231   1.600 -0.4705  0.0558  0.3673
13556TIP3    H162083   4.012   5.193   1.645 -1.2470 -2.0839  0.0044
13556TIP3    H262084   3.895   5.287   1.665 -0.2537 -1.1417  1.5695
13557TIP3   OH262085   4.277   5.912   4.707 -0.1764  0.2089 -0.0254
13557TIP3    H162086   4.227   5.928   4.627  3.1725 -1.2076 -2.6314
13557TIP3    H262087   4.301   5.819   4.702 -1.8175 -0.6841  4.0100
13558TIP3   OH262088   0.435   2.996  12.730  0.4491 -0.1805 -0.3227
13558TIP3    H162089   0.515   3.026  12.686 -0.0838 -0.2666 -1.3863
13558TIP3    H262090   0.383   2.955  12.660 -0.9901  0.8015  0.1319
13559TIP3   OH262091   3.609   3.909  14.579 -0.2132  0.0747  0.2199
13559TIP3    H162092   3.672   3.977  14.605 -1.0057  0.8858  0.0655
13559TIP3    H262093   3.663   3.839  14.543  0.5691  1.0015 -0.4492
13560TIP3   OH262094   4.401   1.091   3.096 -0.4484 -0.0321  0.1498
13560TIP3    H162095   4.329   1.145   3.127 -0.2180  0.4872 -0.1995
13560TIP3    H262096   4.469   1.101   3.162 -0.3811  0.1597  0.0519
13561TIP3   OH262097   5.409   5.364   4.659  0.1770  0.1071  0.2364
13561TIP3    H162098   5.316   5.338   4.658  0.3986 -0.7211  0.3236
13561TIP3    H262099   5.410   5.447   4.706 -0.6196  0.5101 -0.4301
13562TIP3   OH262100   1.543   6.270   3.788  0.2322 -0.7325 -0.4226
13562TIP3    H162101   1.539   6.327   3.865  2.1142 -1.3361  0.1701
13562TIP3    H262102   1.482   6.310   3.726  1.0747  1.6172  0.1735
13563TIP3   OH262103   2.280   6.211  16.338 -0.1985  0.4660  0.0287
13563TIP3    H162104   2.363   6.204  16.384  1.4357 -1.3653 -2.8934
13563TIP3    H262105   2.280   6.300  16.301 -0.5815  1.2083  1.7311
13564TIP3   OH262106   3.195   4.654   6.185 -0.0999  0.0315 -0.0701
13564TIP3    H162107   3.261   4.714   6.149  2.6164 -1.7399  1.5601
13564TIP3    H262108   3.146   4.624   6.109  1.1416  1.2282 -1.4134
13565TIP3   OH262109   4.118   0.578   1.761 -0.6375 -0.1293 -0.7065
13565TIP3    H162110   4.176   0.502   1.768 -0.5556 -0.0098  0.0747
13565TIP3    H262111   4.178   0.651   1.744 -0.0161  0.6105  3.5311
13566TIP3   OH262112   3.790   1.638  16.362  0.1041  0.7411 -0.3695
13566TIP3    H162113   3.729   1.647  16.435  0.1491 -1.1808 -0.0285
13566TIP3    H262114   3.740   1.594  16.294  0.5253  1.0625 -0.8949
13567TIP3   OH262115   6.199   5.678  11.949 -0.0800  0.0150 -0.5973
13567TIP3    H162116   6.272   5.626  11.914  0.0471  0.3365 -0.8192
13567TIP3    H262117   6.221   5.769  11.926  1.1911  0.5536  2.3686
13568TIP3   OH262118   4.553   4.064   3.386  0.5736  0.4746  0.0171
13568TIP3    H162119   4.609   4.011   3.330  0.7657  1.6548 -0.9393
13568TIP3    H262120   4.565   4.153   3.355 -0.3546  0.9914  1.0702
13569TIP3   OH262121   4.632   2.817   0.667  0.0533 -0.5602  0.3088
13569TIP3    H162122   4.560   2.880   0.663  0.9396  0.5561  1.1892
13569TIP3    H262123   4.673   2.821   0.581  1.3720  1.6840  0.9562
13570TIP3   OH262124   4.770   1.760  16.392 -0.5016 -1.2963 -0.3403
13570TIP3    H162125   4.679   1.776  16.366 -0.5156  0.8635  0.7940
13570TIP3    H262126   4.764   1.685  16.451 -1.6427 -0.8632  0.1350
13571TIP3   OH262127   0.141   3.158   2.887 -0.2324  0.0850 -0.1058
13571TIP3    H162128   0.186   3.184   2.807 -0.4026  0.5458 -0.0526
13571TIP3    H262129   0.081   3.230   2.906  0.1498  0.2007  0.7065
13572TIP3   OH262130   5.434   0.403   1.468  0.1895 -0.2296 -0.4815
13572TIP3    H162131   5.465   0.322   1.508 -0.6004 -0.7934 -0.9703
13572TIP3    H262132   5.359   0.376   1.414 -0.6409  0.9498  0.0307
13573TIP3   OH262133   1.701   0.112  17.080 -0.3304  0.0700 -0.5086
13573TIP3    H162134   1.629   0.175  17.088  0.4050  0.8030  0.5324
13573TIP3    H262135   1.767   0.157  17.029  0.2770  0.2461  0.3997
13574TIP3   OH262136   4.297   6.186   1.715 -0.1004 -0.1417  0.3564
13574TIP3    H162137   4.215   6.174   1.667 -0.5171  1.1798  0.6916
13574TIP3    H262138   4.269   6.208   1.804  0.6496 -1.2658  0.8953
13575TIP3   OH262139   5.701   4.238   1.046  0.0808  0.2734 -0.1223
13575TIP3    H162140   5.749   4.243   1.129  0.2873 -1.6151 -0.0751
13575TIP3    H262141   5.763   4.197   0.985 -0.5594  0.3148 -0.8147
13576TIP3   OH262142   6.179   5.052  11.918 -0.2399  0.2810  0.0952
13576TIP3    H162143   6.238   5.020  11.987 -1.5192 -0.4144  0.9192
13576TIP3    H262144   6.124   5.117  11.963 -1.2845 -0.3982 -0.1771
13577TIP3   OH262145   5.350   1.615   2.322  0.0196 -0.2071 -0.0260
13577TIP3    H162146   5.434   1.605   2.278  0.9032  1.1070  1.2194
13577TIP3    H262147   5.361   1.570   2.406 -0.2353  0.5700  0.4444
13578TIP3   OH262148   3.659   2.398   2.799  0.6436 -0.2018  0.2020
13578TIP3    H162149   3.660   2.353   2.715  0.3857 -2.8975  1.5471
13578TIP3    H262150   3.658   2.328   2.865 -0.7971  1.7552  2.4517
13579TIP3   OH262151   1.823   0.610   4.054  0.0290 -0.6067 -0.1174
13579TIP3    H162152   1.918   0.617   4.045 -0.0245 -0.4953 -0.5996
13579TIP3    H262153   1.791   0.700   4.054 -0.0755 -0.6422  0.0840
13580TIP3   OH262154   4.964   0.878   5.942 -1.0580 -0.1051  0.1739
13580TIP3    H162155   4.912   0.838   6.011 -1.4550 -1.0720 -0.6519
13580TIP3    H262156   4.953   0.972   5.953 -1.4784 -0.2641  1.1352
13581TIP3   OH262157   1.288   4.680  13.413  0.0819  0.2037 -0.9319
13581TIP3    H162158   1.282   4.775  13.422  0.4705  0.1184  0.5035
13581TIP3    H262159   1.296   4.665  13.319  0.6808  1.6255 -1.1294
13582TIP3   OH262160   4.794   3.821   0.913  0.6047  0.4903  0.0762
13582TIP3    H162161   4.767   3.819   0.821  1.2478  0.2604 -0.1162
13582TIP3    H262162   4.819   3.730   0.932  2.2484  0.8955 -0.0726
13583TIP3   OH262163   5.367   4.533   3.168 -0.1748  0.0260  0.0619
13583TIP3    H162164   5.368   4.443   3.136  2.3443  0.9885 -3.0861
13583TIP3    H262165   5.458   4.562   3.163 -0.6713  2.3990  2.2639
13584TIP3   OH262166   6.632   5.057  13.183  0.2449  0.1410  0.0404
13584TIP3    H162167   6.620   4.984  13.122 -1.2687 -0.0507  0.5387
13584TIP3    H262168   6.697   5.113  13.140 -0.3112 -0.3127 -1.4561
13585TIP3   OH262169   3.233   6.529  16.498 -0.5370 -0.2113 -0.3319
13585TIP3    H162170   3.198   6.481  16.573  1.2461 -0.8104  0.1483
13585TIP3    H262171   3.190   6.489  16.422 -1.0057 -0.8196  0.2425
13586TIP3   OH262172   2.563   3.038  12.950  0.1866  0.2515 -0.0037
13586TIP3    H162173   2.617   3.115  12.967  1.1026 -0.5343  0.8002
13586TIP3    H262174   2.573   3.021  12.857 -2.1686  2.6361 -0.7934
13587TIP3   OH262175   0.707   2.204   1.502 -0.0863  0.1630  0.7043
13587TIP3    H162176   0.663   2.275   1.456 -2.2045 -0.2322  1.9269
13587TIP3    H262177   0.635   2.154   1.542  1.4514 -1.3119  1.7936
13588TIP3   OH262178   5.205   5.955   5.413 -0.0651 -0.0577  0.0949
13588TIP3    H162179   5.285   5.950   5.360 -0.2174 -0.1421 -0.1302
13588TIP3    H262180   5.134   5.944   5.350 -0.2509 -0.1285  0.3144
13589TIP3   OH262181   5.523   6.121  11.809  0.2756  0.3737  0.1468
13589TIP3    H162182   5.540   6.076  11.726 -0.1381 -0.5856  0.5787
13589TIP3    H262183   5.451   6.181  11.789  1.3435  1.4592 -0.6321
13590TIP3   OH262184   2.015   3.478  11.785  0.1343 -0.1410  0.4035
13590TIP3    H162185   2.045   3.424  11.712 -0.3225  0.6409 -0.3737
13590TIP3    H262186   1.983   3.558  11.745  2.1238  1.3660  1.6433
13591TIP3   OH262187   2.905   3.380  12.832 -0.0410  0.1607 -0.4615
13591TIP3    H162188   2.958   3.363  12.754  3.7361  2.5407  1.2716
13591TIP3    H262189   2.875   3.294  12.861  3.6979 -1.5868 -1.1887
13592TIP3   OH262190   3.528   3.982  15.457 -0.4842 -0.3935  0.2064
13592TIP3    H162191   3.556   4.068  15.425  0.4729 -0.5755  0.5374
13592TIP3    H262192   3.601   3.923  15.438 -0.7891 -0.9606  0.7346
13593TIP3   OH262193   3.711   5.470  11.882  0.1722  0.7593  0.1132
13593TIP3    H162194   3.799   5.434  11.886  1.1945  2.9604 -1.0057
13593TIP3    H262195   3.704   5.509  11.795 -0.8035  3.2087  1.1951
13594TIP3   OH262196   4.691   4.262   2.452 -0.5065  0.3221 -0.4427
13594TIP3    H162197   4.786   4.261   2.456 -0.5199  1.2293  0.3115
13594TIP3    H262198   4.663   4.266   2.544 -1.2020  2.7778 -0.6965
13595TIP3   OH262199   0.252   5.181  14.384  0.3787  0.2166  0.6856
13595TIP3    H162200   0.164   5.181  14.422 -0.9074  1.4821 -2.0521
13595TIP3    H262201   0.306   5.224  14.451 -0.8192 -1.3909  2.8076
13596TIP3   OH262202   4.085   1.082   0.020 -0.8012  0.7034 -0.1478
13596TIP3    H162203   4.118   1.136  -0.052  0.5113 -0.7445 -0.7088
13596TIP3    H262204   4.140   1.105   0.095 -0.8687  0.8176 -0.1334
13597TIP3   OH262205   0.259   0.407  16.737 -0.1281  0.0984  0.1160
13597TIP3    H162206   0.266   0.436  16.646 -0.1261  2.5074  0.7874
13597TIP3    H262207   0.340   0.360  16.754  0.0338 -0.0609 -1.0171
13598TIP3   OH262208   4.494   3.968  11.479 -0.0346  0.1611 -0.1542
13598TIP3    H162209   4.428   3.909  11.517 -0.3522  0.8429  0.3751
13598TIP3    H262210   4.481   3.960  11.384 -0.4814 -0.1644 -0.0718
13599TIP3   OH262211   2.318   3.881  12.022 -0.0603 -0.2963  0.0858
13599TIP3    H162212   2.264   3.954  12.055 -1.2113 -0.2645 -1.7746
13599TIP3    H262213   2.255   3.817  11.989  0.9693 -1.8046  0.9225
13600TIP3   OH262214   1.213   6.076  17.176 -0.0603  0.1466 -0.2407
13600TIP3    H162215   1.167   6.123  17.245  0.7955 -0.9098  1.0964
13600TIP3    H262216   1.144   6.044  17.118 -0.7260  1.9153 -0.4711
13601TIP3   OH262217   2.395   3.923  11.480  0.3631 -0.2342 -0.0736
13601TIP3    H162218   2.458   3.988  11.448 -0.1600 -0.2213 -1.1140
13601TIP3    H262219   2.416   3.844  11.431 -1.4892  0.2215 -1.7131
13602TIP3   OH262220   1.010   5.930  11.207 -0.6269 -0.1971  0.0268
13602TIP3    H162221   1.023   5.950  11.114 -0.3936  2.2118  0.5029
13602TIP3    H262222   0.930   5.878  11.209 -1.2012  0.5736 -1.4525
13603TIP3   OH262223   4.880   3.504   0.133 -0.6026  0.4285  0.1048
13603TIP3    H162224   4.930   3.563   0.078  0.0900 -0.0761  0.1861
13603TIP3    H262225   4.938   3.482   0.206 -0.9461 -0.1330  0.2230
13604TIP3   OH262226   3.749   6.146  15.567  0.5493 -0.0000 -0.1110
13604TIP3    H162227   3.834   6.190  15.563  0.9249 -0.6679  0.3395
13604TIP3    H262228   3.740   6.104  15.482 -0.6660  2.4257 -1.3028
13605TIP3   OH262229   2.628   0.021   1.446  0.6462 -0.6053  0.5404
13605TIP3    H162230   2.580  -0.016   1.520  0.9458 -0.3537  0.8618
13605TIP3    H262231   2.606  -0.037   1.372 -1.3727  0.3597  0.3134
13606TIP3   OH262232   1.977   4.078  14.675  0.6841 -0.4595 -0.1232
13606TIP3    H162233   2.054   4.133  14.687  0.0451  0.4834 -0.1909
13606TIP3    H262234   1.978   4.018  14.749  1.9007 -0.9798 -0.5517
13607TIP3   OH262235   3.075   2.060   3.107  0.0187 -0.4642 -0.0242
13607TIP3    H162236   3.083   2.140   3.159  2.7269 -1.3021  1.0340
13607TIP3    H262237   2.995   2.072   3.056 -0.5071  2.2076  1.2681
13608TIP3   OH262238   3.921   4.462   2.457  0.2183  0.7295 -0.1493
13608TIP3    H162239   3.906   4.372   2.428  0.1900  0.6665  0.0611
13608TIP3    H262240   3.835   4.493   2.485  0.3583  0.5741  0.4733
13609TIP3   OH262241   4.424   4.599   4.748  0.2857 -0.7670 -0.1276
13609TIP3    H162242   4.341   4.576   4.705  0.3041  0.0665 -0.6308
13609TIP3    H262243   4.400   4.610   4.840 -0.6157  1.4088 -0.5461
13610TIP3   OH262244   2.707   0.227   3.545 -0.4961  0.7706  0.3038
13610TIP3    H162245   2.727   0.273   3.627  0.9892 -0.7946  0.8719
13610TIP3    H262246   2.667   0.145   3.572  1.0107 -0.2624 -0.4239
13611TIP3   OH262247   5.348   5.908  14.693 -0.1425 -0.1202  0.2828
13611TIP3    H162248   5.269   5.942  14.734 -0.4038 -2.0442  1.5328
13611TIP3    H262249   5.371   5.831  14.746  1.9895 -0.2020 -0.6501
13612TIP3   OH262250   5.168   4.270   1.019 -0.0176 -0.4832  0.0743
13612TIP3    H162251   5.207   4.291   0.934 -0.4557  0.4329  0.0911
13612TIP3    H262252   5.084   4.231   0.997 -0.0400 -0.4420  0.0871
13613TIP3   OH262253   1.329   2.947  13.720 -0.2853 -0.1844 -0.1160
13613TIP3    H162254   1.247   2.983  13.755  0.3060 -0.7778  2.0761
13613TIP3    H262255   1.302   2.899  13.642 -1.8375  0.6920 -0.1672
13614TIP3   OH262256   2.304   1.170   6.062 -0.1121 -0.6089 -0.1422
13614TIP3    H162257   2.387   1.206   6.031 -0.0281 -0.4085  0.3128
13614TIP3    H262258   2.323   1.138   6.150 -0.2748 -1.4382 -0.3914
13615TIP3   OH262259   3.432   5.013   0.619  0.4345  0.8276  0.5808
13615TIP3    H162260   3.372   5.049   0.685 -0.4884 -0.0103  0.2210
13615TIP3    H262261   3.472   4.938   0.662 -2.0337 -1.2989 -0.5283
13616TIP3   OH262262   5.909   4.579   1.970 -0.2771 -0.2364 -0.1605
13616TIP3    H162263   5.833   4.566   2.026 -0.8730  1.7224 -0.4422
13616TIP3    H262264   5.950   4.659   2.004 -0.0417  0.3782 -1.7945
13617TIP3   OH262265   1.338   6.280   1.916  0.2128 -0.0315  0.0468
13617TIP3    H162266   1.357   6.211   1.852 -0.0725  0.1030 -0.1823
13617TIP3    H262267   1.252   6.258   1.951  1.2030 -1.2460  1.8780
13618TIP3   OH262268   6.234   6.545  15.002 -0.0317  0.7010  0.0186
13618TIP3    H162269   6.246   6.579  15.091 -0.5277 -1.8208  1.1159
13618TIP3    H262270   6.238   6.450  15.011 -1.4187  0.3177 -2.4724
13619TIP3   OH262271   5.939   4.336   0.371  0.0005  0.2272  0.6647
13619TIP3    H162272   5.965   4.301   0.456  0.3506  1.5346  1.1348
13619TIP3    H262273   5.848   4.309   0.360 -0.1230  0.2353  1.5764
13620TIP3   OH262274   4.114   0.031  16.424 -0.3046  0.3117 -0.0958
13620TIP3    H162275   4.167   0.075  16.490  1.0664  0.9495 -1.5556
13620TIP3    H262276   4.162   0.044  16.342 -1.2972 -1.5329 -1.0297
13621TIP3   OH262277   1.982   6.396  16.369  0.1628 -0.4638  0.6113
13621TIP3    H162278   1.889   6.390  16.351 -0.0799  1.4756  1.0018
13621TIP3    H262279   2.014   6.306  16.362 -1.5793 -1.0508 -0.2738
13622TIP3   OH262280   4.952   2.908   2.651 -0.1524 -0.1651  0.0033
13622TIP3    H162281   4.951   2.853   2.729  1.5431  1.5986  1.3485
13622TIP3    H262282   4.989   2.852   2.583 -0.5279 -1.3608  0.7435
13623TIP3   OH262283   6.227   2.688  17.134  0.3222 -0.1978  0.4405
13623TIP3    H162284   6.303   2.705  17.190  0.3108  1.0417  0.1036
13623TIP3    H262285   6.257   2.623  17.071  1.3848  0.9040 -0.2301
13624TIP3   OH262286   5.683   4.136   1.529  0.0497  0.4053 -0.3905
13624TIP3    H162287   5.638   4.172   1.605 -1.9244  0.4768 -1.5441
13624TIP3    H262288   5.707   4.212   1.476 -0.8123  0.2401 -1.0316
13625TIP3   OH262289   6.607   1.338   0.416 -0.0750  0.5490 -0.5440
13625TIP3    H162290   6.587   1.255   0.458 -0.2497  0.2079 -1.2819
13625TIP3    H262291   6.523   1.369   0.383  0.2257  0.2349 -1.6470
13626TIP3   OH262292   2.438   4.614  15.640 -0.0341 -0.6344 -0.0499
13626TIP3    H162293   2.427   4.693  15.692 -1.8793 -0.7915 -0.1278
13626TIP3    H262294   2.376   4.623  15.568 -0.8254 -2.4469  0.3393
13627TIP3   OH262295   0.779   1.690   2.928  0.2275  0.1101  0.0212
13627TIP3    H162296   0.818   1.616   2.880  4.0454  1.2782  0.9602
13627TIP3    H262297   0.705   1.651   2.976 -0.0674 -2.2852 -2.1611
13628TIP3   OH262298   4.441   4.233   5.702  0.0259 -0.3336 -0.1860
13628TIP3    H162299   4.407   4.205   5.787  1.6497  0.5283  0.7927
13628TIP3    H262300   4.427   4.327   5.700 -2.6237 -0.6725 -2.1635
13629TIP3   OH262301   5.605   6.321   5.442 -0.2424  0.1874  0.8816
13629TIP3    H162302   5.690   6.355   5.468  0.1747 -0.1099 -0.0342
13629TIP3    H262303   5.622   6.275   5.359 -1.4670  0.9811  0.1544
13630TIP3   OH262304   4.757   4.957  15.408  0.0452 -0.0528 -0.0216
13630TIP3    H162305   4.709   5.034  15.439  0.2008  0.0220  0.0361
13630TIP3    H262306   4.796   4.985  15.325  1.0034  0.2882  0.5284
13631TIP3   OH262307   6.529   0.829   4.252 -0.4892  0.0207  0.3032
13631TIP3    H162308   6.492   0.897   4.196 -0.2292  1.4849  1.8228
13631TIP3    H262309   6.587   0.875   4.312  3.2890 -2.0811 -1.4092
13632TIP3   OH262310   5.366   1.284  14.266  0.7106 -0.4279  0.1791
13632TIP3    H162311   5.419   1.354  14.227  1.5695 -0.3880  1.3866
13632TIP3    H262312   5.352   1.222  14.194 -0.5994  1.2360 -1.1069
13633TIP3   OH262313   3.098   3.813   2.453 -0.1278 -0.4283 -0.2383
13633TIP3    H162314   3.032   3.879   2.474  0.7929  1.0320 -1.6710
13633TIP3    H262315   3.048   3.740   2.417 -1.0029  0.5891 -1.1593
13634TIP3   OH262316   0.541   0.904  12.429 -0.1829  0.2880  0.6912
13634TIP3    H162317   0.558   0.997  12.444  0.7096  0.2063  0.2362
13634TIP3    H262318   0.473   0.902  12.363 -0.7123  0.6170  1.2200
13635TIP3   OH262319   4.913   4.259   5.194 -0.1881 -0.0286  0.0908
13635TIP3    H162320   4.821   4.231   5.189 -0.3719  0.6989 -1.0983
13635TIP3    H262321   4.908   4.353   5.213  0.2868  0.1413 -0.5875
13636TIP3   OH262322   4.063   5.854  14.075  0.3761 -0.7237  0.2771
13636TIP3    H162323   4.008   5.932  14.071 -1.0836 -1.7161  0.0231
13636TIP3    H262324   4.102   5.848  13.988  0.1505 -0.5143  0.1602
13637TIP3   OH262325   4.665   1.259  15.009  0.0211  0.5907 -0.4273
13637TIP3    H162326   4.652   1.343  14.965 -1.2260 -0.3717 -2.0321
13637TIP3    H262327   4.730   1.213  14.956 -0.6634 -0.1518 -0.6518
13638TIP3   OH262328   4.080   3.753   0.089  0.3354  0.1145  0.0173
13638TIP3    H162329   4.155   3.809   0.072  1.0291 -1.4197 -2.4092
13638TIP3    H262330   4.008   3.794   0.042  1.1468 -1.5515 -2.9416
13639TIP3   OH262331   5.904   1.981  16.277  0.3198 -0.4818  0.1773
13639TIP3    H162332   5.839   1.945  16.337  1.0269 -1.2431  0.5155
13639TIP3    H262333   5.871   2.068  16.255 -0.6604 -0.7429  0.5585
13640TIP3   OH262334   2.970   4.572  11.243 -0.3172  0.3102 -0.3683
13640TIP3    H162335   2.907   4.631  11.285  0.9575  1.1777  0.3753
13640TIP3    H262336   3.042   4.565  11.306  0.0581 -1.1850 -0.9172
13641TIP3   OH262337   4.844   4.753  16.133 -0.5497 -0.8435 -0.5026
13641TIP3    H162338   4.930   4.712  16.135 -0.4271 -0.5752  0.0361
13641TIP3    H262339   4.860   4.845  16.153 -0.9634 -0.8034 -0.3273
13642TIP3   OH262340   2.633   1.428   1.060 -0.0678  0.0552  0.5998
13642TIP3    H162341   2.717   1.398   1.025  0.5289  0.2734  1.7839
13642TIP3    H262342   2.624   1.382   1.143 -0.6357  0.7919  0.9606
13643TIP3   OH262343   2.807   1.523   5.559  0.1391  0.0768 -0.5923
13643TIP3    H162344   2.746   1.452   5.539  0.3532 -0.3565  0.2371
13643TIP3    H262345   2.790   1.543   5.651  0.5957  0.6052 -0.6162
13644TIP3   OH262346   4.010   6.548   4.163 -0.2477  0.1493 -0.3966
13644TIP3    H162347   3.961   6.469   4.142 -0.0334  0.4120 -1.9991
13644TIP3    H262348   4.059   6.569   4.083 -2.8040  3.7556 -1.2726
13645TIP3   OH262349   3.085   5.751  14.478 -0.0479  0.0994  0.2253
13645TIP3    H162350   3.035   5.673  14.499  1.1545 -1.4571 -2.1417
13645TIP3    H262351   3.140   5.766  14.554 -2.1901  0.3248  1.8119
13646TIP3   OH262352   4.583   3.419   1.757  0.2749  0.3846 -0.5357
13646TIP3    H162353   4.651   3.486   1.763  0.9911 -0.3778 -0.0014
13646TIP3    H262354   4.506   3.460   1.798  0.9809  0.5311  0.6985
13647TIP3   OH262355   1.704   5.007   4.448 -0.4939 -0.1524  0.2372
13647TIP3    H162356   1.670   5.024   4.536 -2.2776 -0.0630 -0.4280
13647TIP3    H262357   1.713   4.912   4.444  1.1921 -0.0664  1.0393
13648TIP3   OH262358   4.325   6.350  14.483 -0.7122 -0.1202 -0.1533
13648TIP3    H162359   4.384   6.308  14.420 -1.1448 -1.4782  0.3080
13648TIP3    H262360   4.351   6.442  14.483  1.9563 -0.7912  0.6516
13649TIP3   OH262361   6.122   1.642   4.489 -0.0086 -0.5694 -0.3068
13649TIP3    H162362   6.032   1.618   4.508 -0.1618 -0.7981 -1.2391
13649TIP3    H262363   6.117   1.730   4.452  0.2619 -0.1796  0.5728
13650TIP3   OH262364   0.138   5.289  15.778 -0.2028 -0.1654  0.4659
13650TIP3    H162365   0.167   5.201  15.803  1.0037 -0.3520 -1.3220
13650TIP3    H262366   0.107   5.279  15.688  0.8934  1.3956 -0.1270
13651TIP3   OH262367   1.572   4.812   0.716  0.5958 -0.2809  0.4622
13651TIP3    H162368   1.594   4.770   0.632  1.3669  1.4846 -0.2840
13651TIP3    H262369   1.630   4.770   0.779 -1.8389 -3.5907  0.7863
13652TIP3   OH262370   4.276   3.257   1.488  0.9417  0.7741 -0.5704
13652TIP3    H162371   4.366   3.264   1.519  1.2408  0.2359 -1.2949
13652TIP3    H262372   4.278   3.186   1.423 -0.2496 -0.0852  0.2933
13653TIP3   OH262373   0.321   3.884  15.534  0.3977 -0.3168 -0.2478
13653TIP3    H162374   0.238   3.918  15.568  1.1942  0.2456  1.2411
13653TIP3    H262375   0.365   3.961  15.499 -0.0760 -0.7681 -1.9362
13654TIP3   OH262376   0.584   2.844  15.118  0.1005 -0.2910  0.0166
13654TIP3    H162377   0.650   2.875  15.057 -1.7381  1.2877 -1.2782
13654TIP3    H262378   0.629   2.840  15.203  2.3256 -1.1811 -1.1353
13655TIP3   OH262379   4.995   3.674  12.982  0.0419 -0.0022  0.3954
13655TIP3    H162380   5.081   3.633  12.974  1.2042  2.0630  1.2221
13655TIP3    H262381   5.005   3.759  12.938 -2.3468 -0.6378 -1.5860
13656TIP3   OH262382   6.272   6.658  15.244  0.3259 -0.3385 -0.2571
13656TIP3    H162383   6.282   6.620  15.331 -0.1082  1.8550  0.8013
13656TIP3    H262384   6.348   6.716  15.234 -0.8059  1.1943 -0.3410
13657TIP3   OH262385   1.667   6.362   0.552 -0.3316  0.8433 -0.5018
13657TIP3    H162386   1.649   6.272   0.527  0.1644  0.8466 -0.9044
13657TIP3    H262387   1.711   6.400   0.475 -0.0698  1.2727 -0.1485
13658TIP3   OH262388   1.671   1.234   5.322 -0.5670 -0.3928  0.2479
13658TIP3    H162389   1.608   1.280   5.377 -0.5865  1.1816 -1.0246
13658TIP3    H262390   1.618   1.176   5.268 -0.9259  0.6538 -0.5577
13659TIP3   OH262391   3.736   0.596   4.057  0.1049  0.6328 -0.0890
13659TIP3    H162392   3.738   0.665   3.990 -0.9488 -0.1752 -0.9803
13659TIP3    H262393   3.677   0.530   4.023  1.6691 -1.1237  0.3849
13660TIP3   OH262394   1.411   5.416  15.472  0.4129  0.0255 -0.1380
13660TIP3    H162395   1.405   5.471  15.394 -0.7169  0.6683  0.3786
13660TIP3    H262396   1.339   5.446  15.528  0.7201 -0.9570  0.8112
13661TIP3   OH262397   0.538   1.756   5.341  0.6080 -0.6722 -0.6870
13661TIP3    H162398   0.471   1.777   5.275 -0.7423  0.1633  0.8703
13661TIP3    H262399   0.529   1.662   5.355  0.4763 -0.7468 -1.2499
13662TIP3   OH262400   5.884   6.531   5.249  0.0679 -0.3670  0.0221
13662TIP3    H162401   5.955   6.501   5.306 -0.2405  2.2327  1.9515
13662TIP3    H262402   5.920   6.606   5.202 -0.1143 -1.6659 -2.3013
13663TIP3   OH262403   0.039   5.367  10.515  0.1532  0.0034  0.4048
13663TIP3    H162404  -0.035   5.421  10.486  0.3064  0.1899  0.3625
13663TIP3    H262405   0.100   5.369  10.442  0.9678  1.2431  1.0843
13664TIP3   OH262406   4.426   3.422   4.215  0.3647 -0.0272  0.2346
13664TIP3    H162407   4.474   3.466   4.146  0.1210 -1.6401 -1.0198
13664TIP3    H262408   4.439   3.477   4.293  2.1625  0.8570 -0.6439
13665TIP3   OH262409   4.147   2.965   2.922 -0.0313  0.2912 -0.8407
13665TIP3    H162410   4.131   3.059   2.934 -0.9193 -0.0491  1.1633
13665TIP3    H262411   4.239   2.960   2.895 -0.1022  1.7578 -1.4544
13666TIP3   OH262412   0.860   5.268  13.053 -0.4952 -0.0226 -0.1216
13666TIP3    H162413   0.921   5.204  13.018 -1.1938  0.1291 -1.7085
13666TIP3    H262414   0.778   5.252  13.006 -0.5377  2.3821 -1.0360
13667TIP3   OH262415   6.635   5.951  14.840 -0.3858  0.0779 -0.0754
13667TIP3    H162416   6.693   5.954  14.916 -2.3657  1.4098  1.4699
13667TIP3    H262417   6.583   6.031  14.846 -2.9363 -1.3989 -0.9309
13668TIP3   OH262418   2.226   6.258   1.795  0.0493 -0.2512  0.3146
13668TIP3    H162419   2.179   6.234   1.714  1.4177  1.4300 -1.0535
13668TIP3    H262420   2.288   6.186   1.808 -0.0065 -0.4155 -0.2746
13669TIP3   OH262421   6.264   0.861  16.160  0.5141 -0.0146 -0.3692
13669TIP3    H162422   6.204   0.821  16.098  2.0671 -1.0250 -1.2819
13669TIP3    H262423   6.240   0.824  16.245  1.0603 -1.9277 -1.0114
13670TIP3   OH262424   2.739   5.411  13.562 -0.5511 -0.4687  0.2165
13670TIP3    H162425   2.680   5.450  13.626 -0.3397  1.2459 -0.5870
13670TIP3    H262426   2.821   5.398  13.610 -0.9589 -0.9747  0.7882
13671TIP3   OH262427   6.099   5.576   6.429 -0.4392  0.0847  0.2818
13671TIP3    H162428   6.076   5.533   6.347  0.3231 -0.3221  0.2725
13671TIP3    H262429   6.159   5.646   6.404  0.7201 -0.7625  0.5777
13672TIP3   OH262430   1.440   6.412   3.317 -0.4844  0.5958 -0.2185
13672TIP3    H162431   1.450   6.322   3.286  0.2355  0.7179 -0.3481
13672TIP3    H262432   1.456   6.406   3.411 -0.0125  0.6617 -0.2968
13673TIP3   OH262433   4.823   0.630  11.161 -0.0334 -0.0207 -0.0766
13673TIP3    H162434   4.728   0.635  11.172  0.0192 -1.6414  1.7471
13673TIP3    H262435   4.857   0.706  11.209 -0.3985  1.1749 -1.6324
13674TIP3   OH262436   4.380   0.797   3.318 -0.3433  0.5175 -0.4296
13674TIP3    H162437   4.467   0.799   3.278 -0.7170  1.5597 -1.2334
13674TIP3    H262438   4.397   0.783   3.411  0.5958 -0.8859 -0.7686
13675TIP3   OH262439   3.298   5.212   1.849  0.2108 -0.2581  0.1953
13675TIP3    H162440   3.294   5.139   1.787 -1.4844 -0.2889  0.3105
13675TIP3    H262441   3.297   5.291   1.794 -0.0869 -0.3011  0.1378
13676TIP3   OH262442   4.312   4.784   1.081 -0.2567  1.3428  0.1831
13676TIP3    H162443   4.228   4.740   1.096  1.3439 -1.7498  0.9012
13676TIP3    H262444   4.325   4.837   1.160 -0.9733  0.8609  0.6418
13677TIP3   OH262445   2.070   6.290  14.750  0.4976 -0.1067  0.4016
13677TIP3    H162446   2.051   6.373  14.793 -0.0912  0.0292 -0.0940
13677TIP3    H262447   2.165   6.286  14.745  0.5746 -0.0689  1.5752
13678TIP3   OH262448   5.288   1.442   4.451  0.1766  0.3309  0.1769
13678TIP3    H162449   5.264   1.393   4.530  3.1038  0.6971  1.4492
13678TIP3    H262450   5.275   1.534   4.475 -1.6043  0.3904 -0.8387
13679TIP3   OH262451   5.773   3.872   4.408  0.0992 -0.0197 -0.4481
13679TIP3    H162452   5.847   3.924   4.438 -0.7114  0.3527  1.0017
13679TIP3    H262453   5.696   3.926   4.428 -0.5633 -0.3058 -2.1114
13680TIP3   OH262454   1.622   6.630   4.091 -0.4172 -0.4939 -0.5738
13680TIP3    H162455   1.620   6.616   4.186 -0.1846  0.6557 -0.3831
13680TIP3    H262456   1.714   6.647   4.072 -0.6844  0.8777 -0.7407
13681TIP3   OH262457   2.746   3.641  15.428 -0.7888  0.1297  0.1926
13681TIP3    H162458   2.779   3.553  15.446 -0.7408  0.1409  0.1595
13681TIP3    H262459   2.726   3.677  15.515  1.6425  1.0524  0.4523
13682TIP3   OH262460   0.180   6.576   3.023 -0.3007 -0.2720 -0.3889
13682TIP3    H162461   0.117   6.505   3.031 -0.2146 -0.4156 -0.9133
13682TIP3    H262462   0.245   6.558   3.091 -0.3744 -0.5972 -0.4015
13683TIP3   OH262463   6.033   3.758   1.193  0.2101  0.1353 -0.5694
13683TIP3    H162464   6.033   3.822   1.264 -1.6996  0.2803 -0.6574
13683TIP3    H262465   6.104   3.698   1.214 -0.5611 -0.0552  1.6945
13684TIP3   OH262466   1.250   1.980   3.368  0.0503  0.4222 -0.3615
13684TIP3    H162467   1.287   1.978   3.456 -1.1752 -0.6404  0.1543
13684TIP3    H262468   1.161   1.946   3.378 -0.5286  1.3862 -1.8293
13685TIP3   OH262469   0.276   4.070  12.782  0.5042  0.2251 -0.0857
13685TIP3    H162470   0.260   4.141  12.718 -0.2635 -0.1305 -0.3096
13685TIP3    H262471   0.368   4.079  12.805  0.8114  0.3653 -1.2592
13686TIP3   OH262472   4.018   0.617  15.866 -0.2703  0.5285 -0.1712
13686TIP3    H162473   4.075   0.665  15.805 -0.5443  3.0208  1.3996
13686TIP3    H262474   4.073   0.599  15.942 -0.7212  0.0769  0.0590
13687TIP3   OH262475   3.057   1.216   4.267 -0.2677  0.2658 -0.2783
13687TIP3    H162476   3.131   1.168   4.230 -0.0959 -0.1552  0.5878
13687TIP3    H262477   3.097   1.279   4.328 -0.6603 -0.6645  0.9741
13688TIP3   OH262478   2.410   2.227  17.211 -0.2832  0.0659 -0.0459
13688TIP3    H162479   2.411   2.210  17.305  0.0490  1.0527  0.1329
13688TIP3    H262480   2.348   2.299  17.200  0.3357  0.5444 -0.4786
13689TIP3   OH262481   6.590   4.620  11.251 -0.5536  0.5227 -0.6754
13689TIP3    H162482   6.577   4.567  11.173 -0.1365 -1.6328  0.6464
13689TIP3    H262483   6.620   4.558  11.318  1.1817  2.6294  0.6327
13690TIP3   OH262484   6.465   1.886  11.011  0.0582 -1.0092 -0.2746
13690TIP3    H162485   6.498   1.819  10.951  0.3512  0.7570 -2.2113
13690TIP3    H262486   6.544   1.932  11.041 -0.2662 -0.1945 -0.6472
13691TIP3   OH262487   3.529   0.987  10.644  0.4815  0.2952 -0.6339
13691TIP3    H162488   3.579   0.948  10.715 -0.8768 -1.2643 -0.4596
13691TIP3    H262489   3.593   1.034  10.592  1.5471  1.3131  1.4939
13692TIP3   OH262490   4.587   3.928  13.765 -0.6380  0.3753  0.1730
13692TIP3    H162491   4.613   3.846  13.723  0.3216  0.1609  1.1367
13692TIP3    H262492   4.577   3.989  13.693 -2.4652 -0.8431 -0.6764
13693TIP3   OH262493   1.442   2.878   0.026  0.0056 -0.0487 -0.2634
13693TIP3    H162494   1.466   2.820   0.099 -0.4682  0.6048  0.4296
13693TIP3    H262495   1.498   2.955   0.037  0.3289 -0.1883 -0.9245
13694TIP3   OH262496   4.141   5.460  12.429 -0.2251  0.3903  0.1737
13694TIP3    H162497   4.101   5.489  12.348 -0.4313  0.1468  0.1872
13694TIP3    H262498   4.068   5.441  12.487 -0.0735  0.8379  0.5138
13695TIP3   OH262499   4.449   5.485   2.718 -0.6929 -0.1565 -0.5684
13695TIP3    H162500   4.376   5.547   2.710  0.9368  1.8707 -0.6456
13695TIP3    H262501   4.481   5.474   2.628  0.6991  1.1010 -0.2749
13696TIP3   OH262502   5.430   4.402   4.471 -0.1568 -0.4888  0.7675
13696TIP3    H162503   5.349   4.392   4.521 -0.5930  1.6638  0.5862
13696TIP3    H262504   5.499   4.401   4.537 -0.3632 -1.5330  0.9962
13697TIP3   OH262505   5.736   6.229  14.049  0.4608  0.5485 -0.4419
13697TIP3    H162506   5.829   6.251  14.048  0.4450  0.6878  0.5276
13697TIP3    H262507   5.734   6.133  14.051  0.5592  0.5030 -1.8553
13698TIP3   OH262508   5.456   6.270   6.151  0.5953 -0.0503  0.2745
13698TIP3    H162509   5.436   6.361   6.171  3.0700  0.2714  1.6645
13698TIP3    H262510   5.404   6.219   6.213 -0.6374  0.3685 -0.3719
13699TIP3   OH262511   3.046   4.876   4.536 -0.4354 -0.0367 -0.1286
13699TIP3    H162512   2.993   4.954   4.518 -1.1288 -0.5568 -0.3931
13699TIP3    H262513   3.126   4.890   4.486 -1.5092 -0.5398 -2.0757
13700TIP3   OH262514   2.407   2.281   2.187 -0.5984  0.5153 -0.2569
13700TIP3    H162515   2.336   2.315   2.240 -0.4616 -0.0598  0.3025
13700TIP3    H262516   2.363   2.233   2.116 -0.7807  0.0684  0.1468
13701TIP3   OH262517   0.398   4.862  13.401  0.3269 -0.0134  0.6019
13701TIP3    H162518   0.491   4.841  13.386  0.2099  0.3773 -0.8483
13701TIP3    H262519   0.364   4.880  13.313 -1.3708 -1.1132  0.9988
13702TIP3   OH262520   5.272   3.815   2.437  0.1239 -0.4391 -0.1068
13702TIP3    H162521   5.239   3.838   2.524  1.4089  0.0406  0.2660
13702TIP3    H262522   5.338   3.747   2.453  1.9410  1.1643 -0.4636
13703TIP3   OH262523   0.926   4.261  14.542  0.5126  0.0191 -0.4014
13703TIP3    H162524   0.851   4.318  14.558  0.3522  0.0374 -1.1664
13703TIP3    H262525   1.000   4.308  14.580  0.1397 -0.0124  0.3844
13704TIP3   OH262526   5.515   2.901   6.373 -0.6592 -0.5628 -0.1986
13704TIP3    H162527   5.607   2.926   6.384 -0.6222 -0.7819 -0.0069
13704TIP3    H262528   5.478   2.910   6.461 -0.7684 -0.6850 -0.2326
13705TIP3   OH262529   1.791   6.507   0.339 -0.1953  0.5004 -0.1572
13705TIP3    H162530   1.857   6.529   0.273  0.6873 -1.0165  0.1583
13705TIP3    H262531   1.713   6.487   0.289 -0.1169  1.3075 -0.6113
13706TIP3   OH262532   4.054   6.285  16.085  0.6791 -0.0955  0.5967
13706TIP3    H162533   4.099   6.300  16.169  0.7949  2.1432  0.2084
13706TIP3    H262534   3.963   6.309  16.102  0.6785  0.2461  0.1352
13707TIP3   OH262535   5.396   4.965  12.286 -0.5839 -0.2067 -0.0776
13707TIP3    H162536   5.315   4.915  12.278 -0.2090 -0.9293  0.5115
13707TIP3    H262537   5.393   4.999  12.376 -0.0886 -0.4970  0.0479
13708TIP3   OH262538   1.680   3.465   1.050 -0.3149 -0.5765 -0.7081
13708TIP3    H162539   1.667   3.399   0.981 -2.1966 -1.3578  0.2966
13708TIP3    H262540   1.719   3.416   1.122 -1.7813 -0.6699  0.0677
13709TIP3   OH262541   6.123   5.452  11.625  0.3218 -0.4617 -0.3194
13709TIP3    H162542   6.179   5.375  11.637  1.8591  0.5068 -1.0563
13709TIP3    H262543   6.181   5.526  11.639 -0.8185  0.5896 -0.9818
13710TIP3   OH262544   0.909   2.478   2.975 -0.2357 -0.2144 -0.0138
13710TIP3    H162545   0.904   2.409   3.041 -0.9444  1.4092  1.7396
13710TIP3    H262546   0.862   2.443   2.900 -1.6260 -1.2050  1.2478
13711TIP3   OH262547   4.612   4.796   3.456  0.1645  0.4957 -0.1146
13711TIP3    H162548   4.627   4.776   3.363 -0.0742  0.2285 -0.0959
13711TIP3    H262549   4.699   4.818   3.490  0.0837  1.7953 -0.6805
13712TIP3   OH262550   6.721   3.999   3.398 -0.6629 -0.2905 -0.0772
13712TIP3    H162551   6.683   4.010   3.485 -1.0910 -0.0393 -0.2970
13712TIP3    H262552   6.796   4.058   3.398 -1.8997  1.3200 -0.6184
13713TIP3   OH262553   2.894   2.073  14.901  0.6110 -0.0630  0.0190
13713TIP3    H162554   2.805   2.065  14.935  0.9394  1.4678  1.3419
13713TIP3    H262555   2.888   2.140  14.833  0.5601 -0.8659 -0.8050
13714TIP3   OH262556   2.949   0.374  12.461  0.0446  0.8606  0.5597
13714TIP3    H162557   2.959   0.339  12.372 -0.8163 -1.7943  1.4340
13714TIP3    H262558   2.899   0.308  12.508 -0.3137  2.6170  2.8199
13715TIP3   OH262559   3.317   3.986  14.663  0.3114 -0.2812  0.5087
13715TIP3    H162560   3.398   3.937  14.650  1.3560  1.3871  0.5300
13715TIP3    H262561   3.338   4.053  14.727 -1.4480 -0.5763  1.4647
13716TIP3   OH262562   4.426   0.309  10.702  0.0264 -0.2703 -0.0467
13716TIP3    H162563   4.517   0.297  10.727 -0.1201 -0.0743  0.6108
13716TIP3    H262564   4.404   0.230  10.652  1.0919  0.5275 -1.8676
13717TIP3   OH262565   2.103   0.070  13.861 -0.1070  0.1485  0.6495
13717TIP3    H162566   2.120  -0.009  13.810  1.0665 -0.1290  1.4130
13717TIP3    H262567   2.064   0.038  13.943 -1.2220  0.5185  0.2817
13718TIP3   OH262568   3.178   4.117  15.815 -0.3557 -0.2313  0.3370
13718TIP3    H162569   3.235   4.057  15.864 -0.4766 -0.6191  0.0103
13718TIP3    H262570   3.205   4.105  15.723 -1.8984 -1.4528  0.0117
13719TIP3   OH262571   4.868   0.541  14.383  0.3637 -0.5483 -0.5293
13719TIP3    H162572   4.888   0.490  14.305 -2.3578 -0.2602 -1.5454
13719TIP3    H262573   4.864   0.632  14.352 -0.8068 -0.4364 -0.1348
13720TIP3   OH262574   2.037   3.702   1.503 -0.5584 -0.2639  0.0890
13720TIP3    H162575   2.008   3.744   1.584 -0.1698  0.6388 -0.2260
13720TIP3    H262576   2.021   3.768   1.435  0.8670 -0.2823 -0.2927
13721TIP3   OH262577   6.495   3.240  17.146 -0.4508  0.3581  0.1393
13721TIP3    H162578   6.488   3.148  17.120 -0.3560  0.6510 -0.9804
13721TIP3    H262579   6.577   3.269  17.107 -0.7881  1.0795 -0.0372
13722TIP3   OH262580   5.745   6.406   1.614 -0.1253 -0.4656 -0.4780
13722TIP3    H162581   5.788   6.447   1.689 -0.9685 -1.6391  0.6934
13722TIP3    H262582   5.817   6.378   1.557  0.5319  0.2114  0.0012
13723TIP3   OH262583   0.256   3.607   2.195 -0.0951 -0.3528  0.1918
13723TIP3    H162584   0.308   3.627   2.117  0.8771 -0.0064  0.9204
13723TIP3    H262585   0.316   3.563   2.255 -0.6997 -0.1826  0.9467
13724TIP3   OH262586   4.505   1.707  11.725  0.8059  0.3147 -0.0472
13724TIP3    H162587   4.448   1.750  11.788  1.1234  1.0730 -0.2622
13724TIP3    H262588   4.474   1.739  11.640  0.6445 -0.3746 -0.2535
13725TIP3   OH262589   3.606   6.014   0.264  0.0831 -0.3579 -0.5791
13725TIP3    H162590   3.644   6.066   0.336 -0.6899  0.0488 -0.4585
13725TIP3    H262591   3.682   5.990   0.210  0.2993  2.8435 -1.9250
13726TIP3   OH262592   0.681   2.728  12.959  0.2858 -0.5512 -0.4519
13726TIP3    H162593   0.661   2.639  12.985  2.7255 -0.5648  1.9305
13726TIP3    H262594   0.711   2.721  12.868  0.9263 -2.2841 -0.1498
13727TIP3   OH262595   3.775   5.392  14.223 -0.4113 -0.8759 -0.3736
13727TIP3    H162596   3.767   5.467  14.282  0.9419 -1.5034  0.6605
13727TIP3    H262597   3.793   5.432  14.137 -2.2526  0.0338 -0.3879
13728TIP3   OH262598   6.515   0.786  10.899 -0.4216  0.5233 -0.4955
13728TIP3    H162599   6.455   0.716  10.875 -1.1526  1.3538 -1.1669
13728TIP3    H262600   6.593   0.741  10.932 -1.0610 -0.5833 -0.4576
13729TIP3   OH262601   0.373   4.746   1.243 -0.1781  0.3661 -0.1124
13729TIP3    H162602   0.298   4.737   1.185 -0.7102 -1.2253  0.7700
13729TIP3    H262603   0.339   4.795   1.319 -0.3584 -0.4045  0.3132
13730TIP3   OH262604   5.119   4.901  11.839  0.4928  0.2823 -0.1310
13730TIP3    H162605   5.107   4.971  11.775  0.9593  1.6854  1.2392
13730TIP3    H262606   5.130   4.947  11.923  2.9217 -1.3175  0.5410
13731TIP3   OH262607   1.905   4.271   3.746  0.3550 -0.1213 -0.0238
13731TIP3    H162608   1.858   4.354   3.741 -0.1868 -0.4431 -0.4654
13731TIP3    H262609   1.878   4.224   3.667  1.8808 -0.0808 -0.6072
13732TIP3   OH262610   0.555   5.132   1.226 -0.0658 -0.4038 -0.4777
13732TIP3    H162611   0.492   5.060   1.221  2.1563 -2.4251 -1.3501
13732TIP3    H262612   0.562   5.163   1.135  0.2182 -0.2027 -0.3855
13733TIP3   OH262613   4.022   1.446  12.472  0.2083  0.5208  0.0422
13733TIP3    H162614   3.984   1.504  12.406  1.2988  1.5326  0.2749
13733TIP3    H262615   4.016   1.495  12.554  3.0183  1.2760 -0.0869
13734TIP3   OH262616   0.852   1.235   1.856  0.0900 -0.3385 -0.1795
13734TIP3    H162617   0.848   1.179   1.933  0.7359 -0.6559 -0.3717
13734TIP3    H262618   0.863   1.324   1.890  0.0533 -0.4413  0.0988
13735TIP3   OH262619   6.194   0.674   6.265 -0.0037 -0.1044  0.1246
13735TIP3    H162620   6.112   0.639   6.301  0.0617 -0.8767 -0.4477
13735TIP3    H262621   6.168   0.756   6.223 -0.3535  0.0160  0.5631
13736TIP3   OH262622   1.115   2.337  12.372  0.8717 -0.0940  0.2406
13736TIP3    H162623   1.191   2.299  12.328 -0.0122 -0.0589 -1.3854
13736TIP3    H262624   1.046   2.272  12.359 -0.3685  1.5133 -1.6160
13737TIP3   OH262625   5.144   0.616   3.547  0.0666 -0.3201  0.1454
13737TIP3    H162626   5.114   0.676   3.479  1.3418 -0.7214 -0.8118
13737TIP3    H262627   5.192   0.548   3.500  0.9786 -0.6201  1.4456
13738TIP3   OH262628   4.457   3.307  12.646  0.3358 -0.6789 -0.1373
13738TIP3    H162629   4.364   3.323  12.629  0.8071  2.3780 -0.3870
13738TIP3    H262630   4.487   3.256  12.570 -0.1979  2.3937 -2.6212
13739TIP3   OH262631   4.678   0.002   4.603 -0.1324 -0.1136 -0.1084
13739TIP3    H162632   4.694   0.085   4.557  3.6251 -0.2701  0.5359
13739TIP3    H262633   4.674  -0.064   4.533  3.7554 -0.1167 -0.5513
13740TIP3   OH262634   3.931   6.644  10.492  0.1645  0.6014  0.6809
13740TIP3    H162635   4.003   6.685  10.444  1.6055 -1.0856  1.2741
13740TIP3    H262636   3.948   6.666  10.584 -0.3767  0.6331  0.7752
13741TIP3   OH262637   3.136   1.255  13.204  0.4341  0.0276  0.1087
13741TIP3    H162638   3.129   1.161  13.190 -1.0257  0.5616 -4.4956
13741TIP3    H262639   3.049   1.280  13.237  0.6591 -0.1498  0.8515
13742TIP3   OH262640   2.804   4.862  11.909  0.0497 -0.4785 -0.1863
13742TIP3    H162641   2.713   4.865  11.880  0.1005 -1.1831 -0.4428
13742TIP3    H262642   2.852   4.832  11.832  0.3211 -1.3631  0.3084
13743TIP3   OH262643   0.315   2.782  13.693  0.8800  0.0722 -0.5257
13743TIP3    H162644   0.346   2.763  13.605  1.9109 -1.9277  0.2206
13743TIP3    H262645   0.248   2.716  13.710  1.6143 -0.3797  0.6663
13744TIP3   OH262646   4.653   2.448  11.286 -0.4125 -0.3149 -0.6825
13744TIP3    H162647   4.675   2.486  11.201 -0.4108 -1.2034 -1.0956
13744TIP3    H262648   4.575   2.495  11.315  0.8664  1.5531 -0.1102
13745TIP3   OH262649   1.452   2.478  11.034  1.0459  0.4905 -0.3707
13745TIP3    H162650   1.504   2.532  10.975 -0.2697  1.1676 -0.9390
13745TIP3    H262651   1.516   2.419  11.074  2.3013  1.5497 -0.7505
13746TIP3   OH262652   5.742   2.571  16.821  0.6545 -0.2220  0.0007
13746TIP3    H162653   5.768   2.660  16.796 -0.3677 -0.2597 -1.3198
13746TIP3    H262654   5.668   2.584  16.881  0.8075 -0.1700  0.1775
13747TIP3   OH262655   5.898   4.752  12.494  0.1814 -0.3676 -0.4252
13747TIP3    H162656   5.922   4.814  12.425 -1.1560  0.3658 -0.2562
13747TIP3    H262657   5.970   4.758  12.558  0.3766  0.5330 -0.7138
13748TIP3   OH262658   2.839   1.634   5.833 -0.2252  0.2296  0.3338
13748TIP3    H162659   2.876   1.664   5.916  0.7132  1.2434 -0.4257
13748TIP3    H262660   2.772   1.698   5.812 -0.9403 -0.4042  0.6219
13749TIP3   OH262661   0.127   4.466  11.243  0.5044 -0.3051  0.2453
13749TIP3    H162662   0.045   4.473  11.292  0.0203 -1.0124 -0.4331
13749TIP3    H262663   0.100   4.439  11.155  1.3133  1.4278 -0.5741
13750TIP3   OH262664   4.980   3.582  11.307 -0.1255  0.0957  0.1654
13750TIP3    H162665   4.923   3.639  11.360  1.0323 -0.3799  1.9908
13750TIP3    H262666   4.925   3.506  11.287 -0.5045  0.1760  0.8801
13751TIP3   OH262667   4.363   5.480  15.845 -0.2603  0.1654 -0.1463
13751TIP3    H162668   4.334   5.444  15.929  1.2707 -1.4440 -0.2663
13751TIP3    H262669   4.433   5.421  15.816 -1.4285  0.0465 -3.0604
13752TIP3   OH262670   5.591   0.607  11.654 -0.3493 -0.4570 -0.3754
13752TIP3    H162671   5.602   0.615  11.749  2.0202 -1.1777 -0.5263
13752TIP3    H262672   5.544   0.525  11.642 -1.9472  0.3287  0.1787
13753TIP3   OH262673   0.639   6.409   2.189 -0.6137 -0.1830  0.2457
13753TIP3    H162674   0.711   6.435   2.133 -0.0147 -1.1859  0.5236
13753TIP3    H262675   0.641   6.313   2.188 -1.9404 -0.2404  0.2605
13754TIP3   OH262676   0.029   1.537   1.515  0.5731 -0.3488 -0.0132
13754TIP3    H162677  -0.059   1.535   1.554  0.2496 -0.6135 -0.7420
13754TIP3    H262678   0.028   1.615   1.459  0.2301 -1.2608 -1.3099
13755TIP3   OH262679   6.415   1.965   0.437  0.3053 -0.1830 -0.0783
13755TIP3    H162680   6.353   2.024   0.479 -1.1689 -1.5133 -0.2601
13755TIP3    H262681   6.388   1.878   0.467  2.7704 -0.7522  0.6585
13756TIP3   OH262682   3.865   1.632   3.146 -0.2669 -0.7539 -0.0942
13756TIP3    H162683   3.818   1.589   3.218 -0.3247 -2.8653 -1.2889
13756TIP3    H262684   3.941   1.575   3.131  0.5111  0.4312 -0.7978
13757TIP3   OH262685   2.593   6.339   3.069  0.0040 -0.1725 -0.5382
13757TIP3    H162686   2.518   6.321   3.126  0.3666 -2.6135 -0.7117
13757TIP3    H262687   2.564   6.313   2.982  0.9955 -1.0740 -0.6231
13758TIP3   OH262688   3.817   2.723  15.042  0.2700 -0.2044  0.6770
13758TIP3    H162689   3.799   2.632  15.019  1.6309 -0.0993 -0.8976
13758TIP3    H262690   3.834   2.720  15.137 -2.7777 -1.0514  1.3170
13759TIP3   OH262691   3.778   2.277   2.581  0.2138  0.5577 -0.7726
13759TIP3    H162692   3.856   2.242   2.539  0.8830 -1.6651  2.0527
13759TIP3    H262693   3.705   2.234   2.535  0.8567 -0.8468 -0.5100
13760TIP3   OH262694   3.635   6.316   5.761 -0.5292  0.1077  0.1985
13760TIP3    H162695   3.644   6.406   5.792  0.5692  0.0469  0.1014
13760TIP3    H262696   3.675   6.263   5.830  0.3336 -0.1639 -0.4984
13761TIP3   OH262697   5.842   1.801   1.338 -0.1507  0.2117  0.0034
13761TIP3    H162698   5.885   1.781   1.255  0.1561 -0.0777  0.2304
13761TIP3    H262699   5.825   1.716   1.378  0.8319  0.3666  0.7994
13762TIP3   OH262700   3.960   3.936   1.338  0.2933  0.5060  0.0440
13762TIP3    H162701   3.988   4.019   1.376  3.5258 -0.3611 -0.0850
13762TIP3    H262702   4.007   3.931   1.255 -1.2974 -0.6453 -0.8305
13763TIP3   OH262703   6.460   6.509   4.432 -0.1866  0.2617  0.6198
13763TIP3    H162704   6.482   6.492   4.341 -2.0499 -0.9418  0.3458
13763TIP3    H262705   6.539   6.488   4.481  0.9324  1.2101 -0.7171
13764TIP3   OH262706   3.574   3.905  12.302 -0.3757 -0.4209 -0.8205
13764TIP3    H162707   3.546   3.814  12.302 -1.7750 -0.0275 -1.8257
13764TIP3    H262708   3.497   3.954  12.330  0.6836  0.3906  0.7677
13765TIP3   OH262709   2.194   6.042  14.641  0.3062 -0.1959 -0.1197
13765TIP3    H162710   2.270   6.022  14.696  0.3353 -2.2817 -0.8332
13765TIP3    H262711   2.223   6.115  14.586  1.5140 -0.4480  0.1533
13766TIP3   OH262712   0.525   6.743  17.079 -0.3934 -0.1586 -0.0216
13766TIP3    H162713   0.493   6.661  17.040 -1.7796  0.9139 -1.2683
13766TIP3    H262714   0.562   6.791  17.005  1.0290  0.0856  0.8176
13767TIP3   OH262715   2.194   5.113  13.764 -0.0594  0.0859 -0.2328
13767TIP3    H162716   2.191   5.154  13.678  1.3451  0.5141 -0.1037
13767TIP3    H262717   2.207   5.020  13.746 -1.2258 -0.0410 -0.4906
13768TIP3   OH262718   5.748   4.347   4.445  0.5183 -0.0566 -0.1948
13768TIP3    H162719   5.762   4.344   4.539  1.9765  0.1266 -0.3903
13768TIP3    H262720   5.769   4.437   4.420 -1.8402  0.4996 -0.4388
13769TIP3   OH262721   4.019   6.110   0.010  0.4489 -0.0671 -0.4250
13769TIP3    H162722   3.950   6.053   0.044  3.0863 -2.7554  0.9041
13769TIP3    H262723   4.101   6.073   0.045  2.6422  2.7589 -2.0632
13770TIP3   OH262724   4.891   3.314  11.503 -0.3491 -0.1517 -0.7869
13770TIP3    H162725   4.932   3.395  11.533 -0.4430 -0.1423 -0.6857
13770TIP3    H262726   4.958   3.274  11.447  1.1325 -1.7493  1.9346
13771TIP3   OH262727   1.974   6.536  10.912  0.2596  0.6133  0.2798
13771TIP3    H162728   1.968   6.460  10.854 -1.2222  1.6930 -1.1001
13771TIP3    H262729   1.986   6.610  10.853 -2.5383  1.9126  1.1308
13772TIP3   OH262730   0.023   0.648  14.858 -0.2487 -0.3268 -0.4242
13772TIP3    H162731   0.013   0.566  14.906 -0.4980  0.3976  0.7916
13772TIP3    H262732   0.069   0.707  14.918 -3.6047  1.7622  0.3888
13773TIP3   OH262733   5.363   0.920  15.944 -0.2809 -0.0780  0.8456
13773TIP3    H162734   5.439   0.908  16.001  0.0368 -0.3256  0.3732
13773TIP3    H262735   5.354   0.837  15.898  1.1837  0.9738 -1.5440
13774TIP3   OH262736   6.580   1.539   0.674 -0.4164  0.2446  0.3611
13774TIP3    H162737   6.650   1.576   0.621 -1.6966  1.3405 -0.6228
13774TIP3    H262738   6.581   1.445   0.653 -0.4155  0.5411 -1.0340
13775TIP3   OH262739   5.577   5.256  13.619  0.1161  0.2170  0.4001
13775TIP3    H162740   5.525   5.241  13.540 -0.9737 -0.7966  1.2824
13775TIP3    H262741   5.524   5.315  13.672  1.5494  2.1940 -0.2662
13776TIP3   OH262742   1.059   3.743   6.078 -0.1595 -0.2130  0.3772
13776TIP3    H162743   1.047   3.837   6.093  0.4773 -0.1729  0.6797
13776TIP3    H262744   1.035   3.703   6.162 -2.0663 -0.4768 -0.2515
13777TIP3   OH262745   6.152   1.235  11.200 -0.0927 -0.3090  0.5451
13777TIP3    H162746   6.058   1.223  11.209 -0.1282 -1.4374 -0.8949
13777TIP3    H262747   6.168   1.326  11.225 -1.2742 -0.5980  2.5804
13778TIP3   OH262748   0.381   2.193  14.419  0.4884 -0.1964  0.5888
13778TIP3    H162749   0.399   2.264  14.482  1.9429  0.0018 -0.0022
13778TIP3    H262750   0.311   2.228  14.364 -1.1723 -0.5707  2.3644
13779TIP3   OH262751   2.472   0.161  14.103 -0.4393 -0.7241 -0.2085
13779TIP3    H162752   2.411   0.147  14.176 -0.9692  2.0755 -0.0009
13779TIP3    H262753   2.452   0.250  14.072  2.1688 -0.4922 -1.4725
13780TIP3   OH262754   5.709   0.504   3.501  0.0288  0.1334 -0.0190
13780TIP3    H162755   5.723   0.476   3.410 -0.0950 -0.5574  0.1698
13780TIP3    H262756   5.717   0.600   3.498  0.7710  0.0642 -0.6251
13781TIP3   OH262757   1.177   4.743   2.452 -0.1157  0.5998 -0.3297
13781TIP3    H162758   1.258   4.763   2.406  0.7260  2.1033  1.6601
13781TIP3    H262759   1.120   4.704   2.385  1.8944  0.3476 -1.9832
13782TIP3   OH262760   4.909   5.387  15.989  0.1580  0.2128 -0.1549
13782TIP3    H162761   4.866   5.364  15.906  0.0859  0.3585 -0.1581
13782TIP3    H262762   4.995   5.345  15.983 -0.6048 -1.5422  0.5925
13783TIP3   OH262763   2.851   4.530  14.313 -0.2775 -0.3856 -0.0662
13783TIP3    H162764   2.944   4.546  14.302  0.0745 -0.8336  1.9040
13783TIP3    H262765   2.844   4.482  14.396 -2.2206 -0.6809 -0.3487
13784TIP3   OH262766   1.452   4.137   3.478 -0.2511  0.5617 -0.0761
13784TIP3    H162767   1.451   4.223   3.435  0.4590  0.9230  0.6113
13784TIP3    H262768   1.492   4.078   3.414  2.5463  1.4681  0.7190
13785TIP3   OH262769   5.301   5.956  16.433  0.4420  0.1002 -0.0890
13785TIP3    H162770   5.256   5.908  16.364  0.6128  0.4605 -0.4532
13785TIP3    H262771   5.393   5.957  16.407  0.3620  1.1324 -0.4015
13786TIP3   OH262772   6.619   2.780  10.633 -0.1676  0.6957 -0.0223
13786TIP3    H162773   6.627   2.698  10.582  3.6424 -1.4791  3.4956
13786TIP3    H262774   6.704   2.823  10.622 -0.6819  2.1479  1.4198
13787TIP3   OH262775   3.025   0.894  12.424  0.1561 -0.5947  0.2396
13787TIP3    H162776   3.045   0.801  12.414 -0.3244 -0.7286  0.4921
13787TIP3    H262777   2.965   0.912  12.352  1.0371 -0.2301 -0.4264
13788TIP3   OH262778   4.596   3.542  13.401 -0.0723 -0.2838  0.4420
13788TIP3    H162779   4.581   3.449  13.379 -0.7144 -0.1082  0.1017
13788TIP3    H262780   4.569   3.589  13.322 -0.0873  0.2176  0.7463
13789TIP3   OH262781   2.333   2.201   6.857 -0.0030  0.8174 -0.0405
13789TIP3    H162782   2.415   2.171   6.818  0.0707 -0.1077  0.8007
13789TIP3    H262783   2.265   2.172   6.796  0.2182  0.6508 -0.2096
13790TIP3   OH262784   2.779   2.073  11.447 -0.1439  0.1929 -0.6624
13790TIP3    H162785   2.871   2.048  11.456 -0.6372 -1.7210 -0.4613
13790TIP3    H262786   2.772   2.105  11.357  0.8627  1.1400 -0.4296
13791TIP3   OH262787   2.698   2.071  15.255 -0.4647 -0.5751 -0.1253
13791TIP3    H162788   2.626   2.099  15.199 -1.5255 -0.1549  1.3928
13791TIP3    H262789   2.735   1.995  15.211  0.6336  1.3952 -2.8749
13792TIP3   OH262790   2.993   4.477   0.018  0.4888 -0.3583  0.1634
13792TIP3    H162791   3.026   4.529   0.091 -1.2503  1.7673 -0.4827
13792TIP3    H262792   2.956   4.541  -0.043  1.2491 -2.1060 -2.2845
13793TIP3   OH262793   1.894   3.373  13.045  0.1347 -0.4476  0.0203
13793TIP3    H162794   1.851   3.433  13.106 -0.9957 -1.4371  0.2543
13793TIP3    H262795   1.927   3.302  13.101  2.2991  0.3723 -0.1339
13794TIP3   OH262796   6.157   6.712  17.145 -0.1508  0.3296  0.3039
13794TIP3    H162797   6.131   6.638  17.091 -0.0782 -1.3573  2.4451
13794TIP3    H262798   6.094   6.781  17.123 -1.7990 -1.2061  0.0133
13795TIP3   OH262799   6.041   1.282  16.394  0.3977 -0.0528 -0.4880
13795TIP3    H162800   6.014   1.333  16.471  3.0229  2.1301 -0.8559
13795TIP3    H262801   6.109   1.224  16.428  2.4448  1.7634 -1.2130
13796TIP3   OH262802   4.245   4.687  14.739  0.1161 -0.0337  0.0633
13796TIP3    H162803   4.165   4.659  14.694  0.1647 -1.6982  0.9120
13796TIP3    H262804   4.280   4.758  14.685 -1.1236 -0.2983 -1.1418
13797TIP3   OH262805   4.317   5.405   3.062  0.7159 -0.2599 -0.2517
13797TIP3    H162806   4.314   5.501   3.069  1.6519 -0.2275 -0.1705
13797TIP3    H262807   4.231   5.376   3.093  0.4229  0.5528 -0.2790
13798TIP3   OH262808   4.901   1.047   3.115  0.3278  0.1969 -0.2763
13798TIP3    H162809   4.874   1.109   3.182  2.1104 -1.2733  1.9067
13798TIP3    H262810   4.818   1.018   3.076 -0.7361  1.3407  1.0191
13799TIP3   OH262811   0.618   1.124  16.472 -0.4591  0.6093 -0.0097
13799TIP3    H162812   0.651   1.203  16.514  0.7906 -0.2216  0.6458
13799TIP3    H262813   0.575   1.155  16.393 -1.2219  2.0504  0.9246
13800TIP3   OH262814   5.761   1.022  11.866  0.6069 -0.0193 -0.1578
13800TIP3    H162815   5.699   1.094  11.878 -0.6495 -1.2093  0.8197
13800TIP3    H262816   5.842   1.053  11.907  0.1077  0.8506  0.1983
13801TIP3   OH262817   5.309   6.510  11.975  0.1673  0.2684 -0.3603
13801TIP3    H162818   5.344   6.576  11.915 -0.7725  1.8139  0.7403
13801TIP3    H262819   5.216   6.531  11.983 -0.7339 -2.6326 -1.7781
13802TIP3   OH262820   4.321   5.668   2.550  0.0964  0.0550  0.3335
13802TIP3    H162821   4.292   5.703   2.635  2.9324 -0.6195  1.6761
13802TIP3    H262822   4.319   5.744   2.491 -1.8440  0.5533  0.9339
13803TIP3   OH262823   1.869   4.147  16.832  0.3763 -0.2897  0.0891
13803TIP3    H162824   1.802   4.212  16.855 -2.6286 -3.6510  2.0345
13803TIP3    H262825   1.944   4.169  16.888 -0.5100  1.4851  0.6653
13804TIP3   OH262826   1.936   2.806  16.094  0.3380  0.1291 -0.2371
13804TIP3    H162827   1.863   2.833  16.039  1.6008  1.3964 -1.4072
13804TIP3    H262828   1.961   2.720  16.060  0.1892  0.2619 -0.6942
13805TIP3   OH262829   0.622   6.065   2.701  0.0258  0.1111 -0.4310
13805TIP3    H162830   0.585   6.080   2.614  1.9457 -0.9887 -1.4906
13805TIP3    H262831   0.675   6.143   2.718 -0.8479  0.6147  0.0623
13806TIP3   OH262832   4.288   5.380  13.752  0.0900  0.5079  0.5998
13806TIP3    H162833   4.367   5.335  13.720 -0.6191 -0.8348  0.6863
13806TIP3    H262834   4.220   5.314  13.750 -1.7741  2.3227 -2.1447
13807TIP3   OH262835   3.882   1.205  14.093 -0.0464  0.1754  0.2974
13807TIP3    H162836   3.875   1.263  14.169 -0.0288 -1.3067  1.4727
13807TIP3    H262837   3.877   1.116  14.129 -0.7197 -0.5763 -1.5064
13808TIP3   OH262838   5.686   5.948   4.788  0.5933 -0.4036 -0.2829
13808TIP3    H162839   5.763   6.002   4.773  0.2321 -0.0047 -0.7223
13808TIP3    H262840   5.612   6.008   4.780  0.2406 -0.7504  0.2963
13809TIP3   OH262841   5.223   0.668  15.415  0.1522 -0.0583  0.5867
13809TIP3    H162842   5.275   0.668  15.334  3.2758 -1.6972  2.3791
13809TIP3    H262843   5.221   0.760  15.442  0.6180  0.2799 -0.4703
13810TIP3   OH262844   5.533   4.084   0.113  0.2176  0.9696  0.4168
13810TIP3    H162845   5.448   4.049   0.087 -0.4222  0.5502  2.8607
13810TIP3    H262846   5.548   4.157   0.052 -1.9540  1.1448 -0.0077
13811TIP3   OH262847   2.929   0.542   6.176  0.0667  0.0375 -0.4272
13811TIP3    H162848   2.947   0.464   6.230  0.3464  1.9189  2.4346
13811TIP3    H262849   2.841   0.568   6.202  0.5010  1.4203 -0.2705
13812TIP3   OH262850   3.023   0.182  15.143  0.2414 -0.1320 -0.8768
13812TIP3    H162851   3.038   0.274  15.165  2.3506  0.3661 -3.8269
13812TIP3    H262852   2.968   0.150  15.215  0.7273  2.9617  1.1182
13813TIP3   OH262853   0.842   0.936  16.564 -0.4904  0.2533 -0.0623
13813TIP3    H162854   0.897   1.014  16.568 -2.2987  1.6325 -0.8544
13813TIP3    H262855   0.821   0.916  16.655 -3.4866  3.3620  0.1264
13814TIP3   OH262856   6.203   0.525  15.201  0.4417 -0.1836  0.2056
13814TIP3    H162857   6.131   0.515  15.138 -0.6250 -2.9397  1.7187
13814TIP3    H262858   6.212   0.620  15.211 -2.1132  0.2953 -1.0138
13815TIP3   OH262859   6.122   5.591   5.146 -0.3016  0.3450 -1.1890
13815TIP3    H162860   6.054   5.618   5.085  1.0281  2.1798 -1.9542
13815TIP3    H262861   6.198   5.644   5.123  0.9608 -0.5667  0.5824
13816TIP3   OH262862   4.753   6.023   5.691  0.4452 -0.2443 -0.1076
13816TIP3    H162863   4.761   6.022   5.786 -0.0153 -1.2386 -0.0605
13816TIP3    H262864   4.747   6.115   5.668 -2.0319 -0.0316  1.0708
13817TIP3   OH262865   1.759   5.184  15.969  0.4638  0.1083  0.4224
13817TIP3    H162866   1.742   5.119  16.037  1.8890  0.4484  1.1449
13817TIP3    H262867   1.674   5.224  15.951 -0.0803 -0.6073  1.3608
13818TIP3   OH262868   5.421   6.724   6.027 -0.0784 -0.5562  0.1409
13818TIP3    H162869   5.517   6.722   6.032  0.1462 -0.0162 -2.3903
13818TIP3    H262870   5.392   6.651   6.081  1.7690 -0.9670  0.6515
13819TIP3   OH262871   4.261   1.777   2.101 -0.5291  0.2016 -0.1859
13819TIP3    H162872   4.197   1.720   2.142  0.4037 -0.2019  0.7580
13819TIP3    H262873   4.224   1.865   2.108  0.1111  0.3270  2.6905
13820TIP3   OH262874   4.062   0.130  11.569  0.2738  0.0963 -0.0270
13820TIP3    H162875   4.013   0.174  11.638 -0.9638  0.0687 -0.8476
13820TIP3    H262876   4.153   0.134  11.597  0.0056  1.7207  0.7059
13821TIP3   OH262877   0.931   3.833  13.417  0.1918  0.3569  0.3785
13821TIP3    H162878   0.895   3.818  13.329 -0.4740  1.4915  0.4462
13821TIP3    H262879   1.010   3.884  13.402  1.5338 -1.6315  0.2768
13822TIP3   OH262880   2.158   1.369  15.972  0.7084  0.0605  0.0002
13822TIP3    H162881   2.188   1.453  15.938 -0.9950  0.6427 -0.1595
13822TIP3    H262882   2.167   1.309  15.898 -1.3409  0.9313 -1.0288
13823TIP3   OH262883   2.628   0.110   2.482 -0.3353  0.2810  0.0394
13823TIP3    H162884   2.552   0.058   2.506 -0.4178  0.3528 -0.0692
13823TIP3    H262885   2.695   0.045   2.459 -0.8492  0.2124 -1.4128
13824TIP3   OH262886   0.074   6.673   6.182  0.6683  0.2124 -0.4476
13824TIP3    H162887  -0.014   6.650   6.211 -0.1254  1.7420 -1.5239
13824TIP3    H262888   0.131   6.651   6.256 -0.3734 -2.2991 -0.3170
13825TIP3   OH262889   2.427   4.051   2.520  0.1460 -0.0890 -0.1178
13825TIP3    H162890   2.434   4.126   2.461 -3.9824 -0.5853 -1.6468
13825TIP3    H262891   2.458   3.977   2.468 -2.0856 -0.2928 -1.3159
13826TIP3   OH262892   3.177   2.515   0.444  0.1061 -0.2979 -0.2251
13826TIP3    H162893   3.117   2.538   0.515 -0.2520  0.7750 -0.8451
13826TIP3    H262894   3.205   2.599   0.408  1.1036 -0.8058 -0.6851
13827TIP3   OH262895   2.449   5.273   2.420  0.1779 -0.6765 -0.5776
13827TIP3    H162896   2.454   5.368   2.429  2.2263 -0.6921 -1.0242
13827TIP3    H262897   2.361   5.251   2.451 -0.0679  1.2615  0.2860
13828TIP3   OH262898   3.332   1.652  14.986 -0.0838 -0.3042  0.5053
13828TIP3    H162899   3.385   1.702  14.923 -1.5405  1.7593  0.8166
13828TIP3    H262900   3.323   1.565  14.946 -0.7051  0.8307 -2.0549
13829TIP3   OH262901   6.653   2.620  12.735  0.5566  0.5827 -0.2029
13829TIP3    H162902   6.746   2.640  12.727  0.9166 -1.0657 -0.4349
13829TIP3    H262903   6.609   2.699  12.702  1.8560  1.2778 -0.3564
13830TIP3   OH262904   6.745   0.509   2.822  0.0513 -0.2804 -0.8019
13830TIP3    H162905   6.825   0.458   2.814 -0.3825 -0.8874 -1.4393
13830TIP3    H262906   6.718   0.526   2.731 -1.5029 -1.6555 -0.6580
13831TIP3   OH262907   6.072   4.229  16.762  0.4647 -0.2680 -0.3347
13831TIP3    H162908   6.098   4.298  16.701  0.7468 -0.8758 -0.9102
13831TIP3    H262909   6.025   4.275  16.831  2.4225  0.7749  0.3773
13832TIP3   OH262910   5.149   3.498   3.299  0.0690 -0.1951 -0.7487
13832TIP3    H162911   5.205   3.527   3.228 -0.3402 -0.6887 -1.2848
13832TIP3    H262912   5.070   3.465   3.256 -0.0443 -0.8225 -0.0934
13833TIP3   OH262913   2.720   5.518  11.976  0.4768 -0.2143 -0.5722
13833TIP3    H162914   2.741   5.429  11.948  1.1185  0.2589 -1.6971
13833TIP3    H262915   2.677   5.557  11.900 -2.1245 -0.2947  0.7443
13834TIP3   OH262916   0.618   4.709   0.312 -0.7518 -0.4032  0.2763
13834TIP3    H162917   0.531   4.679   0.287 -0.3486 -1.4144  0.0408
13834TIP3    H262918   0.673   4.691   0.236 -0.7268  2.1947 -0.4037
13835TIP3   OH262919   2.168   4.032  14.119 -0.2578  0.2471 -0.2303
13835TIP3    H162920   2.121   3.990  14.047  2.3479 -0.3901 -1.6937
13835TIP3    H262921   2.189   4.119  14.087  1.0644 -0.0963 -0.3441
13836TIP3   OH262922   3.682   5.034  15.877 -0.3194 -0.8070 -0.3494
13836TIP3    H162923   3.714   4.977  15.947 -1.8541 -1.5401 -0.2155
13836TIP3    H262924   3.699   5.123  15.909  0.4882 -1.1572  0.2188
13837TIP3   OH262925   1.706   6.474   6.233 -0.4796 -0.1456 -0.3321
13837TIP3    H162926   1.737   6.559   6.266 -0.2597  0.0631 -1.0417
13837TIP3    H262927   1.786   6.428   6.209 -0.6665  0.2694 -1.8800
13838TIP3   OH262928   1.672   2.239  14.407 -0.1077  0.3445 -0.1417
13838TIP3    H162929   1.631   2.186  14.338 -1.3487  0.5453  0.4116
13838TIP3    H262930   1.719   2.176  14.461 -0.4944 -0.0307 -0.2353
13839TIP3   OH262931   3.079   1.227   0.126 -0.5084 -0.3903  0.0542
13839TIP3    H162932   3.084   1.212   0.032 -1.9041 -2.6569  0.2384
13839TIP3    H262933   3.054   1.141   0.162 -0.7502  0.5833  2.4037
13840TIP3   OH262934   3.595   0.359  11.332  0.1093 -0.1207 -0.0836
13840TIP3    H162935   3.629   0.271  11.314 -1.8507 -1.0414  0.3921
13840TIP3    H262936   3.507   0.344  11.366 -0.9195  2.0999 -1.5184
13841TIP3   OH262937   6.193   1.891  11.852  0.1760 -0.1753 -0.4500
13841TIP3    H162938   6.155   1.870  11.937 -1.3278  0.0424 -1.0400
13841TIP3    H262939   6.286   1.868  11.861 -0.0720 -0.7116  1.0451
13842TIP3   OH262940   4.326   2.767   3.223 -0.4016 -0.5269 -0.5474
13842TIP3    H162941   4.357   2.849   3.261  0.5972 -0.0182 -2.3700
13842TIP3    H262942   4.384   2.752   3.148 -2.2000 -1.5437 -1.7947
13843TIP3   OH262943   2.530   2.982   3.111  0.0298 -0.0840  0.0375
13843TIP3    H162944   2.560   3.004   3.023 -1.5464  1.0412 -0.2652
13843TIP3    H262945   2.443   2.943   3.097 -0.3681  0.3850  1.1062
13844TIP3   OH262946   6.056   3.618  13.500 -0.0217 -0.1094 -0.2699
13844TIP3    H162947   6.136   3.666  13.480  0.0794  0.6258  1.6506
13844TIP3    H262948   6.011   3.672  13.565 -2.1696 -0.4363 -1.3866
13845TIP3   OH262949   1.055   4.500   0.614 -0.2572  0.2208 -0.3486
13845TIP3    H162950   1.134   4.547   0.643 -1.0259  0.7203  1.0183
13845TIP3    H262951   1.049   4.425   0.672 -0.6530  0.0455 -0.6136
13846TIP3   OH262952   1.308   0.160  15.755 -0.9681  0.4978 -0.4232
13846TIP3    H162953   1.261   0.243  15.757 -1.6826  0.2249 -2.8465
13846TIP3    H262954   1.369   0.168  15.682 -0.3674 -0.7635 -0.0914
13847TIP3   OH262955   1.101   3.987   4.484  0.1667 -0.1565 -0.1485
13847TIP3    H162956   1.025   4.019   4.534 -0.0082 -0.2557 -0.3520
13847TIP3    H262957   1.109   3.895   4.508 -0.7818 -0.5820 -1.3737
13848TIP3   OH262958   4.138   0.373  16.850 -0.4589  0.4614  0.0647
13848TIP3    H162959   4.091   0.450  16.816  0.4728  1.0731  0.1237
13848TIP3    H262960   4.070   0.321  16.893 -1.1098  1.2599  0.0405
13849TIP3   OH262961   1.475   2.159  15.416  0.1998  0.2188  0.2899
13849TIP3    H162962   1.483   2.070  15.382 -0.5345  0.7443 -1.3136
13849TIP3    H262963   1.564   2.182  15.443  0.3156 -1.1666  1.2282
13850TIP3   OH262964   3.874   2.151  14.361 -0.6007  0.5283  0.3578
13850TIP3    H162965   3.956   2.150  14.410 -0.2036 -2.3085 -0.1370
13850TIP3    H262966   3.809   2.184  14.422  0.9168  3.3239  0.6128
13851TIP3   OH262967   4.028   1.029   2.095  0.1197  0.5434  0.4837
13851TIP3    H162968   4.112   1.068   2.120  1.1572  0.8141 -2.9251
13851TIP3    H262969   4.051   0.942   2.063 -0.8725  0.6320 -0.5192
13852TIP3   OH262970   6.084   2.918  12.561  0.6930 -0.1358 -0.3273
13852TIP3    H162971   6.156   2.915  12.624 -0.3671 -0.0909  0.9323
13852TIP3    H262972   6.029   2.990  12.591  0.3455  0.1183 -1.5328
13853TIP3   OH262973   0.334   5.295   1.456 -0.2911 -0.1151  0.9381
13853TIP3    H162974   0.316   5.253   1.372  0.9605 -1.4852  1.3054
13853TIP3    H262975   0.322   5.389   1.440  1.5483 -0.1756 -1.2348
13854TIP3   OH262976   0.868   4.399   6.345  0.4347 -0.3596 -0.3102
13854TIP3    H162977   0.929   4.469   6.320  0.8790 -0.4850  0.4044
13854TIP3    H262978   0.865   4.342   6.269  1.5635 -0.5974 -0.1930
13855TIP3   OH262979   6.644   4.122  14.876 -0.2927  0.1905 -0.3543
13855TIP3    H162980   6.584   4.080  14.815 -0.8513 -0.4232  0.5825
13855TIP3    H262981   6.677   4.198  14.829 -0.1148 -0.6716 -1.6897
13856TIP3   OH262982   5.477   1.387   3.867  0.7032 -0.3560  0.3127
13856TIP3    H162983   5.385   1.361   3.875  0.9175 -1.7141 -1.2177
13856TIP3    H262984   5.485   1.464   3.924 -0.9322 -1.2929  1.9236
13857TIP3   OH262985   4.542   2.676   5.699  1.0702 -0.2448  0.6267
13857TIP3    H162986   4.577   2.710   5.617 -2.8344 -0.4704 -1.3807
13857TIP3    H262987   4.519   2.753   5.750  1.5204 -0.0807  0.5890
13858TIP3   OH262988   0.297   3.928   5.794  0.5369  0.9759 -0.1358
13858TIP3    H162989   0.258   3.971   5.718  0.5531  0.6380 -0.3348
13858TIP3    H262990   0.222   3.897   5.845  0.5303  0.9071 -0.1863
13859TIP3   OH262991   3.136   2.557   2.632  0.0492 -0.4206  0.0213
13859TIP3    H162992   3.177   2.614   2.697 -1.4024  1.9123 -0.9936
13859TIP3    H262993   3.190   2.568   2.553 -0.1106 -0.6431 -0.1188
13860TIP3   OH262994   0.563   1.618  11.710 -0.6153  0.0695  0.3163
13860TIP3    H162995   0.492   1.564  11.676  0.6277 -0.6534 -1.2351
13860TIP3    H262996   0.518   1.694  11.749 -2.2250 -0.3059 -0.6962
13861TIP3   OH262997   4.541   1.149  11.713  0.3741 -0.0680 -0.2449
13861TIP3    H162998   4.541   1.238  11.677  0.4922  0.6212  1.3252
13861TIP3    H262999   4.597   1.155  11.790 -1.0968 -1.0055  0.9717
13862TIP3   OH263000   4.439   2.196  14.421 -0.0746 -0.1224 -0.3083
13862TIP3    H163001   4.484   2.120  14.459  1.5175  1.1091  0.3660
13862TIP3    H263002   4.474   2.271  14.469 -0.0108  1.2652 -2.4010
13863TIP3   OH263003   1.757   5.609   5.252 -0.1793 -0.3226  0.6129
13863TIP3    H163004   1.822   5.539   5.254  0.1040 -0.2959 -2.3284
13863TIP3    H263005   1.807   5.690   5.262 -0.0680 -0.4168  0.8025
13864TIP3   OH263006   1.811   0.898   3.036  0.1960  0.1743  0.8083
13864TIP3    H163007   1.786   0.965   3.099 -2.9220 -1.3321  1.3659
13864TIP3    H263008   1.787   0.936   2.951 -0.6362  0.1687  1.0329
13865TIP3   OH263009   1.569   2.069   2.483  0.8824  0.3758  0.1471
13865TIP3    H163010   1.566   2.152   2.435  0.0760  0.4315  0.2832
13865TIP3    H263011   1.507   2.080   2.554 -1.1527 -1.2059 -1.2481
13866TIP3   OH263012   1.296   0.848  11.959 -0.0506  0.2719 -0.7281
13866TIP3    H163013   1.338   0.822  11.877 -0.1354  3.2204 -1.8425
13866TIP3    H263014   1.344   0.926  11.986 -1.2503  0.4551  1.0033
13867TIP3   OH263015   4.822   3.930   4.141 -0.0152  0.4979  0.0855
13867TIP3    H163016   4.767   3.977   4.079 -0.5928  0.4915  0.5870
13867TIP3    H263017   4.902   3.911   4.092 -1.2640 -1.4038 -1.3946
13868TIP3   OH263018   6.673   3.768  11.291  0.4589  0.0457  0.3787
13868TIP3    H163019   6.595   3.723  11.322 -2.0410  0.5797 -4.2966
13868TIP3    H263020   6.726   3.698  11.251 -0.9008  0.3772 -2.1967
13869TIP3   OH263021   6.630   3.812   4.888 -0.3170  0.0448  0.3448
13869TIP3    H163022   6.712   3.806   4.839 -0.9203 -0.4519 -0.6346
13869TIP3    H263023   6.621   3.905   4.908 -1.4844  0.8135 -3.0758
13870TIP3   OH263024   0.999   5.649  16.640  0.6708 -0.2725  0.1017
13870TIP3    H163025   0.929   5.713  16.631  0.6200 -0.4125 -0.5808
13870TIP3    H263026   0.994   5.621  16.731 -0.3200 -0.4526  0.0086
13871TIP3   OH263027   4.167   6.298  10.734  0.1119  0.2945  0.5292
13871TIP3    H163028   4.249   6.336  10.702 -0.0311  0.2978  0.1645
13871TIP3    H263029   4.108   6.302  10.659 -0.2097  0.2512  0.7799
13872TIP3   OH263030   0.938   5.497   0.638 -0.0535 -0.0469 -0.3905
13872TIP3    H163031   0.865   5.438   0.656 -1.4854  1.5972 -0.4602
13872TIP3    H263032   0.988   5.499   0.719 -0.7599 -0.3270  0.0641
13873TIP3   OH263033   4.559   5.324   0.552  0.0025 -0.0484  0.6559
13873TIP3    H163034   4.595   5.276   0.478  1.1699 -0.2806  1.3438
13873TIP3    H263035   4.486   5.271   0.583 -0.6674  0.1897 -0.4795
13874TIP3   OH263036   3.539   1.876   6.604 -0.2171  0.6150  0.0844
13874TIP3    H163037   3.507   1.965   6.588 -1.0387  0.3107 -0.0018
13874TIP3    H263038   3.480   1.820   6.554  0.8347  0.0694 -0.6058
13875TIP3   OH263039   5.046   5.633   0.362 -0.1928  0.3205  0.6294
13875TIP3    H163040   4.972   5.580   0.332  0.1253  0.3981 -0.3229
13875TIP3    H263041   5.080   5.675   0.283  1.5960 -0.6127  0.8420
13876TIP3   OH263042   0.491   0.560  11.635  0.1485  0.1222 -0.3061
13876TIP3    H163043   0.445   0.509  11.702 -1.3247  0.7063 -0.8339
13876TIP3    H263044   0.502   0.500  11.562  0.6128 -0.1395 -0.0276
13877TIP3   OH263045   3.488   4.680   0.745  0.4712 -0.6365 -0.0230
13877TIP3    H163046   3.449   4.759   0.782 -0.0299 -0.3587 -1.1252
13877TIP3    H263047   3.569   4.668   0.795  1.2363  1.3235 -0.6834
13878TIP3   OH263048   5.387   4.025   0.650 -0.1704 -0.0473  0.1954
13878TIP3    H163049   5.406   3.934   0.629  0.7507  0.3421 -0.7036
13878TIP3    H263050   5.343   4.059   0.572 -1.3787  0.0514  0.8773
13879TIP3   OH263051   1.987   0.668  13.253 -0.0676  0.7738 -0.4423
13879TIP3    H163052   2.034   0.591  13.284  0.1614  0.7600 -0.8144
13879TIP3    H263053   1.994   0.732  13.324 -0.1153  0.5105 -0.2020
13880TIP3   OH263054   2.210   0.360  15.645  0.3898 -0.0851 -0.4873
13880TIP3    H163055   2.176   0.394  15.727  1.8159 -0.0313  0.1125
13880TIP3    H263056   2.155   0.400  15.577 -1.6689 -1.1590  0.4565
13881TIP3   OH263057   0.237   1.751  12.583 -0.4905 -0.0721  0.0881
13881TIP3    H163058   0.152   1.747  12.626 -0.7057 -2.1990 -0.4045
13881TIP3    H263059   0.249   1.663  12.547  0.3663  1.1426 -2.8491
13882TIP3   OH263060   6.212   1.744  13.752 -0.2098  0.0002  0.0158
13882TIP3    H163061   6.131   1.796  13.749 -0.1058  0.1934  0.5598
13882TIP3    H263062   6.256   1.772  13.832 -0.3068 -1.1656  0.4952
13883TIP3   OH263063   1.338   4.709  13.163 -0.0823  0.2447  0.5502
13883TIP3    H163064   1.309   4.626  13.125 -0.6656  0.6833  0.0096
13883TIP3    H263065   1.377   4.757  13.090 -0.6356  0.8388  0.6292
13884TIP3   OH263066   3.915   4.542   0.656  0.1605 -0.2570 -0.3795
13884TIP3    H163067   3.925   4.590   0.737 -2.3574 -0.1571 -0.0465
13884TIP3    H263068   3.930   4.450   0.680  2.3965  0.0349 -0.4838
13885TIP3   OH263069   3.675   2.692   1.178  0.1875 -0.0691  0.0068
13885TIP3    H163070   3.755   2.665   1.223 -0.0611  0.3980  0.7506
13885TIP3    H263071   3.605   2.642   1.222  0.1154 -0.8790 -0.9880
13886TIP3   OH263072   1.080   5.142  11.597  0.2792  0.1946 -0.4382
13886TIP3    H163073   1.156   5.087  11.578  0.3778  0.8375 -2.0598
13886TIP3    H263074   1.005   5.083  11.585  0.3085  0.5829 -3.3774
13887TIP3   OH263075   2.762   4.685   2.039 -0.2621  0.3524  0.3924
13887TIP3    H163076   2.749   4.776   2.068  1.0587  0.1509  1.6923
13887TIP3    H263077   2.812   4.693   1.958 -0.7581  0.7883  0.1158
13888TIP3   OH263078   4.402   3.336  10.561  0.0365  0.0152  0.0256
13888TIP3    H163079   4.423   3.244  10.575 -0.5153  0.0242  0.9441
13888TIP3    H263080   4.478   3.370  10.514 -0.1453 -1.1101 -1.1537
13889TIP3   OH263081   6.239   4.372  11.111 -0.3179 -0.6113  0.0090
13889TIP3    H163082   6.294   4.317  11.167 -1.2940  0.8959  2.5954
13889TIP3    H263083   6.299   4.404  11.043  1.9099  0.4167  2.2886
13890TIP3   OH263084   0.519   1.817   2.576 -0.1630 -0.2203 -0.5953
13890TIP3    H163085   0.568   1.736   2.563 -0.0829  0.0322 -2.0203
13890TIP3    H263086   0.532   1.838   2.668 -0.3976 -1.9506 -0.1296
13891TIP3   OH263087   2.992   0.871   1.345  0.2730 -0.4328  0.3326
13891TIP3    H163088   2.925   0.837   1.286  0.4210  0.6029 -0.4644
13891TIP3    H263089   2.972   0.965   1.351  0.2555 -0.5157  1.9394
13892TIP3   OH263090   4.254   5.811   5.893 -0.0870 -0.4721 -0.7112
13892TIP3    H163091   4.168   5.843   5.868 -0.9307 -0.9668  1.3533
13892TIP3    H263092   4.314   5.883   5.872 -1.3385  0.7967 -0.0721
13893TIP3   OH263093   3.999   4.279  11.241 -0.0058  0.3980 -0.2201
13893TIP3    H163094   4.043   4.350  11.195 -0.6416  0.2631 -1.0589
13893TIP3    H263095   3.910   4.311  11.256 -0.8118 -0.7967 -2.0666
13894TIP3   OH263096   2.995   0.147   3.899 -0.1606 -0.4974  0.1081
13894TIP3    H163097   3.031   0.136   3.987 -1.7396  2.2459  1.2401
13894TIP3    H263098   2.901   0.158   3.913 -0.1751  2.6356 -1.5420
13895TIP3   OH263099   5.022   0.964  14.337  0.3663  0.6725  0.2179
13895TIP3    H163100   4.981   0.885  14.301  0.4960  1.2227 -1.2081
13895TIP3    H263101   5.113   0.959  14.309  0.1424  1.8266 -0.8161
13896TIP3   OH263102   2.743   6.278  15.012  0.3743 -1.0263 -0.0801
13896TIP3    H163103   2.705   6.238  14.934 -0.2330 -1.5572  0.4679
13896TIP3    H263104   2.805   6.343  14.979 -0.2019 -0.9294 -0.9944
13897TIP3   OH263105   2.784   1.251   0.159  0.1299  0.3052  0.1180
13897TIP3    H163106   2.787   1.158   0.134 -2.1021  0.2114  0.0023
13897TIP3    H263107   2.875   1.280   0.154  0.6229 -1.3519 -1.8791
13898TIP3   OH263108   2.479   3.119  16.830  0.3376 -0.0213  0.0862
13898TIP3    H163109   2.501   3.036  16.872  0.1388 -0.6717 -1.0812
13898TIP3    H263110   2.421   3.096  16.758  0.4981  1.1013 -0.4285
13899TIP3   OH263111   0.268   4.258  14.713  0.5496  0.1907 -0.0536
13899TIP3    H163112   0.362   4.243  14.707  0.7215  0.0532  2.2150
13899TIP3    H263113   0.259   4.353  14.716  0.6665  0.1927  0.2652
13900TIP3   OH263114   1.080   4.324  10.924 -0.4909  0.7099  0.0424
13900TIP3    H163115   1.122   4.246  10.888 -0.5884  1.2986 -1.4091
13900TIP3    H263116   1.004   4.338  10.868 -1.8845  0.4610  1.7727
13901TIP3   OH263117   0.553   4.087  12.812 -0.7594  0.1963  0.2756
13901TIP3    H163118   0.618   4.017  12.825 -2.2467 -1.5024 -0.9817
13901TIP3    H263119   0.574   4.123  12.726  0.8672  2.3450  1.4884
13902TIP3   OH263120   5.477   2.434  11.585  0.1367 -0.3577  0.4212
13902TIP3    H163121   5.484   2.339  11.598  0.5178 -0.9380 -3.0317
13902TIP3    H263122   5.567   2.463  11.573 -0.1194 -0.0232 -0.8622
13903TIP3   OH263123   0.378   1.280   1.912 -0.2459  0.7701  0.3279
13903TIP3    H163124   0.409   1.236   1.833  0.0951 -0.6098  1.1695
13903TIP3    H263125   0.284   1.263   1.914 -0.0316 -0.5308  0.9516
13904TIP3   OH263126   2.790   3.985   2.224 -0.6390  0.5075 -0.1949
13904TIP3    H163127   2.809   3.994   2.318  2.1185 -0.2557 -0.5888
13904TIP3    H263128   2.698   3.959   2.220 -1.1758  1.7748  2.2111
13905TIP3   OH263129   3.238   2.987  15.967  0.7192 -0.0328  0.0211
13905TIP3    H163130   3.205   2.907  15.927  0.7580  0.1875 -0.4647
13905TIP3    H263131   3.165   3.021  16.019  1.2623 -1.3426  1.7425
13906TIP3   OH263132   4.500   5.541   5.698 -0.1010  0.1310  0.4663
13906TIP3    H163133   4.532   5.508   5.782  2.5539 -0.6940 -0.7321
13906TIP3    H263134   4.535   5.630   5.692  0.3597 -0.0718 -0.0305
13907TIP3   OH263135   1.460   0.537   0.123  0.1985  0.2424 -0.1717
13907TIP3    H163136   1.520   0.545   0.198 -0.5223  1.1374  0.3331
13907TIP3    H263137   1.405   0.461   0.144 -1.6099  1.8727  1.4442
13908TIP3   OH263138   0.518   1.691  12.378 -0.2693 -0.5243  0.6101
13908TIP3    H163139   0.486   1.631  12.310  1.0410  2.2403 -2.7684
13908TIP3    H263140   0.475   1.774  12.358  3.1791  1.4013  0.5654
13909TIP3   OH263141   1.372   4.208   3.715 -0.3222 -0.2067 -0.0584
13909TIP3    H163142   1.393   4.146   3.645  0.0372 -0.7266  0.5005
13909TIP3    H263143   1.450   4.264   3.721  0.5001 -1.3953  1.2192
13910TIP3   OH263144   5.537   6.237   1.337  0.5476  0.3949  0.3796
13910TIP3    H163145   5.478   6.231   1.412  0.5380 -0.6579  0.3084
13910TIP3    H263146   5.480   6.254   1.262 -0.0539 -3.0152 -0.0944
13911TIP3   OH263147   4.740   5.667   1.572  0.3536  0.0108 -0.0345
13911TIP3    H163148   4.770   5.750   1.609  2.8988  0.2479 -2.3135
13911TIP3    H263149   4.717   5.614   1.648  2.6586  1.3849  1.7599
13912TIP3   OH263150   2.192   3.472  15.513  0.4184 -0.5893  0.7168
13912TIP3    H163151   2.183   3.412  15.587  0.4681  0.4230  1.5697
13912TIP3    H263152   2.265   3.530  15.538 -0.2440  0.4271  0.3611
13913TIP3   OH263153   0.554   1.144   1.131  0.3321 -0.2596  0.4094
13913TIP3    H163154   0.507   1.061   1.123  0.7783 -0.4465 -0.4054
13913TIP3    H263155   0.634   1.121   1.179  1.0234 -0.5609 -0.8327
13914TIP3   OH263156   0.861   0.764  15.319 -0.4738 -0.3567  0.2412
13914TIP3    H163157   0.850   0.846  15.368 -0.4192  0.1233 -0.5297
13914TIP3    H263158   0.956   0.751  15.315 -0.4316  0.1573 -0.6142
13915TIP3   OH263159   0.163   5.068  13.792  0.1405 -0.0860  0.0486
13915TIP3    H163160   0.115   5.151  13.786 -1.1796 -0.8202  0.1001
13915TIP3    H263161   0.212   5.063  13.711 -1.1331 -0.0549 -0.7454
13916TIP3   OH263162   3.221   3.893  17.135  0.4375 -0.8089 -0.0697
13916TIP3    H163163   3.137   3.848  17.142  0.3502 -0.4659  1.4206
13916TIP3    H263164   3.198   3.984  17.116  0.3677 -0.4060  1.7726
13917TIP3   OH263165   5.739   3.221   1.781 -0.0859 -0.2777  0.0992
13917TIP3    H163166   5.776   3.243   1.866  0.0834 -0.4760  0.0769
13917TIP3    H263167   5.791   3.271   1.718 -0.0262 -0.3519  0.0893
13918TIP3   OH263168   2.494   5.993  14.513  0.0097 -0.2977  0.0257
13918TIP3    H163169   2.549   5.914  14.519  1.3089  0.4936 -0.9372
13918TIP3    H263170   2.457   6.002  14.600  1.7847 -0.6328  0.8687
13919TIP3   OH263171   1.919   1.405   3.664 -0.3971 -0.3855  0.4942
13919TIP3    H163172   2.001   1.396   3.713 -1.1167  1.4979  2.1849
13919TIP3    H263173   1.851   1.379   3.727 -1.1915 -0.7700 -0.4960
13920TIP3   OH263174   0.175   6.549  13.403 -0.2111 -0.6148  0.1350
13920TIP3    H163175   0.092   6.534  13.359  0.7326  0.1651 -2.0426
13920TIP3    H263176   0.172   6.641  13.431 -0.4063 -0.8294  0.8470
13921TIP3   OH263177   3.247   2.869   1.869 -0.1786 -0.5943 -0.0420
13921TIP3    H163178   3.259   2.781   1.905 -0.5732 -0.5412  0.2156
13921TIP3    H263179   3.332   2.889   1.828  0.4523 -0.4554  1.2832
13922TIP3   OH263180   3.090   4.906  17.139  0.1068 -0.0408 -0.1666
13922TIP3    H163181   3.134   4.821  17.144  1.9348  0.9259  1.5932
13922TIP3    H263182   3.114   4.941  17.053  1.2705 -0.3406  0.0198
13923TIP3   OH263183   6.301   0.208  16.242  0.2213 -0.0784  0.3711
13923TIP3    H163184   6.290   0.181  16.333 -0.7770 -0.9492  0.0156
13923TIP3    H263185   6.262   0.295  16.238  0.9956  0.3069  0.9424
13924TIP3   OH263186   1.872   6.442  17.170 -0.1046 -0.5185 -0.3142
13924TIP3    H163187   1.847   6.525  17.211  0.7016 -0.3118 -0.2320
13924TIP3    H263188   1.841   6.451  17.079 -0.1814 -0.2037 -0.2590
13925TIP3   OH263189   2.324   5.611  12.446 -0.0745  0.2928 -0.2150
13925TIP3    H163190   2.385   5.628  12.374  0.5468 -1.6023 -0.2011
13925TIP3    H263191   2.334   5.518  12.464 -1.0373  0.4908  1.5964
13926TIP3   OH263192   2.890   3.793  14.113  0.1809 -0.0732  0.4045
13926TIP3    H163193   2.894   3.839  14.197  0.0274 -0.8521  0.8501
13926TIP3    H263194   2.814   3.735  14.121  0.9870 -1.1895  0.2781
13927TIP3   OH263195   5.119   5.376  14.956  0.4089  0.1220  0.6630
13927TIP3    H163196   5.100   5.377  15.050  0.7149  0.7781  0.7227
13927TIP3    H263197   5.207   5.413  14.949  1.0233 -1.3520  0.2443
13928TIP3   OH263198   4.752   2.650   2.470 -0.0235  0.0533  1.0714
13928TIP3    H163199   4.751   2.555   2.475  0.0650 -0.0595 -0.6008
13928TIP3    H263200   4.844   2.673   2.461 -0.2025  0.0277 -1.8016
13929TIP3   OH263201   5.028   6.778   1.031 -0.2867 -0.3573 -0.0288
13929TIP3    H163202   5.118   6.770   1.062  0.1237  0.5022 -0.9520
13929TIP3    H263203   5.004   6.690   1.000  0.1894 -0.6095  0.3168
13930TIP3   OH263204   3.116   6.322   0.544 -0.0502  0.2515  0.2700
13930TIP3    H163205   3.047   6.305   0.608 -1.2514 -2.0552 -1.5099
13930TIP3    H263206   3.198   6.307   0.592 -0.7564  1.6787  2.0405
13931TIP3   OH263207   6.542   1.507  15.422  0.0181 -0.1088 -0.4543
13931TIP3    H163208   6.483   1.456  15.477  2.1329 -1.6227  0.5457
13931TIP3    H263209   6.600   1.551  15.484  2.2190 -1.5444 -1.3687
13932TIP3   OH263210   5.664   1.228   5.372 -0.1498 -0.0146 -0.0694
13932TIP3    H163211   5.680   1.316   5.338  1.3246  0.6953  2.1780
13932TIP3    H263212   5.728   1.173   5.328  2.7136  1.1400  2.2796
13933TIP3   OH263213   1.301   5.754  10.819 -0.0613  0.0682 -0.5004
13933TIP3    H163214   1.249   5.699  10.761 -1.0953 -1.2754  1.5744
13933TIP3    H263215   1.391   5.739  10.791 -0.2860 -2.8085 -0.0454
13934TIP3   OH263216   1.949   6.555   1.593 -0.5716 -0.0894  0.1583
13934TIP3    H163217   2.025   6.609   1.615 -1.3707  0.5707  1.5347
13934TIP3    H263218   1.982   6.466   1.586  0.1946  0.0361  1.7461
13935TIP3   OH263219   5.533   3.096  16.715  0.1522 -0.1395  0.2819
13935TIP3    H163220   5.549   3.063  16.804 -0.2100 -0.5274  0.2068
13935TIP3    H263221   5.471   3.034  16.678  1.0818 -0.5701 -0.5982
13936TIP3   OH263222   2.531   0.715   3.248 -0.7548  0.5525 -0.0451
13936TIP3    H163223   2.599   0.740   3.185  0.7962 -0.0819  1.3202
13936TIP3    H263224   2.482   0.796   3.263  0.0354  1.1645 -0.6468
13937TIP3   OH263225   2.616   5.503   2.589 -0.5710  0.7466 -0.0338
13937TIP3    H163226   2.684   5.568   2.605  0.3093  0.2061 -1.3984
13937TIP3    H263227   2.612   5.452   2.670 -0.6368  1.9123  0.7104
13938TIP3   OH263228   4.269   5.043   2.675  0.0817  0.6724 -0.2748
13938TIP3    H163229   4.350   5.092   2.672  0.3771  0.2662  0.6264
13938TIP3    H263230   4.200   5.108   2.658  0.4275  1.4958  1.2823
13939TIP3   OH263231   2.481   4.625  13.485 -0.2406 -0.1376 -0.2444
13939TIP3    H163232   2.573   4.601  13.480  0.0260  0.6996  0.4161
13939TIP3    H263233   2.456   4.644  13.394  0.2844 -0.1955 -0.4018
13940TIP3   OH263234   1.382   1.691  14.994 -0.8803  0.6017  0.3203
13940TIP3    H163235   1.385   1.686  15.090 -0.9829 -2.3407  0.2640
13940TIP3    H263236   1.468   1.661  14.966 -1.5930 -0.7542 -0.5018
13941TIP3   OH263237   4.417   1.371   3.213 -0.1058  0.2980  0.4866
13941TIP3    H163238   4.349   1.437   3.224 -0.7148 -0.3920  0.9654
13941TIP3    H263239   4.467   1.400   3.137 -1.0824  0.6779 -0.0188
13942TIP3   OH263240   4.248   5.950   2.520  0.3677  0.2027 -0.0501
13942TIP3    H163241   4.314   5.994   2.466 -0.2916  0.3094 -0.7823
13942TIP3    H263242   4.190   6.019   2.550 -0.5140 -0.1114 -0.9838
13943TIP3   OH263243   2.314   4.454   3.146 -0.6221 -0.0771 -0.0429
13943TIP3    H163244   2.363   4.462   3.228  0.4244  0.2073 -0.6786
13943TIP3    H263245   2.240   4.397   3.168 -0.4476  0.1164  1.1328
13944TIP3   OH263246   6.556   2.349  14.749 -0.0218 -0.3327 -0.0706
13944TIP3    H163247   6.555   2.373  14.842  1.2652 -1.2719  0.2048
13944TIP3    H263248   6.564   2.433  14.703 -0.0305  0.0964  0.6859
13945TIP3   OH263249   3.698   6.759   3.999 -0.7315  0.3783 -0.2322
13945TIP3    H163250   3.746   6.707   3.935  0.2009 -1.0477  1.5222
13945TIP3    H263251   3.741   6.844   3.997 -0.6715  0.3428 -1.4094
13946TIP3   OH263252   2.115   1.144   4.928 -0.2247  0.4980 -0.3736
13946TIP3    H163253   2.058   1.184   4.993 -0.6801  0.2348 -0.6079
13946TIP3    H263254   2.133   1.056   4.963  0.0149  0.5716 -0.3122
13947TIP3   OH263255   2.166   3.536  14.802  0.5846  0.6499 -0.5578
13947TIP3    H163256   2.099   3.604  14.808 -0.4261 -0.3310 -0.2788
13947TIP3    H263257   2.237   3.567  14.859 -1.1880  0.0416  2.1820
13948TIP3   OH263258   6.165   3.689   0.336 -0.3244 -0.4437  1.0120
13948TIP3    H163259   6.186   3.600   0.365 -1.5894 -0.2823  2.6028
13948TIP3    H263260   6.074   3.684   0.308 -0.2811  0.2625  0.7252
13949TIP3   OH263261   0.958   3.379  14.478  0.6464  0.6021  0.8450
13949TIP3    H163262   0.941   3.395  14.385  1.3614  1.6445  0.8741
13949TIP3    H263263   0.875   3.397  14.521  0.7239  1.7085  0.5697
13950TIP3   OH263264   4.623   6.333  13.859  0.1159  0.0754 -0.5326
13950TIP3    H163265   4.679   6.395  13.810 -1.2113  1.7674 -0.0160
13950TIP3    H263266   4.572   6.288  13.792  0.4525  0.1982 -0.8749
13951TIP3   OH263267   3.329   0.060  11.519 -0.2208  0.5691 -0.7157
13951TIP3    H163268   3.359   0.048  11.609 -3.4951  1.4746  0.6371
13951TIP3    H263269   3.387   0.128  11.484  0.0912  1.4375  1.2977
13952TIP3   OH263270   0.286   3.936   5.013  0.0351  0.6510  0.4130
13952TIP3    H163271   0.235   3.856   5.026 -0.6155  1.1924  1.3469
13952TIP3    H263272   0.219   4.005   5.003  0.5230  0.8560 -2.3164
13953TIP3   OH263273   0.673   0.316   6.778 -0.2458  0.3500  0.0461
13953TIP3    H163274   0.701   0.277   6.860 -0.1249 -0.3352 -0.3088
13953TIP3    H263275   0.743   0.296   6.716  0.9584  3.1549  0.3694
13954TIP3   OH263276   3.631   6.320  13.319  0.3790 -0.6075  0.3627
13954TIP3    H163277   3.612   6.302  13.411 -0.0697 -0.2887  0.3374
13954TIP3    H263278   3.638   6.415  13.314 -1.8565 -0.4107 -0.3190
13955TIP3   OH263279   6.434   2.798  14.254 -0.3273 -1.0562  0.3292
13955TIP3    H163280   6.359   2.807  14.196 -0.1678 -0.0727  0.2575
13955TIP3    H263281   6.478   2.883  14.250  0.4786 -1.4391  0.7948
13956TIP3   OH263282   3.236   3.169   1.065  0.0547 -0.0750  0.6249
13956TIP3    H163283   3.324   3.152   1.098 -0.1292  1.8923  2.3350
13956TIP3    H263284   3.243   3.253   1.020 -0.6540 -0.6479 -0.6172
13957TIP3   OH263285   1.371   2.768   4.170  0.6530  0.0475  0.0670
13957TIP3    H163286   1.389   2.841   4.230  0.7851 -0.2851  0.4401
13957TIP3    H263287   1.346   2.810   4.088 -2.1740  0.5935  1.0769
13958TIP3   OH263288   3.107   1.603  16.935 -0.3626 -0.0355 -0.3255
13958TIP3    H163289   3.149   1.522  16.908  1.4976  0.6368  0.3790
13958TIP3    H263290   3.017   1.578  16.956  0.2669 -1.9829  0.2376
13959TIP3   OH263291   5.424   5.899   0.573  0.1234  0.1691  0.4253
13959TIP3    H163292   5.393   5.945   0.494  0.1913  1.2480  1.0005
13959TIP3    H263293   5.344   5.866   0.613  0.0628 -0.1506  0.0506
13960TIP3   OH263294   0.658   5.538  10.971 -0.4392  0.3725 -0.0938
13960TIP3    H163295   0.606   5.516  10.894  0.9568  0.2783 -1.0560
13960TIP3    H263296   0.717   5.607  10.941  0.4073  0.0487  0.7575
13961TIP3   OH263297   1.272   1.361  15.943  0.7175  0.3293  0.0668
13961TIP3    H163298   1.249   1.347  15.851 -1.8069  1.3666  0.4787
13961TIP3    H263299   1.219   1.297  15.991  2.6448 -0.7909  0.8239
13962TIP3   OH263300   5.238   1.042   1.877  0.0154 -0.3578 -0.0978
13962TIP3    H163301   5.200   1.129   1.873  0.7750 -0.0663 -1.1849
13962TIP3    H263302   5.309   1.050   1.941 -0.5599 -0.4605  0.5782
13963TIP3   OH263303   0.736   1.269   5.562 -0.4675  0.4741 -0.3957
13963TIP3    H163304   0.789   1.248   5.485  0.1337  0.1624  0.0977
13963TIP3    H263305   0.747   1.194   5.620  0.6152  1.5079  0.8080
13964TIP3   OH263306   1.841   0.143  12.764 -0.1556 -0.0241 -0.6518
13964TIP3    H163307   1.934   0.144  12.740 -0.0216  2.3762 -0.2433
13964TIP3    H263308   1.805   0.069  12.715  2.2639 -2.1795  0.5789
13965TIP3   OH263309   5.991   0.120  16.256  0.0947 -0.0892 -0.3536
13965TIP3    H163310   6.005   0.123  16.162  1.5706 -0.8048 -0.1970
13965TIP3    H263311   6.065   0.068  16.289 -1.0125 -0.8304  1.0703
13966TIP3   OH263312   3.130   0.672  16.040 -0.7194 -0.3179 -0.2304
13966TIP3    H163313   3.189   0.622  16.097 -2.6699 -2.6098 -0.0309
13966TIP3    H263314   3.120   0.756  16.084  3.7910  1.0263 -1.2745
13967TIP3   OH263315   0.826   6.139  15.661 -0.1676 -0.1811  0.6737
13967TIP3    H163316   0.744   6.112  15.618  0.0203  0.6514 -0.2456
13967TIP3    H263317   0.863   6.205  15.602  0.6066  0.2683  1.6415
13968TIP3   OH263318   1.576   4.785  13.970 -0.2005  0.1450  0.6522
13968TIP3    H163319   1.493   4.769  14.014 -0.6161  0.3365 -0.0463
13968TIP3    H263320   1.588   4.880  13.974  0.1034  0.0978  0.9508
13969TIP3   OH263321   3.951   1.907   2.420 -0.2436 -0.3926  0.0385
13969TIP3    H163322   3.858   1.926   2.432  0.1137  1.1044  0.6302
13969TIP3    H263323   3.970   1.840   2.485 -1.0205 -1.1168 -0.4651
13970TIP3   OH263324   2.015   4.296   4.365 -0.0845 -0.4761 -0.2734
13970TIP3    H163325   1.950   4.309   4.296  1.2419 -1.6128 -1.8062
13970TIP3    H263326   2.086   4.247   4.323  0.0068 -2.8518  2.3257
13971TIP3   OH263327   2.528   5.948  16.518 -0.3583 -0.2866  0.3135
13971TIP3    H163328   2.597   6.005  16.482 -1.0971  0.2792 -0.2361
13971TIP3    H263329   2.457   5.953  16.454 -2.0981  1.4898  2.2309
13972TIP3   OH263330   0.490   1.743   1.104 -0.1622  0.3553 -0.1202
13972TIP3    H163331   0.472   1.777   1.017  0.5690  0.5004 -0.2207
13972TIP3    H263332   0.566   1.686   1.093  1.2304  1.9248  0.7144
13973TIP3   OH263333   4.475   0.408  14.320 -0.9548  0.2729 -0.0510
13973TIP3    H163334   4.465   0.497  14.287 -0.9877  0.4934  0.5445
13973TIP3    H263335   4.386   0.382  14.347 -0.8415  0.2844  0.3359
13974TIP3   OH263336   0.414   4.059   4.418  0.4040  0.0577  0.3368
13974TIP3    H163337   0.397   4.004   4.342 -1.8760 -0.4096  1.1068
13974TIP3    H263338   0.484   4.119   4.390  0.3718 -0.8088 -1.7282
13975TIP3   OH263339   5.652   6.613  16.915  0.0324  0.0696  0.6529
13975TIP3    H163340   5.675   6.525  16.945  0.9419 -0.2250 -0.7920
13975TIP3    H263341   5.560   6.623  16.937 -0.0902 -1.2688  0.8118
13976TIP3   OH263342   2.213   4.990  11.361  0.6263 -0.3164 -0.1005
13976TIP3    H163343   2.215   5.073  11.313  0.6932 -0.8002 -0.9544
13976TIP3    H263344   2.260   4.929  11.304  2.6465 -0.4034  1.5668
13977TIP3   OH263345   0.498   3.223   3.452  0.0289  0.4025  0.2910
13977TIP3    H163346   0.429   3.183   3.399  0.7098  1.0061 -1.0974
13977TIP3    H263347   0.531   3.295   3.398  0.9471  0.8672  1.4299
13978TIP3   OH263348   0.860   1.336  16.017  0.3217  0.0173 -0.0908
13978TIP3    H163349   0.824   1.257  16.056 -1.1062  1.2875  1.2998
13978TIP3    H263350   0.900   1.384  16.090 -1.7052  2.0654 -0.2226
13979TIP3   OH263351   5.602   3.126   0.342  0.0646 -0.2299 -0.0980
13979TIP3    H163352   5.641   3.206   0.375  0.4535 -1.8836  4.1869
13979TIP3    H263353   5.676   3.070   0.319 -0.1690  0.0837 -1.7306
13980TIP3   OH263354   4.199   4.442   4.034 -0.2119 -0.1149 -0.0105
13980TIP3    H163355   4.138   4.509   4.066 -2.8530 -1.4404 -1.9137
13980TIP3    H263356   4.143   4.370   4.005  2.3486 -1.8025 -1.1442
13981TIP3   OH263357   4.873   5.498   3.063 -0.1002 -0.1157  0.4126
13981TIP3    H163358   4.783   5.527   3.078 -0.1093  0.0790 -0.0043
13981TIP3    H263359   4.927   5.573   3.087  0.0007 -0.4801  1.3760
13982TIP3   OH263360   4.740   5.158   2.842  0.4217  0.1219  0.3452
13982TIP3    H163361   4.718   5.069   2.870 -1.8096  1.1560  2.2666
13982TIP3    H263362   4.807   5.187   2.904  1.4565 -0.3087 -0.5379
13983TIP3   OH263363   4.593   5.831   4.252 -0.2566  0.5860  0.8794
13983TIP3    H163364   4.538   5.869   4.320 -0.3068 -0.2579  1.3227
13983TIP3    H263365   4.604   5.740   4.278 -0.2214  0.2593 -0.2055
13984TIP3   OH263366   2.451   2.121  11.173  0.1466  0.5107  0.0662
13984TIP3    H163367   2.528   2.128  11.117  0.8025 -1.5322  0.6110
13984TIP3    H263368   2.474   2.168  11.252  1.0626 -0.4832  0.4126
13985TIP3   OH263369   6.358   5.859  11.775 -0.3273  0.5103  0.1600
13985TIP3    H163370   6.452   5.850  11.757 -0.0439  1.4261  1.0570
13985TIP3    H263371   6.315   5.826  11.697  0.7408 -0.1619 -0.1707
13986TIP3   OH263372   1.156   1.991   2.525 -0.0310 -0.5464  0.0302
13986TIP3    H163373   1.068   1.983   2.561 -0.6402  0.2348 -1.2386
13986TIP3    H263374   1.144   1.989   2.430  1.4124 -1.3207 -0.1713
13987TIP3   OH263375   3.850   1.253  14.895  0.3146 -0.4360  0.3300
13987TIP3    H163376   3.882   1.258  14.805  1.1549 -2.0022  0.5094
13987TIP3    H263377   3.913   1.305  14.945  0.1167  0.0414  0.0920
13988TIP3   OH263378   2.461   6.239   4.526  0.7132  0.1053 -0.2184
13988TIP3    H163379   2.453   6.309   4.591  0.2097  0.8584 -1.0642
13988TIP3    H263380   2.478   6.161   4.577  0.6695  0.7414  0.8000
13989TIP3   OH263381   6.005   3.660  15.599 -0.4333  0.0390  0.0392
13989TIP3    H163382   6.062   3.606  15.654 -0.9507  1.2814  1.9071
13989TIP3    H263383   5.993   3.609  15.519 -0.7239 -2.5058  1.6032
13990TIP3   OH263384   6.478   0.776   6.768 -0.2807  0.3048 -0.1864
13990TIP3    H163385   6.478   0.746   6.677 -0.4311  0.8735 -0.3773
13990TIP3    H263386   6.386   0.793   6.788 -0.2594  0.0829  0.1039
13991TIP3   OH263387   3.868   6.783  15.106 -0.0738  0.3964  0.0748
13991TIP3    H163388   3.862   6.701  15.057  3.7824  0.4357 -0.7183
13991TIP3    H263389   3.826   6.848  15.049  0.0964 -0.4077 -0.9964
13992TIP3   OH263390   3.684   6.601   3.481 -0.0326  0.3808 -0.4150
13992TIP3    H163391   3.745   6.536   3.446 -1.1246 -1.0658  0.2702
13992TIP3    H263392   3.735   6.651   3.545  0.4118 -0.8548  0.2094
13993TIP3   OH263393   6.352   0.862  12.414  0.3174  0.2602  0.3774
13993TIP3    H163394   6.356   0.773  12.450 -2.2002 -0.2678 -0.4607
13993TIP3    H263395   6.263   0.892  12.435  0.7731  2.2026 -0.2746
13994TIP3   OH263396   1.416   1.674   4.195 -0.0531 -0.2485  0.0758
13994TIP3    H163397   1.422   1.644   4.285  0.0976  0.2344  0.2275
13994TIP3    H263398   1.321   1.679   4.178 -0.0853  0.1725  0.3784
13995TIP3   OH263399   5.915   2.964  14.297 -0.1144  0.4708  0.3956
13995TIP3    H163400   5.823   2.962  14.269 -0.2007 -3.1749  0.5020
13995TIP3    H263401   5.919   2.901  14.369  2.4153  0.9168  0.7218
13996TIP3   OH263402   2.754   0.731   0.989  0.0027 -0.1380  0.5891
13996TIP3    H163403   2.791   0.817   0.971 -0.3514  0.1589  1.2705
13996TIP3    H263404   2.802   0.700   1.066 -0.2166 -0.3357  0.6472
13997TIP3   OH263405   3.363   5.832   4.072 -0.1965 -0.4451 -0.4663
13997TIP3    H163406   3.405   5.918   4.063  1.6405 -1.3878 -1.3189
13997TIP3    H263407   3.324   5.815   3.986 -0.4313 -0.5212 -0.3447
13998TIP3   OH263408   4.533   1.935  12.481  0.0319 -0.2062  0.6024
13998TIP3    H163409   4.438   1.939  12.491 -0.1991 -2.1513 -0.4155
13998TIP3    H263410   4.558   1.852  12.520  1.5561  0.9075  2.1698
13999TIP3   OH263411   4.586   3.821   0.211  0.4475  0.5281 -0.2848
13999TIP3    H163412   4.671   3.792   0.246  0.4065  0.9835  0.2158
13999TIP3    H263413   4.556   3.887   0.274 -1.2753 -1.1236  0.7387
14000TIP3   OH263414   1.887   2.631   3.895  0.3825 -0.0830 -0.3913
14000TIP3    H163415   1.920   2.676   3.817  0.8832 -1.7600 -1.1882
14000TIP3    H263416   1.805   2.592   3.867  1.0594 -1.5553 -0.4220
14001TIP3   OH263417   5.495   2.591  12.486 -0.1693 -0.2146  0.3412
14001TIP3    H163418   5.572   2.584  12.542 -1.0743  2.5167  2.0938
14001TIP3    H263419   5.446   2.666  12.520 -2.5449 -0.5191 -2.0265
14002TIP3   OH263420   4.422   6.499  11.051 -0.5451  0.6626 -0.0886
14002TIP3    H163421   4.366   6.479  10.975 -0.5738 -0.7711  0.2812
14002TIP3    H263422   4.401   6.430  11.114 -0.9595  2.1765  1.4817
14003TIP3   OH263423   2.903   0.426   4.682 -0.0663  0.1707 -0.0770
14003TIP3    H163424   2.908   0.344   4.634  1.8751 -0.3311  0.8715
14003TIP3    H263425   2.937   0.492   4.620  0.0534 -0.0347 -0.2306
14004TIP3   OH263426   4.503   0.430   6.567 -0.4373  0.0858  0.0039
14004TIP3    H163427   4.553   0.511   6.560 -1.3724  0.5376 -2.0367
14004TIP3    H263428   4.561   0.363   6.531  0.0162 -0.0306  0.9229
14005TIP3   OH263429   2.656   6.755  17.091  0.2913  0.1252  0.0581
14005TIP3    H163430   2.741   6.715  17.072 -0.1842 -0.1791 -1.5662
14005TIP3    H263431   2.614   6.693  17.152  1.2415  0.3191  0.9353
14006TIP3   OH263432   6.155   6.665   1.901 -0.0563 -0.0142  0.2700
14006TIP3    H163433   6.226   6.607   1.928 -0.0212 -0.2389 -0.2935
14006TIP3    H263434   6.151   6.732   1.970  1.1505  0.3903 -0.0352
14007TIP3   OH263435   2.465   1.513  16.393 -0.1614 -0.0754 -0.4319
14007TIP3    H163436   2.465   1.420  16.370  0.1012 -0.0392 -0.5805
14007TIP3    H263437   2.381   1.545  16.360 -0.8696 -0.5583  0.8570
14008TIP3   OH263438   3.981   2.524   4.222 -0.3052 -0.7035 -0.1394
14008TIP3    H163439   4.010   2.520   4.313 -1.3106  0.7107  0.2950
14008TIP3    H263440   4.012   2.443   4.182  0.3617 -1.2353  1.4008
14009TIP3   OH263441   0.022   3.389   2.965  0.1156 -0.2743 -0.2777
14009TIP3    H163442  -0.000   3.440   3.043 -1.3612 -0.1818 -0.7178
14009TIP3    H263443   0.068   3.451   2.908  0.7787 -0.2125  0.3145
14010TIP3   OH263444   4.057   0.305  16.091 -0.6167  0.5474  0.2605
14010TIP3    H163445   4.009   0.222  16.086  0.5870 -0.0929 -1.2407
14010TIP3    H263446   3.991   0.372  16.075 -1.0787 -0.3145 -1.6814
14011TIP3   OH263447   6.105   4.034  13.683  0.4117  0.1588  0.3105
14011TIP3    H163448   6.131   4.072  13.767 -0.2675 -1.0087  1.0760
14011TIP3    H263449   6.009   4.044  13.681  0.4624  0.5426 -0.5151
14012TIP3   OH263450   1.243   1.702  13.802 -0.1794 -0.5170 -0.1875
14012TIP3    H163451   1.200   1.675  13.884  0.2166 -0.6705 -0.0265
14012TIP3    H263452   1.173   1.702  13.737 -0.6817  0.4710  0.3359
14013TIP3   OH263453   2.874   6.639  12.100  0.1592  0.1149 -0.8050
14013TIP3    H163454   2.787   6.600  12.086  0.7296 -1.2699 -0.5995
14013TIP3    H263455   2.868   6.681  12.185 -0.2541 -0.1329 -0.7072
14014TIP3   OH263456   0.792   5.185  14.202 -0.3580  0.2846  0.3152
14014TIP3    H163457   0.849   5.262  14.195  1.6802 -1.2056 -0.5503
14014TIP3    H263458   0.710   5.213  14.163  0.6023  1.8022 -0.7485
14015TIP3   OH263459   4.060   3.043  16.797  0.4750 -0.5756  0.2626
14015TIP3    H163460   4.082   2.976  16.861  0.7208  0.3082  1.1357
14015TIP3    H263461   4.110   3.120  16.825 -0.3831  0.1941 -0.2620
14016TIP3   OH263462   0.592   2.034  14.337 -0.2031  0.5992 -0.4220
14016TIP3    H163463   0.636   2.092  14.274 -2.2115  0.1201 -2.3981
14016TIP3    H263464   0.514   2.083  14.364 -0.2523  0.0861  0.3684
14017TIP3   OH263465   4.174   4.781  12.347 -0.2488  0.2925 -0.1705
14017TIP3    H163466   4.156   4.866  12.308  2.2367  1.4651  0.9837
14017TIP3    H263467   4.270   4.775  12.348 -0.3193 -1.6775  1.4733
14018TIP3   OH263468   5.498   3.570  12.694 -0.4661 -0.1076  0.4741
14018TIP3    H163469   5.448   3.514  12.635 -2.0278 -0.2463  1.8317
14018TIP3    H263470   5.512   3.651  12.644  0.9365 -1.2730 -1.1341
14019TIP3   OH263471   3.224   4.392  13.833  0.1259  0.1021  0.2751
14019TIP3    H163472   3.286   4.319  13.835 -0.3489 -0.2932  1.2274
14019TIP3    H263473   3.195   4.400  13.924 -0.7080  0.7164 -0.0451
14020TIP3   OH263474   1.020   5.951  15.762 -0.2737  0.1929 -0.2502
14020TIP3    H163475   0.943   5.997  15.728 -0.5607 -0.7103 -0.8573
14020TIP3    H263476   1.094   5.992  15.717 -0.4671  0.4591 -0.3317
14021TIP3   OH263477   6.159   6.309   3.743  0.0747 -0.3803  0.0855
14021TIP3    H163478   6.064   6.293   3.744  0.0209 -0.0819 -0.0227
14021TIP3    H263479   6.197   6.230   3.781 -0.3003  0.0237  1.3724
14022TIP3   OH263480   1.014   1.565   3.811 -0.1630 -0.5885  0.2255
14022TIP3    H163481   0.924   1.565   3.844  0.0139 -1.6781  0.7753
14022TIP3    H263482   1.042   1.474   3.818 -0.0785 -0.9130 -2.9868
14023TIP3   OH263483   6.606   6.674   2.962  0.7498 -0.1404  0.1173
14023TIP3    H163484   6.608   6.624   2.880  0.8928 -0.4945  0.3349
14023TIP3    H263485   6.522   6.720   2.960  0.7119 -0.2196 -0.1835
14024TIP3   OH263486   5.363   2.806  12.597 -0.4317  0.1679  0.3968
14024TIP3    H163487   5.354   2.763  12.682  1.3850 -2.0903 -0.4271
14024TIP3    H263488   5.442   2.860  12.605  0.0001 -0.3962  0.0508
14025TIP3   OH263489   2.590   4.622   2.244 -0.6380  0.4453  0.1330
14025TIP3    H163490   2.653   4.635   2.173 -0.2446 -2.3699 -0.1421
14025TIP3    H263491   2.505   4.618   2.201 -0.4515 -0.7603 -0.1405
14026TIP3   OH263492   6.038   4.168  17.089  0.9731  0.2630 -0.0436
14026TIP3    H163493   6.008   4.254  17.060 -0.4712 -0.5075 -0.9582
14026TIP3    H263494   5.969   4.107  17.061  1.0716 -0.9820  2.1457
14027TIP3   OH263495   4.473   3.981  10.949 -0.4565  0.1834 -0.3900
14027TIP3    H163496   4.498   3.947  11.035  1.7476  0.3265 -0.9005
14027TIP3    H263497   4.460   3.902  10.895 -0.8853  0.0997 -0.1623
14028TIP3   OH263498   5.259   3.247  14.426  0.3898  0.5667 -0.0021
14028TIP3    H163499   5.319   3.284  14.360  2.6491 -2.0769  0.3744
14028TIP3    H263500   5.289   3.284  14.509  0.9668 -0.0771  0.0859
14029TIP3   OH263501   2.561   6.013  16.915  0.3494 -0.0031 -0.2079
14029TIP3    H163502   2.565   5.919  16.934  0.2568 -0.2712 -1.4485
14029TIP3    H263503   2.641   6.031  16.867 -0.6267  0.0665 -1.9121
14030TIP3   OH263504   2.579   4.681   5.321 -0.3413  0.3544  0.3204
14030TIP3    H163505   2.641   4.660   5.391  0.1006 -0.8581 -0.4088
14030TIP3    H263506   2.566   4.776   5.329  0.2002  0.3373  1.6232
14031TIP3   OH263507   5.751   2.212  15.215  0.1914  0.6778 -0.4247
14031TIP3    H163508   5.806   2.186  15.141 -1.7679 -1.9325 -1.1350
14031TIP3    H263509   5.723   2.301  15.195 -0.1159  0.1042 -2.7933
14032TIP3   OH263510   1.683   4.700  16.722  0.0632  0.4122  0.1505
14032TIP3    H163511   1.705   4.773  16.780 -1.1552  0.0779  1.0628
14032TIP3    H263512   1.755   4.638  16.733  0.0763  0.5578  0.9864
14033TIP3   OH263513   0.202   3.521  12.518 -0.0626  0.2098 -0.0137
14033TIP3    H163514   0.171   3.610  12.500 -0.8805 -0.5066 -2.5353
14033TIP3    H263515   0.289   3.518  12.478  1.0767  0.5338  2.2354
14034TIP3   OH263516   0.247   4.666  12.753  0.0840  0.2138  0.3024
14034TIP3    H163517   0.282   4.582  12.726  2.0498  0.3843  2.0586
14034TIP3    H263518   0.181   4.687  12.687 -0.1021 -2.4278 -0.4540
14035TIP3   OH263519   2.220   1.887   4.061 -0.0976  0.2074 -0.5555
14035TIP3    H163520   2.266   1.808   4.089  1.8074  1.2414 -0.5651
14035TIP3    H263521   2.132   1.879   4.098  0.2211 -1.6522 -0.1319
14036TIP3   OH263522   4.216   4.290   4.680 -0.2974  0.2324 -0.1773
14036TIP3    H163523   4.209   4.204   4.722 -1.5594  0.3137 -0.1929
14036TIP3    H263524   4.126   4.319   4.669 -0.0089  0.3791 -2.6530
14037TIP3   OH263525   3.360   0.199  14.531  0.2612 -0.3887  0.4379
14037TIP3    H163526   3.337   0.133  14.596 -0.8714 -1.1155 -0.6612
14037TIP3    H263527   3.456   0.203  14.533  0.4568 -2.9567 -0.2850
14038TIP3   OH263528   5.798   2.029   3.390 -0.1574  0.3696 -0.7260
14038TIP3    H163529   5.704   2.013   3.383 -0.7534  2.3090  1.6958
14038TIP3    H263530   5.838   1.943   3.374 -2.3276 -0.6461 -1.1190
14039TIP3   OH263531   0.626   4.826  14.913  0.1809 -0.1995 -0.1747
14039TIP3    H163532   0.605   4.733  14.910  2.0029 -0.6265 -0.9112
14039TIP3    H263533   0.695   4.833  14.979  2.0947  0.1476 -2.1229
14040TIP3   OH263534   3.523   2.445   5.841 -0.0159 -0.4834 -0.1330
14040TIP3    H163535   3.490   2.361   5.874 -1.2787 -0.6271 -1.6196
14040TIP3    H263536   3.506   2.507   5.912 -0.0763 -1.2772  0.5624
14041TIP3   OH263537   0.902   2.292   2.235 -0.1608 -0.6564  0.2237
14041TIP3    H163538   0.895   2.314   2.142  0.4919  2.6496  0.8130
14041TIP3    H263539   0.990   2.320   2.259 -0.7322 -0.3116  2.0569
14042TIP3   OH263540   3.392   1.448  13.431  0.1422  0.0285 -0.1191
14042TIP3    H163541   3.430   1.438  13.344 -0.8332 -2.5610 -0.3376
14042TIP3    H263542   3.315   1.504  13.419 -0.8037 -1.4506 -1.2401
14043TIP3   OH263543   4.799   4.000   4.715 -0.0707  0.2896  0.0116
14043TIP3    H163544   4.768   4.036   4.632 -2.6923  1.7281  1.4730
14043TIP3    H263545   4.851   3.923   4.690  0.7204  1.6414 -2.9805
14044TIP3   OH263546   3.407   0.071   5.152  0.0135 -0.4058  0.4611
14044TIP3    H163547   3.409   0.162   5.121 -0.3691  0.2936  2.4069
14044TIP3    H263548   3.500   0.048   5.163  0.1469 -0.5656 -0.8242
14045TIP3   OH263549   4.047   5.073   4.013  0.2465  0.1810  0.5474
14045TIP3    H163550   4.129   5.068   3.966 -0.3197  0.3170 -0.4740
14045TIP3    H263551   4.008   5.156   3.986 -0.6566 -0.3103  0.2945
14046TIP3   OH263552   1.668   3.113  11.380  0.0176 -0.1616 -0.0652
14046TIP3    H163553   1.624   3.086  11.300 -1.1728 -1.9082  1.1226
14046TIP3    H263554   1.632   3.200  11.398  0.4107  0.3180 -1.4754
14047TIP3   OH263555   4.610   1.293  12.153 -0.3455 -0.7143 -0.2762
14047TIP3    H163556   4.697   1.303  12.189 -0.1692 -2.4982 -0.0939
14047TIP3    H263557   4.573   1.218  12.199 -1.6427 -0.5419 -0.9660
14048TIP3   OH263558   5.579   4.697   3.195 -0.8424 -0.4026  0.2153
14048TIP3    H163559   5.542   4.778   3.229 -1.2070 -0.5545  0.1866
14048TIP3    H263560   5.671   4.700   3.219  0.1899  1.9453 -3.2561
14049TIP3   OH263561   1.437   3.293  11.749 -0.1169  0.2484  0.0131
14049TIP3    H163562   1.408   3.209  11.715  0.8319  0.0527 -0.3347
14049TIP3    H263563   1.356   3.339  11.772 -0.6823 -0.3450 -0.7621
14050TIP3   OH263564   6.233   2.620  14.086  0.0964  0.1939  0.0568
14050TIP3    H163565   6.197   2.694  14.136 -0.3178 -0.3866  0.6353
14050TIP3    H263566   6.156   2.572  14.055  0.2509 -2.1464  2.9015
14051TIP3   OH263567   6.027   2.838   2.099 -0.1856 -0.3001 -0.3147
14051TIP3    H163568   6.043   2.779   2.025  0.3318 -1.4069  0.6345
14051TIP3    H263569   6.111   2.841   2.145 -0.2508  1.0764 -0.2443
14052TIP3   OH263570   4.417   2.540   0.619  0.3443 -0.0894  0.7013
14052TIP3    H163571   4.448   2.627   0.593  0.5401  0.0183  1.2670
14052TIP3    H263572   4.336   2.558   0.667  0.5937 -0.1833  1.1637
14053TIP3   OH263573   0.629   5.575   1.831 -0.2278 -0.1162  0.1401
14053TIP3    H163574   0.597   5.528   1.909  0.9931  0.9135  1.3062
14053TIP3    H263575   0.683   5.511   1.785  0.2037 -0.3222  0.9118
14054TIP3   OH263576   3.728   4.530   4.172  0.3256 -0.2788  0.0681
14054TIP3    H163577   3.774   4.485   4.243  0.5479  0.1605  0.2068
14054TIP3    H263578   3.643   4.486   4.166  0.5453 -0.7224  0.1900
14055TIP3   OH263579   3.612   3.091  15.597  0.3224 -0.0465  0.3560
14055TIP3    H163580   3.538   3.134  15.554  0.7188  0.3420  0.0491
14055TIP3    H263581   3.580   3.068  15.684 -0.4446 -0.6991 -0.0864
14056TIP3   OH263582   3.080   2.758   1.638  0.5163 -0.3556 -0.6022
14056TIP3    H163583   3.096   2.781   1.730  0.5356  0.3926 -0.7883
14056TIP3    H263584   2.985   2.747   1.632  0.5067 -0.3202 -0.5177
14057TIP3   OH263585   4.958   1.422   1.532 -0.2732 -0.3529 -0.7849
14057TIP3    H163586   4.928   1.337   1.564  0.3984 -0.6214 -0.8494
14057TIP3    H263587   4.884   1.482   1.549 -0.7804 -0.9594 -0.8147
14058TIP3   OH263588   4.884   1.283   3.373  0.2594 -0.4234  0.3827
14058TIP3    H163589   4.950   1.317   3.313  1.0918 -2.1578  0.2382
14058TIP3    H263590   4.933   1.261   3.453 -0.8652  2.0718  1.8646
14059TIP3   OH263591   0.554   4.176  13.080 -0.4690  0.5275 -0.0428
14059TIP3    H163592   0.471   4.201  13.119 -1.9004 -1.4371 -1.6257
14059TIP3    H263593   0.535   4.168  12.987  0.2999 -3.9826 -0.0323
14060TIP3   OH263594   5.869   3.602   5.245  0.6955  0.7192  0.0984
14060TIP3    H163595   5.908   3.553   5.173 -0.9729 -1.6927  0.7078
14060TIP3    H263596   5.819   3.672   5.202 -0.8290 -1.0654 -1.2355
14061TIP3   OH263597   3.198   1.752   4.364  1.0847 -0.5722  0.2398
14061TIP3    H163598   3.241   1.684   4.313  2.7796 -0.2145  1.1067
14061TIP3    H263599   3.105   1.730   4.360  1.0721 -0.4733 -3.0811
14062TIP3   OH263600   1.779   1.754   2.777  0.1854 -0.1870  0.5443
14062TIP3    H163601   1.730   1.744   2.859 -0.8480 -1.0118 -0.1487
14062TIP3    H263602   1.774   1.668   2.735  0.9813  0.1342 -0.2300
14063TIP3   OH263603   5.996   3.051   0.726  0.1334 -0.2544  0.1748
14063TIP3    H163604   6.075   3.038   0.673  0.4320  0.4609  0.4294
14063TIP3    H263605   6.029   3.057   0.816 -0.3337 -1.0964  0.4116
14064TIP3   OH263606   2.671   5.453   3.335  0.0589  0.0949 -0.4157
14064TIP3    H163607   2.588   5.475   3.378  0.7015  1.1731  0.3509
14064TIP3    H263608   2.738   5.494   3.390  1.0025  0.6198 -1.8833
14065TIP3   OH263609   1.191   6.739   5.660  0.8297  0.1134  0.1054
14065TIP3    H163610   1.241   6.782   5.730  1.2790 -0.2849  0.0340
14065TIP3    H263611   1.230   6.652   5.652 -0.1521 -0.3639  0.3276
14066TIP3   OH263612   2.705   1.705   1.709  0.2145 -0.3158 -0.3813
14066TIP3    H163613   2.701   1.724   1.615 -0.2219  0.4798 -0.2142
14066TIP3    H263614   2.744   1.618   1.714  0.9035 -0.0765 -1.2716
14067TIP3   OH263615   1.878   6.290   4.519 -0.1268 -0.0474  0.0892
14067TIP3    H163616   1.852   6.306   4.428 -0.6442 -1.5241 -0.0361
14067TIP3    H263617   1.974   6.295   4.517 -0.1351 -0.0567 -0.5306
14068TIP3   OH263618   0.875   1.083  16.235  0.0456 -0.6377 -0.1361
14068TIP3    H163619   0.809   1.087  16.304  0.8321  2.1080  0.5922
14068TIP3    H263620   0.945   1.029  16.272  0.4552  0.7882  1.3222
14069TIP3   OH263621   6.118   4.309  13.756  0.2117  0.6622  0.3227
14069TIP3    H163622   6.052   4.271  13.813 -0.5492 -0.4012 -1.2243
14069TIP3    H263623   6.069   4.362  13.693  1.0574  2.0652  0.7988
14070TIP3   OH263624   2.143   5.281   1.627 -0.0890 -0.0392  0.3405
14070TIP3    H163625   2.198   5.267   1.549 -0.6938  2.0123 -0.5148
14070TIP3    H263626   2.067   5.225   1.612  0.5163 -0.8596  0.2451
14071TIP3   OH263627   5.375   1.007  13.708  0.4212 -0.1759 -0.2729
14071TIP3    H163628   5.320   0.993  13.631 -0.0924  1.6874 -0.3096
14071TIP3    H263629   5.349   0.938  13.769 -1.4515  0.1800 -0.5863
14072TIP3   OH263630   5.207   3.306  12.144 -0.2966  0.2725 -0.3321
14072TIP3    H163631   5.180   3.275  12.057 -0.2162 -0.7289 -0.0107
14072TIP3    H263632   5.277   3.246  12.170 -1.3671 -0.4081  1.0941
14073TIP3   OH263633   5.635   5.230   2.057 -0.0052 -0.2721  0.1626
14073TIP3    H163634   5.568   5.173   2.018  0.3250 -1.6459  1.5203
14073TIP3    H263635   5.665   5.183   2.134 -1.0565  2.5646  2.5076
14074TIP3   OH263636   2.258   3.867   4.900  0.2004 -0.7496  0.1580
14074TIP3    H163637   2.262   3.921   4.979  1.4885  0.8583 -0.9362
14074TIP3    H263638   2.262   3.777   4.933 -1.3229 -0.2157  2.0010
14075TIP3   OH263639   0.368   0.304  17.071 -0.1919 -0.0297 -0.6600
14075TIP3    H163640   0.365   0.239  17.000  0.0596  0.4020 -1.0741
14075TIP3    H263641   0.453   0.346  17.060  0.6302 -1.1396  0.9768
14076TIP3   OH263642   5.796   0.581  12.514 -0.8164 -0.2683 -0.6721
14076TIP3    H163643   5.840   0.646  12.569 -1.2935  0.0618 -0.6755
14076TIP3    H263644   5.753   0.633  12.445 -0.6703 -0.6363 -1.0482
14077TIP3   OH263645   2.887   4.871   3.043  0.1498  0.9245  0.2043
14077TIP3    H163646   2.823   4.877   3.113  1.1313  1.8726  1.0659
14077TIP3    H263647   2.879   4.781   3.010 -1.9268  1.1569 -0.0685
14078TIP3   OH263648   1.870   5.188   1.856 -0.2210 -0.0849  0.1467
14078TIP3    H163649   1.947   5.155   1.809 -0.0231  1.0989 -0.3836
14078TIP3    H263650   1.889   5.281   1.871 -0.5916 -0.2732  1.9551
14079TIP3   OH263651   1.574   0.950   1.306 -0.3494 -0.2484 -0.6436
14079TIP3    H163652   1.575   0.949   1.210 -1.8480 -1.4592 -0.6863
14079TIP3    H263653   1.656   0.906   1.331 -0.4751 -0.9589 -1.4005
14080TIP3   OH263654   0.942   2.440  11.318  0.2238 -0.0139  0.2020
14080TIP3    H163655   0.906   2.436  11.407 -0.4649 -2.4049 -0.1155
14080TIP3    H263656   0.920   2.355  11.279  2.8388 -0.0872 -1.3752
14081TIP3   OH263657   2.691   1.327   5.364 -0.4669  0.3558  0.2832
14081TIP3    H163658   2.603   1.316   5.329 -0.2702  0.3891 -0.2259
14081TIP3    H263659   2.730   1.240   5.358 -0.1825  0.5161 -0.2765
14082TIP3   OH263660   2.898   3.602  15.861  0.4996  0.5791  0.0626
14082TIP3    H163661   2.874   3.659  15.788 -1.4052 -1.0025 -0.6193
14082TIP3    H263662   2.826   3.539  15.868  2.1898 -1.3677  1.1748
14083TIP3   OH263663   0.407   3.884  11.410 -0.2076 -0.1296  0.8927
14083TIP3    H163664   0.393   3.816  11.344 -0.4001  1.3655 -0.6895
14083TIP3    H263665   0.332   3.876  11.469  0.7515 -2.4852  1.8892
14084TIP3   OH263666   0.383   6.618   1.560 -0.0040  0.4924  0.3742
14084TIP3    H163667   0.409   6.646   1.472 -0.0001  1.8256  0.7812
14084TIP3    H263668   0.289   6.629   1.563  0.0551  0.9112  0.6983
14085TIP3   OH263669   1.100   1.900   0.411 -0.4030 -0.8727 -0.1537
14085TIP3    H163670   1.109   1.922   0.503 -0.1273  0.0478 -0.3878
14085TIP3    H263671   1.153   1.821   0.399  0.3760 -0.4225  0.2717
14086TIP3   OH263672   5.385   3.306   6.584  0.5982 -0.2403  0.2071
14086TIP3    H163673   5.338   3.259   6.653 -0.8538  0.8251 -0.0033
14086TIP3    H263674   5.476   3.308   6.613  0.1015 -0.2869  1.8303
14087TIP3   OH263675   1.686   0.953   2.117 -0.3722 -0.0207  0.2547
14087TIP3    H163676   1.781   0.963   2.115 -0.2696 -0.4359  1.8366
14087TIP3    H263677   1.654   1.019   2.054  0.9931 -0.9903 -1.5469
14088TIP3   OH263678   4.052   5.084   1.808  0.3958  0.2122 -0.1602
14088TIP3    H163679   3.960   5.060   1.824  0.7117 -1.5669 -0.7710
14088TIP3    H263680   4.073   5.145   1.878 -1.2916  0.7768 -0.0801
14089TIP3   OH263681   2.182   5.909  11.455 -0.6034  0.6619  0.5203
14089TIP3    H163682   2.242   5.947  11.519  0.7117 -0.6794  0.1640
14089TIP3    H263683   2.100   5.897  11.502  0.6812 -1.4942  2.4557
14090TIP3   OH263684   2.590   6.192  13.142  0.3629 -0.2986  0.5728
14090TIP3    H163685   2.567   6.284  13.153 -1.8995 -0.8179  0.7589
14090TIP3    H263686   2.539   6.164  13.066 -0.7345 -1.8990  1.8234
14091TIP3   OH263687   2.003   6.708  16.445  0.1362  0.0373  0.5912
14091TIP3    H163688   2.063   6.655  16.497  0.2985 -0.7702 -0.3879
14091TIP3    H263689   2.060   6.763  16.392 -0.0340  1.4256  1.8005
14092TIP3   OH263690   3.220   1.321  15.508  1.1580  0.2459 -0.0550
14092TIP3    H163691   3.248   1.245  15.458 -2.1882  0.5675 -2.8505
14092TIP3    H263692   3.163   1.369  15.448 -0.8047  2.3412  3.1602
14093TIP3   OH263693   2.497   4.384  12.837  0.6817  0.3182 -0.0828
14093TIP3    H163694   2.490   4.301  12.790  1.1763  0.5175 -0.5215
14093TIP3    H263695   2.513   4.359  12.928 -0.6066 -0.0733  0.0522
14094TIP3   OH263696   1.126   6.137   6.234  0.0168  0.6583 -0.1676
14094TIP3    H163697   1.088   6.058   6.194  1.8334  1.0234 -2.8959
14094TIP3    H263698   1.201   6.105   6.284 -0.2793  0.5139  0.1902
14095TIP3   OH263699   4.792   3.486   5.972 -0.0308  0.3330 -0.0533
14095TIP3    H163700   4.711   3.446   5.942  0.6107  0.1476 -1.6342
14095TIP3    H263701   4.836   3.515   5.892  1.2790  0.7775  0.7879
14096TIP3   OH263702   3.525   5.380   3.586 -0.6270 -0.0320  0.0876
14096TIP3    H163703   3.509   5.301   3.534 -3.6290  0.2347  0.3941
14096TIP3    H263704   3.609   5.413   3.554 -0.7772 -1.6346 -2.2611
14097TIP3   OH263705   3.758   2.576   2.587  0.3877 -0.5831 -0.5448
14097TIP3    H163706   3.741   2.580   2.493 -0.0223  0.7623 -0.4365
14097TIP3    H263707   3.755   2.483   2.608  2.0006 -1.0379 -2.1239
14098TIP3   OH263708   1.094   3.322  16.151 -0.0001 -0.7088 -0.1253
14098TIP3    H163709   1.064   3.334  16.060 -0.5722 -0.8040  0.0438
14098TIP3    H263710   1.184   3.292  16.143  0.1574 -0.1249 -0.6491
14099TIP3   OH263711   4.415   0.280  15.682  0.3867 -0.4740 -0.2031
14099TIP3    H163712   4.360   0.268  15.760 -0.1338  0.4192 -0.4175
14099TIP3    H263713   4.366   0.340  15.627  0.6319 -1.3130 -1.3595
14100TIP3   OH263714   1.174   1.992  11.734 -0.6489 -0.8160 -0.0986
14100TIP3    H163715   1.113   2.006  11.806 -0.4514  0.5328 -0.1698
14100TIP3    H263716   1.173   2.074  11.686 -1.3662 -1.9253 -2.1101
14101TIP3   OH263717   2.770   2.489  15.362 -0.0010 -0.0911 -0.6301
14101TIP3    H163718   2.857   2.449  15.352 -0.4180 -0.8824 -1.2446
14101TIP3    H263719   2.711   2.414  15.369 -0.6270  0.4455 -0.0731
14102TIP3   OH263720   2.248   3.674   2.702 -0.4892 -0.1030 -0.0869
14102TIP3    H163721   2.229   3.763   2.671  1.3451  0.2415 -0.2954
14102TIP3    H263722   2.280   3.627   2.625 -0.3971 -0.6214  0.2593
14103TIP3   OH263723   2.789   0.127  15.396 -0.9766  0.2502 -0.0137
14103TIP3    H163724   2.713   0.136  15.339 -1.5872 -1.3327  0.4814
14103TIP3    H263725   2.756   0.076  15.471  0.7948 -1.3505 -0.2637
14104TIP3   OH263726   1.973   0.936  15.180  0.1761 -0.4689  0.4398
14104TIP3    H163727   1.934   0.937  15.093 -0.4577 -0.3860  0.7249
14104TIP3    H263728   2.050   0.993  15.172 -0.6401  0.6360  0.2812
14105TIP3   OH263729   4.958   4.805  15.518  0.0042  0.3270  0.2508
14105TIP3    H163730   5.008   4.800  15.437 -1.4789  1.5276 -0.7976
14105TIP3    H263731   4.882   4.859  15.496 -2.0873 -1.8839  1.5642
14106TIP3   OH263732   1.224   4.854  14.947 -0.4951  0.2750 -0.1716
14106TIP3    H163733   1.307   4.817  14.979  0.2982  1.7111 -0.4752
14106TIP3    H263734   1.221   4.829  14.855 -0.7404 -0.3406 -0.0034
14107TIP3   OH263735   2.277   4.610  16.818 -0.6562 -0.4663  0.6665
14107TIP3    H163736   2.351   4.646  16.868 -0.7881  1.0208 -0.1525
14107TIP3    H263737   2.317   4.563  16.745 -0.5035  0.0136  0.4377
14108TIP3   OH263738   0.851   0.904  14.215 -0.1478 -0.7200  0.4794
14108TIP3    H163739   0.791   0.847  14.264  0.1577 -2.5521 -1.1393
14108TIP3    H263740   0.925   0.917  14.275 -0.9256 -0.6836  1.4729
14109TIP3   OH263741   5.543   6.489   4.520  0.3618 -0.1791  0.1307
14109TIP3    H163742   5.479   6.418   4.514 -0.9331  0.9767 -0.1874
14109TIP3    H263743   5.496   6.561   4.562 -0.4686  2.6754 -4.9037
14110TIP3   OH263744   2.749   5.240   5.632  0.9685 -0.0993  0.6151
14110TIP3    H163745   2.704   5.307   5.682 -0.4456 -1.0192  0.6289
14110TIP3    H263746   2.814   5.204   5.692  0.3458 -0.1297  1.2763
14111TIP3   OH263747   1.206   1.256   0.568  0.4959 -0.7701 -0.1908
14111TIP3    H163748   1.248   1.277   0.484  0.5767  0.6704  0.1757
14111TIP3    H263749   1.148   1.183   0.549 -1.2114  0.9343 -2.0595
14112TIP3   OH263750   1.690   5.719   2.971  0.2389 -0.1938 -0.0217
14112TIP3    H163751   1.618   5.660   2.950  0.2524 -0.2238  0.0160
14112TIP3    H263752   1.654   5.807   2.956 -0.0079 -0.1786  0.6073
14113TIP3   OH263753   3.393   3.740  14.923  0.3363  0.2022 -0.0324
14113TIP3    H163754   3.442   3.679  14.867 -0.1995 -1.4549  1.2105
14113TIP3    H263755   3.301   3.720  14.904  0.1280  1.4648 -0.4413
14114TIP3   OH263756   4.172   4.124  14.977  0.4115 -0.3743  0.9980
14114TIP3    H163757   4.186   4.210  14.938 -1.1764  0.1681  1.5461
14114TIP3    H263758   4.234   4.121  15.050  0.5023  0.3066  0.9610
14115TIP3   OH263759   2.795   5.933  17.148  0.2097 -0.1597 -0.3193
14115TIP3    H163760   2.788   6.027  17.127  0.0418 -0.1431 -0.1941
14115TIP3    H263761   2.704   5.904  17.157  0.2754 -0.1933  0.2728
14116TIP3   OH263762   1.033   2.613  10.488 -0.3082 -0.0270 -0.6570
14116TIP3    H163763   0.952   2.648  10.452 -0.6645  0.6073  0.6883
14116TIP3    H263764   1.098   2.682  10.473 -0.8852  1.0835  1.4995
14117TIP3   OH263765   1.617   5.735  16.904 -0.2155 -0.1409 -0.8320
14117TIP3    H163766   1.530   5.700  16.885 -1.1592  0.9794  1.1299
14117TIP3    H263767   1.634   5.709  16.995  1.2609  0.1194 -1.0098
14118TIP3   OH263768   2.498   6.167  13.921  0.2765  0.2143 -0.3906
14118TIP3    H163769   2.473   6.253  13.954  2.7240  0.0867  2.2221
14118TIP3    H263770   2.453   6.105  13.978  1.4628 -0.1193  0.2100
14119TIP3   OH263771   0.954   5.947   3.826  0.0909 -0.1797  0.9575
14119TIP3    H163772   0.935   5.901   3.908 -2.1378  0.5437  0.8981
14119TIP3    H263773   0.904   5.900   3.759  0.3601  0.3853  0.3460
14120TIP3   OH263774   2.781   3.820  13.443 -0.4976  0.1949  0.0901
14120TIP3    H163775   2.741   3.860  13.520 -1.5360  0.3451 -0.5001
14120TIP3    H263776   2.723   3.846  13.371  0.0347 -0.5647 -0.6219
14121TIP3   OH263777   3.150   2.132   2.699  0.1184  0.3005 -0.2777
14121TIP3    H163778   3.114   2.046   2.717  1.4948  0.0621  1.5397
14121TIP3    H263779   3.101   2.163   2.622 -1.5989 -1.3414  0.0910
14122TIP3   OH263780   5.773   5.973  12.768 -0.2975 -0.0611 -0.1438
14122TIP3    H163781   5.857   6.005  12.735 -0.4503  0.5906  0.0986
14122TIP3    H263782   5.796   5.896  12.821 -0.0362 -1.0740 -1.6700
14123TIP3   OH263783   2.112   3.964   3.946  0.1775 -0.1294  0.5127
14123TIP3    H163784   2.040   4.008   3.901 -0.2761 -1.1925  0.1580
14123TIP3    H263785   2.071   3.886   3.985  0.6837  0.4262  2.2492
14124TIP3   OH263786   1.204   0.950   4.246  0.1357  0.2250  0.2174
14124TIP3    H163787   1.242   0.936   4.159  0.1585 -1.6157  0.4910
14124TIP3    H263788   1.120   0.905   4.243 -0.3468  1.0591  0.8333
14125TIP3   OH263789   0.476   4.205  12.513 -0.0486 -0.0801  0.0806
14125TIP3    H163790   0.405   4.173  12.458 -0.0901  3.4374 -2.2124
14125TIP3    H263791   0.537   4.131  12.519 -2.5737 -2.3072 -0.0907
14126TIP3   OH263792   6.396   0.246   5.512  0.4289  0.2589 -0.0913
14126TIP3    H163793   6.482   0.230   5.550  1.1528  2.8599 -0.3977
14126TIP3    H263794   6.367   0.328   5.552 -1.2007  0.2561 -1.1520
14127TIP3   OH263795   2.413   2.075   4.368  0.3060  0.1045  0.2345
14127TIP3    H163796   2.350   2.142   4.342 -1.3161 -0.6768  1.8402
14127TIP3    H263797   2.399   2.003   4.307  2.3797  1.2910 -1.7909
14128TIP3   OH263798   6.074   4.307  16.084  0.1059 -0.7295  0.1490
14128TIP3    H163799   6.073   4.402  16.084 -0.8324 -0.6768 -2.0742
14128TIP3    H263800   5.991   4.282  16.126 -0.9560 -0.4507 -1.6594
14129TIP3   OH263801   2.754   0.282   0.873  0.2914  0.6743  0.3289
14129TIP3    H163802   2.726   0.374   0.879 -1.9766  0.1480 -1.0235
14129TIP3    H263803   2.673   0.234   0.857  1.3722 -1.6513  1.4658
14130TIP3   OH263804   4.470   2.671  13.110  0.5890 -0.0622  0.0638
14130TIP3    H163805   4.402   2.709  13.055 -0.9183 -1.0892  1.1513
14130TIP3    H263806   4.494   2.741  13.171 -1.1962 -0.3333  1.1659
14131TIP3   OH263807   1.816   4.537   3.979  0.2189  0.2225  0.6402
14131TIP3    H163808   1.786   4.517   3.891 -0.9355 -0.3346  1.1496
14131TIP3    H263809   1.865   4.460   4.006  2.1616  1.0941 -0.1560
14132TIP3   OH263810   4.740   0.381   0.588 -0.2263  0.3571 -0.1911
14132TIP3    H163811   4.801   0.360   0.517  1.8178 -0.2058  1.6060
14132TIP3    H263812   4.782   0.453   0.635 -2.1357  1.5564 -0.2477
14133TIP3   OH263813   2.913   6.556  15.433  0.2827  0.5459  0.7829
14133TIP3    H163814   2.942   6.474  15.393 -2.4688  0.7022 -1.7903
14133TIP3    H263815   2.846   6.529  15.496 -2.7110  0.7913 -2.0606
14134TIP3   OH263816   1.368   0.783  10.609 -0.0119  0.4575  0.6323
14134TIP3    H163817   1.460   0.791  10.632  1.0981 -1.6466 -2.3747
14134TIP3    H263818   1.364   0.814  10.518 -1.5150 -2.4889 -0.4407
14135TIP3   OH263819   3.134   6.394  16.259  0.1173 -0.1568 -0.0942
14135TIP3    H163820   3.101   6.479  16.232  0.6703 -0.3783 -1.5584
14135TIP3    H263821   3.171   6.356  16.179  1.7781 -0.8912  0.9747
14136TIP3   OH263822   4.036   0.529   2.165  0.1756  0.0279  0.5477
14136TIP3    H163823   4.038   0.607   2.220 -0.2693 -1.0861  2.2049
14136TIP3    H263824   4.045   0.456   2.226  2.8280 -1.2076 -1.1374
14137TIP3   OH263825   1.618   5.080  13.163  0.8567  0.0075 -0.0080
14137TIP3    H163826   1.692   5.136  13.185 -0.5220  2.1479 -0.4317
14137TIP3    H263827   1.637   5.046  13.076  1.2151  0.7900 -0.2399
14138TIP3   OH263828   3.939   5.108  13.207  0.1051  0.3323  0.0791
14138TIP3    H163829   3.855   5.099  13.250  0.7085 -1.3212  0.9994
14138TIP3    H263830   3.974   5.191  13.240 -0.1662 -0.0984  1.5391
14139TIP3   OH263831   0.327   4.919   2.827 -0.0141  0.3875  0.4234
14139TIP3    H163832   0.338   4.885   2.738  1.2033  0.9128  0.3571
14139TIP3    H263833   0.241   4.961   2.826 -0.7669 -1.1049  0.0065
14140TIP3   OH263834   1.936   2.224   0.937  0.5405  0.7964  0.3479
14140TIP3    H163835   1.889   2.299   0.900 -0.0464  1.4469  2.2777
14140TIP3    H263836   2.007   2.207   0.876 -0.4990  1.6517 -1.1554
14141TIP3   OH263837   4.751   3.109   3.878 -0.6832 -0.4054  0.2623
14141TIP3    H163838   4.736   3.021   3.913  0.9683 -1.1335 -0.7458
14141TIP3    H263839   4.840   3.106   3.843  0.2615  2.2977  2.0649
14142TIP3   OH263840   2.328   2.119   3.945 -0.8316 -0.2234 -0.1469
14142TIP3    H163841   2.280   2.054   3.997 -0.9332  0.3141  0.4415
14142TIP3    H263842   2.317   2.090   3.854  1.4387 -2.5853  0.2273
14143TIP3   OH263843   2.085   4.026   3.622  0.1791  0.2456 -0.1182
14143TIP3    H163844   2.007   4.044   3.674  1.0417  1.0286  0.9714
14143TIP3    H263845   2.151   4.087   3.657  1.2812 -0.4201 -0.9756
14144TIP3   OH263846   4.648   1.920  12.056 -0.0904 -0.4147 -0.4953
14144TIP3    H163847   4.646   1.872  12.138  0.9722  1.3969  0.6599
14144TIP3    H263848   4.664   2.011  12.081 -0.3134  0.3021 -2.6748
14145TIP3   OH263849   3.690   1.475  16.791  0.3944 -0.2515  0.2891
14145TIP3    H163850   3.720   1.408  16.851 -1.6514 -3.6554 -2.1553
14145TIP3    H263851   3.602   1.498  16.822 -0.0435 -0.8680 -0.4619
14146TIP3   OH263852   5.334   4.887   0.557 -0.6777  0.0548 -0.2811
14146TIP3    H163853   5.292   4.960   0.603  0.6166  0.3708  0.4687
14146TIP3    H263854   5.384   4.929   0.486  0.8003  0.0365  0.7018
14147TIP3   OH263855   0.757   2.081   5.117  0.3118 -0.1963 -0.2777
14147TIP3    H163856   0.833   2.136   5.134  0.6616 -0.7253 -0.0985
14147TIP3    H263857   0.784   1.994   5.147 -0.3667 -0.3845 -0.2044
14148TIP3   OH263858   3.496   3.114  11.478  0.0968  0.4080  0.3937
14148TIP3    H163859   3.535   3.028  11.496 -1.1794 -0.5295 -1.0173
14148TIP3    H263860   3.555   3.177  11.519  2.7262 -0.9436 -1.0552
14149TIP3   OH263861   6.678   0.957   2.490  0.3620 -0.1310 -0.4772
14149TIP3    H163862   6.686   0.905   2.570  0.8243  1.6232  0.6620
14149TIP3    H263863   6.583   0.967   2.478  0.2066 -2.2492 -1.4458
14150TIP3   OH263864   5.020   0.056  13.573  0.2309 -0.1336  0.2201
14150TIP3    H163865   5.088   0.014  13.520 -1.2367 -0.3159 -1.6018
14150TIP3    H263866   5.068   0.116  13.630  1.9648 -0.7053 -0.5743
14151TIP3   OH263867   2.424   6.409   6.305 -0.5081  0.0802 -0.2134
14151TIP3    H163868   2.423   6.486   6.362 -0.0224 -2.2584  3.3241
14151TIP3    H263869   2.332   6.386   6.294 -0.5834 -0.3186  1.0668
14152TIP3   OH263870   1.126   4.400   1.927 -0.1586 -0.2106  0.9983
14152TIP3    H163871   1.109   4.349   1.847  1.7864  0.6870 -0.0645
14152TIP3    H263872   1.050   4.384   1.982 -1.4646 -1.0751 -0.9321
14153TIP3   OH263873   3.820   4.318  13.912 -0.1882 -0.1142 -0.4360
14153TIP3    H163874   3.794   4.251  13.974  1.7499 -1.4690 -1.0114
14153TIP3    H263875   3.771   4.297  13.832 -1.4365  0.6661  0.0855
14154TIP3   OH263876   5.104   3.775  13.518  0.1133 -0.4020  0.1772
14154TIP3    H163877   5.053   3.700  13.551 -0.6169  0.3674  0.8483
14154TIP3    H263878   5.117   3.756  13.425 -0.1703 -1.2977  0.3058
14155TIP3   OH263879   3.345   5.813  14.553 -0.6229  0.0667  0.0730
14155TIP3    H163880   3.395   5.745  14.598  0.1736  0.3531 -0.3633
14155TIP3    H263881   3.303   5.767  14.480 -1.2510 -0.2301  0.6030
14156TIP3   OH263882   0.606   2.675   0.135  0.1404 -0.7502 -0.4160
14156TIP3    H163883   0.568   2.760   0.154  0.2879 -0.6629 -0.5179
14156TIP3    H263884   0.684   2.670   0.192  0.5025 -0.5471 -0.8910
14157TIP3   OH263885   4.122   0.538  12.644  0.3759 -0.8202  0.4466
14157TIP3    H163886   4.135   0.584  12.562  1.3465 -1.0405  0.4673
14157TIP3    H263887   4.125   0.446  12.621  1.7865 -0.9001  0.8729
14158TIP3   OH263888   3.066   0.975  16.782  0.6435 -0.4212  0.1408
14158TIP3    H163889   3.093   0.894  16.825  1.1274 -0.6275 -0.5210
14158TIP3    H263890   3.119   0.978  16.702  0.8961  0.7392  0.3331
14159TIP3   OH263891   4.057   4.860   5.491 -0.5094  0.1344 -0.2362
14159TIP3    H163892   4.149   4.856   5.518 -0.1994  0.8369 -1.1134
14159TIP3    H263893   4.033   4.770   5.472 -0.5073 -0.2808  1.5541
14160TIP3   OH263894   4.888   2.042  16.420  0.2308 -0.2587 -0.2136
14160TIP3    H163895   4.935   2.071  16.498 -0.9253  1.5104 -0.1049
14160TIP3    H263896   4.873   1.949  16.433  2.1418 -0.5106  0.5343
14161TIP3   OH263897   6.618   2.318  11.750 -0.4344  0.4420 -0.0549
14161TIP3    H163898   6.642   2.256  11.818  0.5441 -0.5776 -1.2625
14161TIP3    H263899   6.628   2.404  11.790 -1.2984 -0.1525  1.4965
14162TIP3   OH263900   2.416   3.283   1.182 -0.7378  0.5219 -0.0446
14162TIP3    H163901   2.397   3.361   1.234 -0.0278  1.3844 -1.0477
14162TIP3    H263902   2.331   3.240   1.172 -1.2615  1.5337 -0.0601
14163TIP3   OH263903   0.791   2.654   5.256  0.1951  0.2038 -0.1510
14163TIP3    H163904   0.868   2.710   5.258 -0.8253  1.6526  0.5214
14163TIP3    H263905   0.808   2.591   5.186  1.5218  1.1532 -0.7054
14164TIP3   OH263906   5.005   6.504   2.187 -0.5528  0.3623  0.1487
14164TIP3    H163907   4.935   6.452   2.147  0.7976 -1.8377  0.4617
14164TIP3    H263908   4.966   6.538   2.267 -0.8163 -2.4885  1.3773
14165TIP3   OH263909   5.193   1.325   2.407  0.2622 -0.1911 -0.7616
14165TIP3    H163910   5.140   1.380   2.349 -2.5262 -0.8132  0.9865
14165TIP3    H263911   5.235   1.387   2.466 -1.6905  0.2625  0.2622
14166TIP3   OH263912   4.607   1.160   2.018  0.0454  0.1932 -0.7191
14166TIP3    H163913   4.529   1.146   1.965  0.1897  0.5365 -1.0244
14166TIP3    H263914   4.590   1.242   2.065  0.7810  1.0291 -1.8340
14167TIP3   OH263915   0.677   6.001   5.156  0.0799 -0.1977  0.3895
14167TIP3    H163916   0.619   5.948   5.210 -0.5268 -0.6112 -0.6196
14167TIP3    H263917   0.760   5.952   5.154 -0.5227 -1.2279 -0.6602
14168TIP3   OH263918   3.575   4.839  11.082  0.3484 -0.1406 -0.3272
14168TIP3    H163919   3.566   4.837  10.987  1.1028 -2.2033 -0.3949
14168TIP3    H263920   3.652   4.786  11.101 -0.4325 -0.7391  1.4812
14169TIP3   OH263921   3.606   3.326  11.239 -0.0383  0.1459  0.1940
14169TIP3    H163922   3.651   3.277  11.308  0.8154  2.1292  1.1310
14169TIP3    H263923   3.530   3.364  11.283 -1.3974 -1.2748 -0.8237
14170TIP3   OH263924   1.558   4.305   4.634 -0.3059 -0.1105  0.2601
14170TIP3    H163925   1.630   4.314   4.572 -0.8416  0.8082 -0.2494
14170TIP3    H263926   1.599   4.315   4.720  0.1509  0.6184 -0.0310
14171TIP3   OH263927   5.319   6.305  11.787  0.0937  0.0613 -0.7260
14171TIP3    H163928   5.284   6.367  11.721  0.4134  1.4630  0.3731
14171TIP3    H263929   5.309   6.351  11.870  1.7247 -0.7756 -0.0281
14172TIP3   OH263930   0.321   1.345   1.569  0.3892  0.0959 -0.0373
14172TIP3    H163931   0.405   1.299   1.566 -0.6466 -2.1089  1.4432
14172TIP3    H263932   0.328   1.413   1.503  3.6474  0.5683  0.6383
14173TIP3   OH263933   1.612   0.982   1.030  0.6273 -0.2860 -0.1840
14173TIP3    H163934   1.530   0.948   0.996  0.6242 -1.8027  1.2098
14173TIP3    H263935   1.676   0.967   0.960  0.3171 -1.9142 -0.1504
14174TIP3   OH263936   6.675   5.422  12.742 -0.1789 -0.5334  0.5328
14174TIP3    H163937   6.586   5.424  12.776 -0.0352 -0.8485  0.9381
14174TIP3    H263938   6.710   5.509  12.759 -0.3044 -0.5092  0.6617
14175TIP3   OH263939   5.289   4.892   4.461 -0.0066  0.3823 -0.4785
14175TIP3    H163940   5.384   4.887   4.454  0.0761 -0.0894  0.6963
14175TIP3    H263941   5.273   4.902   4.555 -1.1425 -0.2222 -0.5992
14176TIP3   OH263942   6.364   1.249  16.981 -0.1162  0.7879  0.5411
14176TIP3    H163943   6.435   1.251  16.918  1.2137 -1.0220  1.8623
14176TIP3    H263944   6.285   1.231  16.929  0.7740  0.3834 -0.6945
14177TIP3   OH263945   0.806   0.210  12.973  0.3224 -0.0024  0.3463
14177TIP3    H163946   0.857   0.133  12.997  0.7362  0.4175  0.8340
14177TIP3    H263947   0.764   0.187  12.890 -0.2815 -1.0883  0.9307
14178TIP3   OH263948   5.480   1.281   2.237  0.1250  0.4724  0.1301
14178TIP3    H163949   5.389   1.308   2.223  0.0410 -0.5974 -1.7423
14178TIP3    H263950   5.493   1.289   2.331 -1.9395  0.5317  0.4663
14179TIP3   OH263951   1.542   3.699   0.197 -0.4352  0.6648 -0.3418
14179TIP3    H163952   1.507   3.784   0.169 -0.7051 -0.0191 -2.2152
14179TIP3    H263953   1.524   3.641   0.124  1.1070 -0.6650  0.2952
14180TIP3   OH263954   1.319   4.085  11.333 -0.3087 -0.1439  0.6193
14180TIP3    H163955   1.284   4.020  11.271 -1.6495  0.6410  0.5176
14180TIP3    H263956   1.305   4.047  11.419  0.7995 -0.8737  0.4964
14181TIP3   OH263957   3.801   5.748  12.202 -0.3307 -0.1591  0.6970
14181TIP3    H163958   3.888   5.750  12.164 -0.6746  1.3767 -0.0952
14181TIP3    H263959   3.804   5.679  12.268  1.9835  1.0045  1.9125
14182TIP3   OH263960   2.826   6.544  16.818  0.2728 -0.0219 -0.0080
14182TIP3    H163961   2.761   6.610  16.795  0.5890  0.0524 -0.7127
14182TIP3    H263962   2.883   6.539  16.741  0.3675 -0.9756  0.1154
14183TIP3   OH263963   0.293   6.242  15.279  0.0597 -0.4505  0.1161
14183TIP3    H163964   0.269   6.266  15.190 -0.0742 -0.7589  0.0674
14183TIP3    H263965   0.366   6.300  15.301  0.1997 -0.4828 -0.2524
14184TIP3   OH263966   6.181   5.774   1.331 -0.1391  0.1545  0.0950
14184TIP3    H163967   6.240   5.781   1.256 -0.2943  0.7371  0.0239
14184TIP3    H263968   6.108   5.832   1.310 -1.0265 -0.9905 -0.0665
14185TIP3   OH263969   2.611   4.809  13.009  0.4872 -0.4944  0.2928
14185TIP3    H163970   2.540   4.769  13.059 -0.0162  0.1061  0.0587
14185TIP3    H263971   2.690   4.768  13.044  0.0269 -1.2340  0.4964
14186TIP3   OH263972   3.943   1.431   2.540  0.0319 -0.1058 -0.2047
14186TIP3    H163973   4.033   1.461   2.530 -0.0887  0.2344 -0.2710
14186TIP3    H263974   3.951   1.338   2.562  0.4443  0.1902  1.0117
14187TIP3   OH263975   2.271   2.196   2.592 -0.2136 -0.0357 -0.3522
14187TIP3    H163976   2.233   2.110   2.574 -1.1594  0.2163  0.3968
14187TIP3    H263977   2.281   2.199   2.687 -0.4167  0.7663 -0.3441
14188TIP3   OH263978   5.367   2.827  14.360 -0.2566  0.5790 -0.2532
14188TIP3    H163979   5.410   2.747  14.331 -0.9473 -0.0864  0.5305
14188TIP3    H263980   5.316   2.801  14.437  0.2303  1.9630  0.5656
14189TIP3   OH263981   0.740   3.035  11.767  0.2970 -0.3306 -0.2938
14189TIP3    H163982   0.672   2.994  11.713 -0.4226 -0.1153  0.4349
14189TIP3    H263983   0.694   3.064  11.845  0.5351  2.8983 -1.2048
14190TIP3   OH263984   5.554   2.824  10.596 -0.1001  0.1392  0.0266
14190TIP3    H163985   5.513   2.910  10.586  0.0894  0.2042 -0.2152
14190TIP3    H263986   5.488   2.762  10.565 -0.5091  0.1371  0.8796
14191TIP3   OH263987   0.738   2.988   5.677  0.2578 -0.0034 -0.7599
14191TIP3    H163988   0.742   2.913   5.618  1.0203  0.5794 -1.4840
14191TIP3    H263989   0.707   2.952   5.760 -1.1568 -0.7825 -1.5913
14192TIP3   OH263990   2.057   0.768  12.735  0.3498  0.4924 -0.0879
14192TIP3    H163991   2.063   0.853  12.778 -1.5182  1.4237 -1.5261
14192TIP3    H263992   2.096   0.782  12.648 -2.2738  0.6866 -1.3222
14193TIP3   OH263993   3.770   5.135  16.190 -0.3662  0.2098  0.2717
14193TIP3    H163994   3.824   5.067  16.149 -1.0047 -0.0544 -0.1404
14193TIP3    H263995   3.830   5.209  16.200 -0.0554  0.0965 -0.6529
14194TIP3   OH263996   3.706   6.428   6.157 -0.3628  0.0867  0.1318
14194TIP3    H163997   3.705   6.444   6.063 -2.4428  0.7317  0.2227
14194TIP3    H263998   3.630   6.371   6.173 -1.2512  1.5867  1.6327
14195TIP3   OH263999   0.038   1.653   0.587 -0.3686 -0.0773 -0.5476
14195TIP3    H164000   0.068   1.579   0.640 -0.8475  0.5128  0.5772
14195TIP3    H264001   0.072   1.730   0.633  1.2580  0.3961 -2.4157
14196TIP3   OH264002   2.434   4.432  10.668  0.0963  0.2595  0.1789
14196TIP3    H164003   2.361   4.495  10.669 -0.7904 -0.7418  0.8019
14196TIP3    H264004   2.399   4.356  10.622  0.5176 -0.4942  1.0803
14197TIP3   OH264005   1.568   2.049   4.608 -0.3052 -0.0434  0.0590
14197TIP3    H164006   1.662   2.041   4.624 -0.3165  0.8087  0.5756
14197TIP3    H264007   1.546   1.970   4.557  0.7209 -0.1425 -0.2556
14198TIP3   OH264008   2.329   1.621  14.535 -0.5005 -0.6409 -0.8883
14198TIP3    H164009   2.305   1.707  14.568  1.2603 -0.2336 -0.5881
14198TIP3    H264010   2.264   1.603  14.467 -1.6740  0.3287 -0.0611
14199TIP3   OH264011   1.565   3.284  14.376 -0.0492 -0.2877 -0.1202
14199TIP3    H164012   1.559   3.301  14.470  1.2639 -1.0506  0.1351
14199TIP3    H264013   1.496   3.338  14.337  1.0018  2.0755  1.0268
14200TIP3   OH264014   3.194   0.106  11.833 -0.2885 -0.1048 -0.4681
14200TIP3    H164015   3.158   0.018  11.843  0.0967 -0.3801 -1.4273
14200TIP3    H264016   3.289   0.094  11.835 -0.2274  0.3692 -0.0191
14201TIP3   OH264017   3.533   5.822   1.226 -0.0907 -0.0848 -0.9629
14201TIP3    H164018   3.468   5.891   1.237  2.9164  2.7448  0.8479
14201TIP3    H264019   3.541   5.783   1.314  2.2039  1.2845 -0.4806
14202TIP3   OH264020   0.525   2.407  11.204  0.2320  0.1362  0.3747
14202TIP3    H164021   0.489   2.416  11.115 -2.1215 -0.6132  1.1732
14202TIP3    H264022   0.620   2.407  11.191 -0.0179  0.7009 -2.0634
14203TIP3   OH264023   4.255   1.502   1.013 -0.4033 -0.2970  0.1172
14203TIP3    H164024   4.317   1.446   0.967 -0.2162 -0.5048  0.6146
14203TIP3    H264025   4.169   1.476   0.978 -0.2898 -0.6533  0.0963
14204TIP3   OH264026   0.505   4.775   2.596 -0.7370 -0.2502 -0.1531
14204TIP3    H164027   0.590   4.813   2.619 -1.5246  0.8439  1.0733
14204TIP3    H264028   0.494   4.703   2.658 -0.2154 -1.1647 -1.0781
14205TIP3   OH264029   4.376   6.439  12.103 -0.4489 -0.0129 -0.1095
14205TIP3    H164030   4.295   6.402  12.067 -0.7578 -1.0715  1.5411
14205TIP3    H264031   4.348   6.519  12.148 -0.2258  0.7519 -1.3015
14206TIP3   OH264032   4.096   2.710   3.577 -0.5580  0.2646 -0.1666
14206TIP3    H164033   4.168   2.757   3.533 -1.7580  1.0286 -1.3846
14206TIP3    H264034   4.093   2.625   3.533 -0.5089  0.2936 -0.2271
14207TIP3   OH264035   1.811   1.513   1.305  0.5118  0.1381  0.3179
14207TIP3    H164036   1.751   1.542   1.237  2.7019  1.0871 -1.3621
14207TIP3    H264037   1.755   1.477   1.374 -1.9268  1.1181 -1.0293
14208TIP3   OH264038   3.522   3.539   4.603  0.1927 -0.3474 -0.4629
14208TIP3    H164039   3.482   3.468   4.553 -0.3921 -0.5538  0.2908
14208TIP3    H264040   3.511   3.616   4.547  0.0359 -0.6781 -0.8915
14209TIP3   OH264041   1.526   0.757  14.025  0.1065 -0.4271 -0.6124
14209TIP3    H164042   1.588   0.684  14.032 -0.9329 -1.5268 -2.1990
14209TIP3    H264043   1.446   0.717  13.991 -0.6328  1.3982 -1.1208
14210TIP3   OH264044   5.009   3.041  14.779 -0.3927  0.1805 -0.3188
14210TIP3    H164045   5.024   3.086  14.696 -2.5018  0.2179 -0.7440
14210TIP3    H264046   4.934   3.087  14.818 -1.6229 -1.9354 -0.0204
14211TIP3   OH264047   5.978   5.332  14.202  0.5366 -0.3570 -0.6829
14211TIP3    H164048   5.936   5.414  14.230 -2.1586 -1.9820  0.3398
14211TIP3    H264049   5.964   5.330  14.107 -1.1929 -0.5554 -0.4449
14212TIP3   OH264050   2.940   0.341   0.624  0.0936 -0.0070  0.1810
14212TIP3    H164051   2.911   0.309   0.709  0.2125 -0.1962  0.1532
14212TIP3    H264052   3.017   0.395   0.642 -0.4517  0.7448  0.2833
14213TIP3   OH264053   1.081   6.496   2.737 -0.5419  0.5276  0.1505
14213TIP3    H164054   1.085   6.493   2.832  0.3070  0.4747  0.1156
14213TIP3    H264055   1.068   6.589   2.716  1.7776  0.9341  0.2499
14214TIP3   OH264056   5.962   4.720  16.653 -0.0275  0.2648 -0.3726
14214TIP3    H164057   5.921   4.751  16.734  1.8318  0.8046  0.4307
14214TIP3    H264058   6.044   4.769  16.648  1.3844 -2.0237 -0.9351
14215TIP3   OH264059   0.896   4.667   3.877 -0.6444  0.3285  0.1307
14215TIP3    H164060   0.943   4.587   3.900 -1.9134 -0.5847 -0.3361
14215TIP3    H264061   0.938   4.697   3.796 -0.3806 -0.0391  0.1308
14216TIP3   OH264062   6.254   2.768   0.804  0.1528 -0.4429  0.1953
14216TIP3    H164063   6.222   2.791   0.716  0.1006 -0.5068  0.1970
14216TIP3    H264064   6.211   2.831   0.862 -0.2118 -0.7220  0.2322
14217TIP3   OH264065   2.892   5.305  11.899  0.0935  0.0350 -0.1060
14217TIP3    H164066   2.880   5.244  11.972  1.9991 -1.3335 -0.8356
14217TIP3    H264067   2.841   5.267  11.828 -0.7534  0.6972  0.1291
14218TIP3   OH264068   1.551   3.551  11.736 -0.4655  0.3758 -0.2648
14218TIP3    H164069   1.617   3.541  11.667 -0.3592 -0.1389 -0.0929
14218TIP3    H264070   1.515   3.463  11.748  0.4123  0.1919  1.2285
14219TIP3   OH264071   0.044   3.725   2.404  0.0571  0.1133  0.2525
14219TIP3    H164072   0.051   3.723   2.309  0.0651  0.9744  0.2311
14219TIP3    H264073   0.129   3.756   2.434  0.1817 -0.5069  0.5708
14220TIP3   OH264074   6.401   5.822   2.638  0.1821 -0.2934 -0.0114
14220TIP3    H164075   6.464   5.762   2.677 -0.7843 -1.7361 -0.6002
14220TIP3    H264076   6.327   5.823   2.699 -0.3172 -0.6653 -0.5999
14221TIP3   OH264077   5.689   3.911  15.259 -0.5324 -0.3692  0.7749
14221TIP3    H164078   5.632   3.960  15.201 -0.0756 -1.3061 -0.5264
14221TIP3    H264079   5.740   3.977  15.305 -0.2339  0.3972 -0.6090
14222TIP3   OH264080   3.917   6.272  13.482 -0.0961 -0.7992 -0.1322
14222TIP3    H164081   3.885   6.363  13.483 -0.4394 -0.9013 -0.9969
14222TIP3    H264082   3.919   6.249  13.389  0.0796 -1.6492  0.0808
14223TIP3   OH264083   3.977   4.445  14.973 -0.1299  0.1300  0.0142
14223TIP3    H164084   3.939   4.453  14.885 -1.7196 -0.2222  0.6344
14223TIP3    H264085   4.053   4.388  14.961 -0.0996  0.3837 -1.1896
14224TIP3   OH264086   3.284   0.765   0.245 -0.0210 -0.8273  0.4990
14224TIP3    H164087   3.196   0.782   0.278  0.7809  0.4059  2.1874
14224TIP3    H264088   3.302   0.839   0.187  0.3792 -0.3090  1.2564
14225TIP3   OH264089   5.326   4.864  12.921 -0.1392 -0.0790  0.3803
14225TIP3    H164090   5.307   4.790  12.864  0.1616 -0.0132  0.1926
14225TIP3    H264091   5.420   4.879  12.910 -0.1228  0.0774  0.7206
14226TIP3   OH264092   3.366   2.074  14.307  0.1263 -0.0085 -0.2463
14226TIP3    H164093   3.446   2.023  14.322  0.4701  0.7145  0.4387
14226TIP3    H264094   3.365   2.139  14.378 -1.6562 -0.7013  0.4022
14227TIP3   OH264095   0.900   5.252   1.044  0.3236  0.0676 -0.2322
14227TIP3    H164096   0.876   5.174   1.095  1.4764 -1.0055 -1.2801
14227TIP3    H264097   0.992   5.239   1.022 -0.0461  0.6398 -2.3098
14228TIP3   OH264098   4.914   4.145   1.936  0.3361  0.2522  0.0241
14228TIP3    H164099   4.970   4.221   1.919  0.4635 -0.2270 -1.8864
14228TIP3    H264100   4.838   4.182   1.980  1.6389  1.0646  1.7168
14229TIP3   OH264101   3.077   2.391  11.750 -0.3100 -0.4867  0.7289
14229TIP3    H164102   3.047   2.353  11.833 -0.8271  1.2541  1.3916
14229TIP3    H264103   3.171   2.405  11.763 -0.5665  0.7040  1.4322
14230TIP3   OH264104   5.300   2.009  15.803 -0.3043 -0.1285 -0.4885
14230TIP3    H164105   5.283   2.093  15.761  2.3496  0.3458 -0.8156
14230TIP3    H264106   5.363   1.966  15.745  1.6239 -0.4771  1.7245
14231TIP3   OH264107   1.044   2.007  16.277  0.4889 -0.1846  0.2464
14231TIP3    H164108   1.120   2.059  16.250  0.8961 -1.0092 -0.2633
14231TIP3    H264109   0.980   2.071  16.308  1.5453  0.4996  1.0810
14232TIP3   OH264110   1.086   6.732  13.702 -0.3722  0.0226  0.5192
14232TIP3    H164111   1.112   6.706  13.790 -0.7568  2.1967  1.3319
14232TIP3    H264112   1.165   6.720  13.649 -0.3303 -1.9750  0.9427
14233TIP3   OH264113   1.122   5.420   5.579 -0.7056 -0.1174 -0.0074
14233TIP3    H164114   1.152   5.349   5.521 -0.0776  0.7203 -0.7351
14233TIP3    H264115   1.176   5.411   5.657 -0.1479 -0.0352 -0.3764
14234TIP3   OH264116   2.773   4.737  12.303  0.3092  0.0736  0.4199
14234TIP3    H164117   2.762   4.642  12.305  0.7250  0.0353  1.1790
14234TIP3    H264118   2.699   4.770  12.353  0.7838  0.0855  1.1221
14235TIP3   OH264119   4.339   1.958   4.708  0.0432 -0.2983 -0.6896
14235TIP3    H164120   4.393   1.944   4.786 -1.0868 -0.5547  0.0575
14235TIP3    H264121   4.261   2.004   4.740 -1.1089 -1.6788 -1.4029
14236TIP3   OH264122   5.798   6.247  15.084  0.3530  0.7048 -0.5747
14236TIP3    H164123   5.804   6.300  15.164  0.7909  1.6546 -1.2241
14236TIP3    H264124   5.816   6.158  15.114  1.5361  1.1859  0.2502
14237TIP3   OH264125   0.202   4.406   3.842 -0.3714  1.0248 -0.0696
14237TIP3    H164126   0.225   4.322   3.883  1.3648  1.8624  0.7652
14237TIP3    H264127   0.257   4.411   3.764 -1.4760  0.7983 -0.8859
14238TIP3   OH264128   5.309   6.067  15.302  0.5893 -0.1619  0.2409
14238TIP3    H164129   5.304   6.021  15.219 -1.3138  0.1245  0.1675
14238TIP3    H264130   5.306   6.160  15.278  1.5613 -0.0368  0.5556
14239TIP3   OH264131   4.555   6.172   1.895 -0.0819 -0.4659 -0.1650
14239TIP3    H164132   4.593   6.090   1.863  1.4334 -0.2379  0.9344
14239TIP3    H264133   4.592   6.240   1.838  1.1717 -0.2579  0.8297
14240TIP3   OH264134   3.010   4.847   1.966 -0.5777 -0.2258 -0.5035
14240TIP3    H164135   2.955   4.925   1.980 -2.1956 -1.4495  0.2968
14240TIP3    H264136   3.084   4.860   2.024 -1.1067  0.4681  0.0450
14241TIP3   OH264137   1.893   3.613   2.466  0.1486 -0.0899 -0.2387
14241TIP3    H164138   1.807   3.645   2.440 -0.2818  0.3975  1.6014
14241TIP3    H264139   1.876   3.525   2.499  0.0595  0.5183  1.4503
14242TIP3   OH264140   5.875   2.421  11.724 -0.3598 -0.3267 -0.7814
14242TIP3    H164141   5.865   2.388  11.635 -0.6291 -1.3277 -0.3898
14242TIP3    H264142   5.865   2.344  11.780  2.1512 -0.1801  0.0352
14243TIP3   OH264143   3.678   0.131   0.086  0.0908  0.6395  0.4249
14243TIP3    H164144   3.752   0.163   0.035 -0.7659  1.4383 -0.3435
14243TIP3    H264145   3.679   0.036   0.073  1.0502  0.6210  0.5421
14244TIP3   OH264146   5.467   2.719   3.241 -0.6137  0.0010 -0.4791
14244TIP3    H164147   5.420   2.796   3.207  1.2656  2.5810  2.1806
14244TIP3    H264148   5.492   2.745   3.329  1.2243 -3.2934  0.0993
14245TIP3   OH264149   6.575   0.727  15.212 -0.6848 -0.3205  0.2909
14245TIP3    H164150   6.651   0.754  15.264 -1.2558 -0.2377  1.1106
14245TIP3    H264151   6.591   0.764  15.125 -0.0868  0.2354  0.6261
14246TIP3   OH264152   6.520   5.621  15.411  0.0560 -0.5749  0.0913
14246TIP3    H164153   6.575   5.697  15.393  0.5099 -0.8450  0.3232
14246TIP3    H264154   6.487   5.594  15.325 -1.1035  0.6209  0.1330
14247TIP3   OH264155   1.470   3.015  11.864 -0.0521  0.4675  0.2667
14247TIP3    H164156   1.414   3.092  11.877 -1.6637 -0.9949  2.5235
14247TIP3    H264157   1.504   3.026  11.774 -0.6634  3.4677  0.2901
14248TIP3   OH264158   5.618   4.571   3.649 -0.4351 -0.2160  0.0270
14248TIP3    H164159   5.579   4.526   3.575  1.1177 -0.4609 -0.6911
14248TIP3    H264160   5.584   4.525   3.726 -0.6112 -1.1696 -0.6116
14249TIP3   OH264161   4.333   2.244  14.167  0.5019 -0.9343 -0.2107
14249TIP3    H164162   4.245   2.272  14.193  0.4616 -1.2395 -0.0094
14249TIP3    H264163   4.380   2.233  14.250  0.5160 -1.4637 -0.2905
14250TIP3   OH264164   3.180   1.607  10.768  0.0524  0.3565  0.2408
14250TIP3    H164165   3.162   1.674  10.702  0.9922  0.2799 -0.1036
14250TIP3    H264166   3.191   1.527  10.718 -1.6205 -0.2056  0.6896
14251TIP3   OH264167   2.860   1.129  14.954  0.0090  0.4092 -0.0338
14251TIP3    H164168   2.932   1.190  14.973  0.1967  0.6858 -1.4628
14251TIP3    H264169   2.896   1.043  14.975  0.3462  0.6464  0.3860
14252TIP3   OH264170   0.502   3.088  11.262  0.2046  0.4370 -0.2074
14252TIP3    H164171   0.552   3.169  11.258  0.1421  0.5023  0.3314
14252TIP3    H264172   0.569   3.020  11.274  0.0856  0.7320  3.1933
14253TIP3   OH264173   1.870   5.812   3.427 -0.4496 -0.1904 -0.1018
14253TIP3    H164174   1.960   5.805   3.395 -0.8132 -2.2713 -0.8511
14253TIP3    H264175   1.848   5.724   3.455 -3.3200 -0.6291 -3.0472
14254TIP3   OH264176   2.964   4.720   5.295 -0.5281  0.2792 -0.0940
14254TIP3    H164177   2.974   4.639   5.245 -2.0599  0.6834 -1.1413
14254TIP3    H264178   2.870   4.731   5.305 -0.2909  0.2643  2.9213
14255TIP3   OH264179   4.234   0.485  13.428 -0.4681  0.4718 -0.0940
14255TIP3    H164180   4.277   0.554  13.478  2.5038 -1.8060  0.7767
14255TIP3    H264181   4.202   0.424  13.494  1.2865 -1.3235 -0.8009
14256TIP3   OH264182   1.517   6.421   2.090 -0.2703 -0.2034  0.3983
14256TIP3    H164183   1.555   6.482   2.027 -1.4187  0.6563  0.4989
14256TIP3    H264184   1.456   6.368   2.038 -0.6483 -0.0122  0.6409
14257TIP3   OH264185   6.214   6.068  11.134 -0.3845 -0.2758 -0.6023
14257TIP3    H164186   6.234   6.160  11.115  0.6865 -0.4372 -0.3543
14257TIP3    H264187   6.210   6.027  11.048 -1.0936  0.0332 -0.7282
14258TIP3   OH264188   3.741   0.833   3.885  0.3336 -0.4710 -0.3494
14258TIP3    H164189   3.764   0.849   3.793  0.9652 -0.6403 -0.2295
14258TIP3    H264190   3.806   0.884   3.935 -0.2630 -0.0465 -0.0001
14259TIP3   OH264191   2.460   1.696  12.687  0.4104 -0.1425 -0.4193
14259TIP3    H164192   2.527   1.635  12.655 -0.2124 -0.8145 -0.4643
14259TIP3    H264193   2.494   1.726  12.771  1.1274  0.1096 -0.7909
14260TIP3   OH264194   4.096   3.840  13.204 -0.1395 -0.5398 -0.0754
14260TIP3    H164195   4.009   3.826  13.242 -1.3773  1.9598 -1.7071
14260TIP3    H264196   4.085   3.821  13.111  1.1999 -0.6082 -0.2376
14261TIP3   OH264197   0.362   1.984  15.219 -0.5671 -0.1113 -0.7532
14261TIP3    H164198   0.384   1.926  15.293 -1.2428  1.5361  0.7937
14261TIP3    H264199   0.432   2.048  15.218 -1.4072  0.8309 -0.4867
14262TIP3   OH264200   4.423   1.700  12.126  0.4045 -0.3372  0.0871
14262TIP3    H164201   4.404   1.691  12.219 -0.3761 -0.6295 -0.0969
14262TIP3    H264202   4.404   1.791  12.106  1.1862 -0.1111  0.3470
14263TIP3   OH264203   6.631   1.279  15.097 -0.3868 -0.8334  0.2323
14263TIP3    H164204   6.672   1.365  15.099  0.2296 -1.0903 -0.9948
14263TIP3    H264205   6.543   1.295  15.061 -0.2516 -0.7309 -0.0491
14264TIP3   OH264206   1.202   6.463   3.056  0.1516  0.5847 -0.3834
14264TIP3    H164207   1.288   6.496   3.081  0.0270  1.5351 -1.1714
14264TIP3    H264208   1.148   6.475   3.134  0.5232  0.7455 -0.1475
14265TIP3   OH264209   0.017   4.080  11.022  0.4215  0.0498  0.5889
14265TIP3    H164210   0.031   4.168  10.989  0.9529 -0.2583 -0.0341
14265TIP3    H264211   0.064   4.077  11.106  1.0113  0.1473  0.2682
14266TIP3   OH264212   0.699   2.470   3.464 -0.3583  0.0957  0.3128
14266TIP3    H164213   0.686   2.394   3.520 -0.2584 -0.4415 -0.3750
14266TIP3    H264214   0.630   2.464   3.398 -0.9026  1.1004  0.7657
14267TIP3   OH264215   2.231   4.631  10.692 -0.1104  0.2696 -0.2319
14267TIP3    H164216   2.226   4.693  10.764  2.2870 -1.1459  1.3030
14267TIP3    H264217   2.149   4.643  10.644 -1.5470  1.7349  2.3438
14268TIP3   OH264218   5.326   2.501   3.128  0.0210 -0.1356 -0.2819
14268TIP3    H164219   5.368   2.583   3.152  1.3948 -0.6825 -0.7663
14268TIP3    H264220   5.260   2.526   3.063  1.5402  0.4169 -1.6758
14269TIP3   OH264221   6.548   1.849   5.471 -0.3074 -0.5563 -0.6301
14269TIP3    H164222   6.566   1.884   5.558  0.0908 -0.1693 -0.8674
14269TIP3    H264223   6.486   1.911   5.432  1.8970  1.0256 -1.7991
14270TIP3   OH264224   2.018   6.633   5.536  0.2090 -0.2404 -0.1851
14270TIP3    H164225   2.012   6.541   5.563 -1.5246  0.6409  3.0576
14270TIP3    H264226   2.043   6.630   5.444 -1.9411 -4.0401 -0.8684
14271TIP3   OH264227   2.426   5.415   5.103  0.0040 -0.2126 -0.3630
14271TIP3    H164228   2.353   5.408   5.165  0.3871 -2.2650 -0.0872
14271TIP3    H264229   2.393   5.372   5.024  0.6422 -0.4236 -0.5130
14272TIP3   OH264230   5.278   6.727   3.262 -0.4014  0.0261  0.2996
14272TIP3    H164231   5.262   6.634   3.277 -0.7804 -0.1038 -0.7957
14272TIP3    H264232   5.309   6.760   3.346  1.4402 -1.4471  0.2551
14273TIP3   OH264233   5.318   2.019  12.802  0.4313  0.0212 -0.3053
14273TIP3    H164234   5.327   2.007  12.707 -0.0934  1.6010 -0.5959
14273TIP3    H264235   5.228   2.051  12.813  0.5025 -0.1209  0.7209
14274TIP3   OH264236   5.093   6.505  13.984 -0.5504 -0.2276 -0.0411
14274TIP3    H164237   5.109   6.417  14.019 -1.5537 -0.2941  0.3126
14274TIP3    H264238   5.147   6.511  13.906 -0.3263 -1.0897  0.0408
14275TIP3   OH264239   5.785   5.617  16.299 -0.2557  0.4061  0.0940
14275TIP3    H164240   5.761   5.531  16.265  0.4801 -0.6172  1.9734
14275TIP3    H264241   5.863   5.641  16.250 -1.0400  0.4836 -1.1467
14276TIP3   OH264242   1.888   5.341   1.520 -0.0747  0.2471  0.8293
14276TIP3    H164243   1.861   5.366   1.608 -1.7075  0.1223  0.3974
14276TIP3    H264244   1.806   5.317   1.476  0.8128 -0.5419 -0.4521
14277TIP3   OH264245   0.296   5.960  16.488 -0.4622 -0.2588  0.2563
14277TIP3    H164246   0.347   5.893  16.441  2.2732  2.2953 -0.7563
14277TIP3    H264247   0.315   5.943  16.580 -0.8471 -1.6031  0.1128
14278TIP3   OH264248   0.513   2.784   4.789 -0.0665  0.1908 -0.2325
14278TIP3    H164249   0.502   2.748   4.877 -1.9633  1.6361  0.1931
14278TIP3    H264250   0.547   2.711   4.738  3.3617 -0.1107  2.1298
14279TIP3   OH264251   3.229   0.613   4.516  0.1271  0.2366 -0.0585
14279TIP3    H164252   3.215   0.592   4.423  1.2489  0.1887 -0.2351
14279TIP3    H264253   3.238   0.528   4.558 -0.5627  0.2537  0.1349
14280TIP3   OH264254   1.895   2.337   3.481  0.0416  0.5399  0.1558
14280TIP3    H164255   1.980   2.349   3.523 -0.0392  1.4065  0.0809
14280TIP3    H264256   1.914   2.329   3.388  0.2781 -1.9703  0.3502
14281TIP3   OH264257   1.025   2.905  16.723  0.4945 -0.6500  0.8709
14281TIP3    H164258   0.940   2.860  16.723  0.4843 -0.7736  3.3297
14281TIP3    H264259   1.088   2.836  16.703  0.1722 -0.9343  0.8214
14282TIP3   OH264260   0.137   6.415   1.460  0.1683 -0.0447 -0.2144
14282TIP3    H164261   0.066   6.401   1.522 -0.7635 -0.6194 -1.3606
14282TIP3    H264262   0.125   6.505   1.429 -0.9047 -0.5532 -1.3756
14283TIP3   OH264263   6.759   4.233   0.492 -0.2909  0.3759 -0.1606
14283TIP3    H164264   6.724   4.169   0.430  1.2411  0.6451 -1.3834
14283TIP3    H264265   6.852   4.210   0.499 -0.1778  1.1416  1.0703
14284TIP3   OH264266   0.889   5.517  13.169  0.2229 -0.2593 -0.8196
14284TIP3    H164267   0.830   5.560  13.108  0.8730  0.1953 -1.1370
14284TIP3    H264268   0.886   5.424  13.145  0.1139 -0.1474 -1.2359
14285TIP3   OH264269   4.328   2.001   5.259  0.4060  0.2892  0.5012
14285TIP3    H164270   4.243   2.034   5.289 -0.5541  0.3397 -2.0346
14285TIP3    H264271   4.349   2.054   5.182  1.4627 -1.4102 -0.4575
14286TIP3   OH264272   6.576   4.156  12.091 -0.6026 -0.5757  0.5264
14286TIP3    H164273   6.662   4.197  12.095 -0.6167 -0.6009  1.2413
14286TIP3    H264274   6.573   4.099  12.168 -0.8682 -1.3531 -0.0401
14287TIP3   OH264275   5.602   5.115   4.316  0.2967  0.1807  0.3150
14287TIP3    H164276   5.568   5.162   4.391 -0.9340 -0.1162 -0.0313
14287TIP3    H264277   5.551   5.147   4.242 -2.4250 -3.3480  0.3634
14288TIP3   OH264278   0.352   5.382   0.733 -0.7571 -0.2193 -0.1593
14288TIP3    H164279   0.366   5.289   0.754 -1.7033 -0.1716  0.7859
14288TIP3    H264280   0.352   5.426   0.819 -2.2639  0.3615 -0.4230
14289TIP3   OH264281   2.699   0.326  16.356 -0.0403  0.1136 -0.0146
14289TIP3    H164282   2.654   0.312  16.273  1.2706  2.4000 -1.2195
14289TIP3    H264283   2.773   0.382  16.333  1.7265 -1.1166  2.3468
14290TIP3   OH264284   0.685   4.966   2.729 -0.0558  0.5034  0.1904
14290TIP3    H164285   0.717   5.018   2.803 -0.7354 -0.3244  1.0934
14290TIP3    H264286   0.612   5.016   2.694  0.7677  1.2939 -0.4533
14291TIP3   OH264287   0.839   4.576   0.068  0.6133  0.0394  0.4160
14291TIP3    H164288   0.811   4.543  -0.017  1.4199  1.0823 -0.2782
14291TIP3    H264289   0.840   4.672   0.058 -0.6817  0.2712  2.0459
14292TIP3   OH264290   1.470   0.752   5.691 -0.5074 -0.1791  0.0519
14292TIP3    H164291   1.553   0.773   5.647 -0.9774  0.6285 -0.4759
14292TIP3    H264292   1.448   0.832   5.739  0.1205 -1.1077  2.0188
14293TIP3   OH264293   3.774   3.095  16.878  0.0631 -0.3070  0.4786
14293TIP3    H164294   3.708   3.031  16.906 -0.2229  0.3902  1.4223
14293TIP3    H264295   3.850   3.041  16.855 -0.7258 -1.1058 -0.3970
14294TIP3   OH264296   1.824   2.975   5.803 -0.3013  0.6441  0.4446
14294TIP3    H164297   1.790   2.944   5.719 -2.6128  0.3370  1.4303
14294TIP3    H264298   1.904   2.923   5.816 -0.6205 -0.2696 -0.9342
14295TIP3   OH264299   0.415   1.039   0.442 -0.2921 -0.1186  0.8960
14295TIP3    H164300   0.381   0.950   0.440  0.0381 -0.2368 -0.7762
14295TIP3    H264301   0.440   1.057   0.351  0.0329  1.5256  1.2857
14296TIP3   OH264302   6.081   3.072   3.604 -0.0518 -0.1036 -0.2238
14296TIP3    H164303   6.138   3.076   3.528 -0.2687 -1.7143 -0.5069
14296TIP3    H264304   6.131   3.114   3.674  1.2766 -1.0490 -0.5916
14297TIP3   OH264305   3.686   1.134   2.601 -0.0369  0.6549  0.0506
14297TIP3    H164306   3.781   1.144   2.596  0.3707 -0.2038  3.2810
14297TIP3    H264307   3.659   1.196   2.668 -1.8397  1.0715 -1.0003
14298TIP3   OH264308   3.022   3.378  10.759  0.5168 -0.2614  0.2729
14298TIP3    H164309   2.935   3.406  10.787 -0.0069 -0.0769 -1.4360
14298TIP3    H264310   3.032   3.290  10.794 -0.6607 -0.5621 -0.1102
14299TIP3   OH264311   4.073   2.984  12.978 -0.1545  0.1168 -0.1787
14299TIP3    H164312   4.028   2.902  12.957 -0.4153  0.6965 -2.1328
14299TIP3    H264313   4.003   3.049  12.985  0.1577  0.4697 -0.2922
14300TIP3   OH264314   0.067   1.735   1.044  0.0428  0.0289  0.7111
14300TIP3    H164315   0.084   1.829   1.036 -1.4043  0.1807 -1.0856
14300TIP3    H264316   0.085   1.716   1.136  0.1758  2.0947  1.1763
14301TIP3   OH264317   0.363   2.959   2.779  0.0511 -0.0538  0.5206
14301TIP3    H164318   0.403   2.875   2.801 -0.0704 -0.3717 -0.4119
14301TIP3    H264319   0.278   2.958   2.823 -1.1371 -1.6138 -1.6065
14302TIP3   OH264320   3.036   3.911   0.250 -0.3796  0.4660 -0.2284
14302TIP3    H164321   3.119   3.872   0.279 -1.0156 -0.5668  0.2432
14302TIP3    H264322   2.995   3.844   0.196 -0.1348  1.6299 -1.9309
14303TIP3   OH264323   0.376   4.807   6.034 -0.3109  0.3759 -0.0502
14303TIP3    H164324   0.331   4.871   6.089 -0.4772 -1.4819  2.1259
14303TIP3    H264325   0.332   4.813   5.949 -1.4497  1.8983  0.6004
14304TIP3   OH264326   2.380   3.884   3.996  0.0966  0.2142  0.5667
14304TIP3    H164327   2.299   3.927   3.967 -0.2010 -0.5488  0.2334
14304TIP3    H264328   2.450   3.930   3.951 -0.2466  0.0919 -0.1000
14305TIP3   OH264329   6.017   0.498  15.543  0.2179  0.1914 -0.3359
14305TIP3    H164330   5.977   0.525  15.460  0.5992  0.8843 -0.3005
14305TIP3    H264331   6.111   0.509  15.528  0.3178 -0.1913  0.0138
14306TIP3   OH264332   6.248   2.133  16.859  0.0732  0.4912  0.0092
14306TIP3    H164333   6.173   2.136  16.800 -0.5664  1.6966  0.8412
14306TIP3    H264334   6.320   2.169  16.807  0.1356 -0.7172 -0.8088
14307TIP3   OH264335   1.365   3.693   2.933  0.0033 -0.5779  0.3089
14307TIP3    H164336   1.287   3.651   2.896 -0.8330  1.0453  0.1747
14307TIP3    H264337   1.370   3.658   3.022 -1.2167 -0.2727  0.5120
14308TIP3   OH264338   1.603   3.455  14.807  0.2841  0.5139 -0.4408
14308TIP3    H164339   1.695   3.440  14.784  0.2576  0.3746 -0.4556
14308TIP3    H264340   1.590   3.405  14.887  0.3071  0.7956 -0.2606
14309TIP3   OH264341   6.168   5.029  14.488 -0.4168 -0.1289  0.3728
14309TIP3    H164342   6.090   5.054  14.438 -0.1544  0.0039  0.0308
14309TIP3    H264343   6.237   5.019  14.423  0.1178  0.7615  0.7756
14310TIP3   OH264344   4.581   4.849  16.468  0.0285 -0.3435 -0.3574
14310TIP3    H164345   4.652   4.788  16.450  0.5928  0.7904 -2.3471
14310TIP3    H264346   4.562   4.837  16.561  1.6764 -1.8595 -0.1528
14311TIP3   OH264347   5.318   3.859  14.886 -0.1976  0.3088 -0.3197
14311TIP3    H164348   5.408   3.831  14.897  0.1131  0.0648 -2.8560
14311TIP3    H264349   5.276   3.787  14.838 -1.9217  0.1637  1.3059
14312TIP3   OH264350   6.222   3.029   5.317 -0.0385  0.5192  0.2064
14312TIP3    H164351   6.187   3.085   5.248  0.2385 -1.1971 -1.4081
14312TIP3    H264352   6.299   2.988   5.278  0.4277 -0.1159  1.7256
14313TIP3   OH264353   1.787   5.637  11.526 -0.0951  1.1648 -0.1964
14313TIP3    H164354   1.762   5.625  11.618 -0.4845  1.8913 -0.1968
14313TIP3    H264355   1.721   5.588  11.477  1.1473 -0.7594 -0.0524
14314TIP3   OH264356   5.084   6.260   1.079 -0.9289 -0.8053 -0.1578
14314TIP3    H164357   5.126   6.181   1.047 -1.9250 -2.4535  2.2878
14314TIP3    H264358   5.141   6.291   1.149 -0.9982  0.1232 -0.5011
14315TIP3   OH264359   3.047   3.605  15.571 -0.4614 -0.1856  0.3656
14315TIP3    H164360   3.094   3.596  15.488 -1.1292 -1.0618  0.0656
14315TIP3    H264361   3.105   3.567  15.636 -0.5982 -0.9468  0.0502
14316TIP3   OH264362   0.244   5.997  13.261  0.1271  0.0481  0.0284
14316TIP3    H164363   0.202   5.989  13.175  0.3455  0.9033 -0.1671
14316TIP3    H264364   0.334   5.967  13.246  0.1335  0.0902 -0.0194
14317TIP3   OH264365   0.950   3.759  16.105 -0.1218  0.5232  0.4198
14317TIP3    H164366   0.940   3.844  16.148  0.9357 -0.0335  1.8474
14317TIP3    H264367   1.024   3.719  16.150  0.3602 -0.5422 -1.2518
14318TIP3   OH264368   4.776   5.289  12.578 -0.3509  0.1280 -0.1299
14318TIP3    H164369   4.869   5.272  12.593 -0.4268  0.9069  1.5365
14318TIP3    H264370   4.731   5.220  12.627 -0.6292  0.9916  0.8654
14319TIP3   OH264371   4.900   4.316   0.064  0.6542 -0.7891  0.2142
14319TIP3    H164372   4.871   4.397   0.106  0.5651 -1.0112  0.5867
14319TIP3    H264373   4.983   4.296   0.107  1.4565 -0.0846 -0.9356
14320TIP3   OH264374   4.226   4.997  10.519 -0.0594  0.0890 -0.9327
14320TIP3    H164375   4.321   4.983  10.514  0.2516  1.0349  1.1401
14320TIP3    H264376   4.215   5.090  10.499 -0.7199 -0.2919 -2.4314
14321TIP3   OH264377   4.927   4.392   4.529  0.5206 -0.3997 -0.3789
14321TIP3    H164378   4.836   4.397   4.557  0.6284 -0.7588  0.0594
14321TIP3    H264379   4.925   4.334   4.453  0.3764 -0.3581 -0.4079
14322TIP3   OH264380   4.504   1.658  16.675 -0.1824  0.4597  0.4113
14322TIP3    H164381   4.520   1.586  16.614 -1.0232  0.0877  0.6192
14322TIP3    H264382   4.446   1.718  16.628 -1.3686 -0.1488  1.0509
14323TIP3   OH264383   2.151   1.838   5.337  0.2231 -0.7427 -0.9956
14323TIP3    H164384   2.066   1.813   5.299 -0.1939 -0.0623 -0.5372
14323TIP3    H264385   2.146   1.933   5.344  0.5289 -0.8100  0.2163
14324TIP3   OH264386   0.038   6.087  11.491  0.4327 -0.0548  0.0596
14324TIP3    H164387   0.032   6.096  11.396 -0.2296 -0.4046  0.0543
14324TIP3    H264388   0.125   6.050  11.506  2.0100  3.2294 -0.1181
14325TIP3   OH264389   5.474   0.100   0.137  0.0456  0.2280  0.0350
14325TIP3    H164390   5.496   0.187   0.104  0.0656 -0.1557 -0.9951
14325TIP3    H264391   5.407   0.116   0.205 -1.0857  0.9543 -1.2043
14326TIP3   OH264392   4.690   5.107  14.196 -0.0506  0.4834 -0.1307
14326TIP3    H164393   4.779   5.141  14.199  0.1238  0.0508 -0.4215
14326TIP3    H264394   4.681   5.055  14.276 -0.2599  1.0442  0.2240
14327TIP3   OH264395   4.529   5.925   3.986  0.5789 -0.3752  0.0701
14327TIP3    H164396   4.604   5.939   4.043 -0.0916 -0.4276  0.9848
14327TIP3    H264397   4.462   5.984   4.019  0.3150 -0.1030 -0.9324
14328TIP3   OH264398   0.866   4.935   3.975  0.1832 -0.3242 -0.0788
14328TIP3    H164399   0.869   4.844   3.945  1.7248  0.0751 -1.2451
14328TIP3    H264400   0.775   4.948   4.002 -0.5265 -1.6499 -1.6510
14329TIP3   OH264401   1.190   5.264  14.007 -0.6047  0.6300  0.2535
14329TIP3    H164402   1.147   5.181  14.030  0.7955 -0.6994 -1.6459
14329TIP3    H264403   1.119   5.319  13.976 -1.5657  0.1679  1.5210
14330TIP3   OH264404   4.339   3.298  12.364 -0.6559 -0.4534  0.2713
14330TIP3    H164405   4.276   3.348  12.312 -0.9279 -0.7080  0.3511
14330TIP3    H264406   4.410   3.278  12.303 -1.3132 -1.3784 -0.2087
14331TIP3   OH264407   5.160   4.335   0.158  0.0639  0.0680 -0.4627
14331TIP3    H164408   5.175   4.348   0.252  0.2843 -1.6943 -0.2365
14331TIP3    H264409   5.211   4.405   0.116 -1.3631  1.9237  0.7533
14332TIP3   OH264410   2.460   5.190   5.563 -0.6769  0.6445 -0.2022
14332TIP3    H164411   2.395   5.141   5.613 -2.5541  1.5545 -1.6477
14332TIP3    H264412   2.533   5.202   5.624 -1.1323 -1.8585  0.9291
14333TIP3   OH264413   2.393   6.395   0.606 -0.0595  0.1063  0.3027
14333TIP3    H164414   2.463   6.439   0.558 -0.9100 -0.6723 -1.7752
14333TIP3    H264415   2.341   6.466   0.643  1.2520  0.7122  1.0364
14334TIP3   OH264416   2.619   4.892  13.767  0.5712 -0.4331  0.3439
14334TIP3    H164417   2.700   4.843  13.754 -0.8995 -2.5385 -2.0467
14334TIP3    H264418   2.636   4.978  13.730  1.2305 -1.4985 -2.0765
14335TIP3   OH264419   0.650   5.335  12.228  0.4595  0.1418  0.8010
14335TIP3    H164420   0.648   5.259  12.286 -0.2575  0.0897  0.7194
14335TIP3    H264421   0.568   5.329  12.178  0.4331  0.9265  0.7433
14336TIP3   OH264422   6.551   5.686  15.143 -0.1911  0.3877 -0.0826
14336TIP3    H164423   6.505   5.752  15.090  0.4969 -0.5825 -1.9587
14336TIP3    H264424   6.641   5.688  15.111  0.0326 -0.8586  0.4338
14337TIP3   OH264425   3.992   3.596  16.924 -0.0896 -0.4299 -0.0732
14337TIP3    H164426   4.084   3.622  16.922 -0.2358  0.0979 -0.2168
14337TIP3    H264427   3.994   3.502  16.939  0.4764 -0.4349 -0.1442
14338TIP3   OH264428   3.836   0.015  12.329  0.8016 -0.7958  0.2326
14338TIP3    H164429   3.826  -0.076  12.301 -0.1893 -0.3532 -0.9674
14338TIP3    H264430   3.752   0.055  12.308  1.9530  0.9355 -1.3720
14339TIP3   OH264431   0.534   0.630  12.829 -0.1784  0.0003  0.5693
14339TIP3    H164432   0.447   0.615  12.866 -0.5581 -2.3165 -1.0346
14339TIP3    H264433   0.589   0.562  12.867  0.0534 -0.7314 -0.9645
14340TIP3   OH264434   6.703   5.690  12.751  0.2612  0.3672 -0.1005
14340TIP3    H164435   6.612   5.713  12.732  0.1145  0.5538  0.8091
14340TIP3    H264436   6.726   5.741  12.828  1.5056  1.1920 -0.9804
14341TIP3   OH264437   0.103   3.421   2.337  0.2382 -0.5464 -0.0757
14341TIP3    H164438   0.049   3.385   2.267 -1.6449  1.3476  0.2942
14341TIP3    H264439   0.121   3.511   2.309 -0.6434  0.2885  1.8402
14342TIP3   OH264440   1.057   3.320   2.246  0.0693 -0.3731 -0.1411
14342TIP3    H164441   0.976   3.369   2.231  0.2915  0.1793  0.4179
14342TIP3    H264442   1.040   3.234   2.208 -1.1848 -0.6229  0.9357
14343TIP3   OH264443   3.035   6.037   5.035 -0.0395  0.2446 -1.0197
14343TIP3    H164444   2.977   6.082   5.096 -0.4788 -1.2867 -0.2494
14343TIP3    H264445   2.999   6.058   4.948 -0.5358  0.9362 -0.6549
14344TIP3   OH264446   4.200   3.519  13.345 -0.0906 -0.2240 -0.7698
14344TIP3    H164447   4.241   3.464  13.412 -0.4575  0.6590  0.2066
14344TIP3    H264448   4.257   3.596  13.340  0.9075 -1.0180 -2.7511
14345TIP3   OH264449   1.531   2.398   0.357 -0.2408  0.0759 -0.7592
14345TIP3    H164450   1.563   2.329   0.416 -2.1402 -0.6935 -0.5533
14345TIP3    H264451   1.489   2.461   0.415 -2.7697 -1.0441 -1.2473
14346TIP3   OH264452   4.398   5.676   6.349 -0.0396 -0.3623  0.3559
14346TIP3    H164453   4.406   5.770   6.332 -0.9854 -0.0381  1.5990
14346TIP3    H264454   4.327   5.647   6.291  0.4170 -0.3656 -0.2062
14347TIP3   OH264455   3.606   5.618   3.251 -0.4278  0.1951 -0.0102
14347TIP3    H164456   3.544   5.640   3.182  1.0994  1.8591 -0.9559
14347TIP3    H264457   3.583   5.675   3.324 -0.7282 -0.0372  0.0774
14348TIP3   OH264458   0.663   5.135   4.376  0.3269  0.2263  0.8783
14348TIP3    H164459   0.600   5.175   4.435 -0.1266 -0.5755  0.9455
14348TIP3    H264460   0.683   5.204   4.313  0.2062  0.8318  1.4816
14349TIP3   OH264461   3.067   1.151  10.996  0.2480  0.4695 -0.3215
14349TIP3    H164462   3.050   1.242  10.971 -0.9537 -0.4136 -3.2207
14349TIP3    H264463   3.131   1.121  10.931  2.0293 -0.3264  1.6973
14350TIP3   OH264464   0.005   5.423   6.435  0.1864  0.6183  0.5445
14350TIP3    H164465  -0.062   5.491   6.430 -0.9603 -0.5079  0.2018
14350TIP3    H264466   0.042   5.432   6.522 -2.0307 -0.2006  1.6357
14351TIP3   OH264467   0.389   1.278   2.217  0.3094  0.1961  0.0904
14351TIP3    H164468   0.455   1.243   2.277  1.1263  1.7224  0.1413
14351TIP3    H264469   0.421   1.254   2.130 -0.8674 -2.0045  0.2084
14352TIP3   OH264470   3.891   5.165   4.793  0.1918 -0.0137  0.2250
14352TIP3    H164471   3.911   5.249   4.833  2.1154 -0.4426  0.2558
14352TIP3    H264472   3.891   5.102   4.865 -2.6854  0.0756  0.4450
14353TIP3   OH264473   4.212   0.150  16.634  0.4218  0.3731  0.4644
14353TIP3    H164474   4.193   0.243  16.648 -3.1212  0.2058 -1.8712
14353TIP3    H264475   4.157   0.104  16.696  0.0359 -0.1526 -0.2487
14354TIP3   OH264476   5.495   5.691  16.315  0.1571  0.4913 -0.2530
14354TIP3    H164477   5.585   5.692  16.282  0.0195  0.7270 -0.6332
14354TIP3    H264478   5.470   5.783  16.322  0.0834  0.4342  0.2377
14355TIP3   OH264479   4.794   0.268   4.144 -0.1355  0.1294  0.2393
14355TIP3    H164480   4.888   0.278   4.158  0.0204 -1.5798  0.6096
14355TIP3    H264481   4.779   0.174   4.149 -1.8524  0.3652  0.0393
14356TIP3   OH264482   2.682   5.336   0.525  0.3416 -0.6356 -0.1311
14356TIP3    H164483   2.759   5.281   0.539  0.5024 -0.5819 -0.7946
14356TIP3    H264484   2.644   5.305   0.443 -1.0250 -1.4529  0.7655
14357TIP3   OH264485   3.854   3.149  11.720  0.5187  0.1747 -0.1993
14357TIP3    H164486   3.819   3.075  11.669  0.2142  0.3460 -0.2394
14357TIP3    H264487   3.949   3.140  11.712  0.6141 -1.8789  2.1391
14358TIP3   OH264488   2.115   3.844  16.054  0.1187  0.6598  0.2235
14358TIP3    H164489   2.138   3.798  15.974 -4.2351  0.0928 -0.9313
14358TIP3    H264490   2.088   3.931  16.025  0.6820  1.2629  1.4187
14359TIP3   OH264491   6.014   1.494   0.042 -0.0526 -0.2387 -0.8735
14359TIP3    H164492   6.066   1.558   0.092  0.1259 -0.5327 -0.6810
14359TIP3    H264493   5.991   1.540  -0.038 -2.3573  1.1227  0.4497
14360TIP3   OH264494   4.816   2.943  10.563  0.1560  0.0482 -0.3790
14360TIP3    H164495   4.738   2.943  10.617  0.1531  0.8607 -0.3728
14360TIP3    H264496   4.814   3.027  10.517  0.8043 -0.0997 -0.6953
14361TIP3   OH264497   3.524   5.808  15.888  0.1984  0.1921 -0.0954
14361TIP3    H164498   3.583   5.741  15.922 -1.0532 -0.2121  1.4111
14361TIP3    H264499   3.578   5.860  15.829  1.5777 -1.2388 -0.1560
14362TIP3   OH264500   5.383   2.980   3.204  0.3800 -0.0694 -0.1445
14362TIP3    H164501   5.461   3.008   3.251 -0.1016 -1.0178  1.2927
14362TIP3    H264502   5.390   3.021   3.118  1.7370  1.0111  0.4503
14363TIP3   OH264503   5.337   6.366  15.483  0.3375 -0.3156 -0.4418
14363TIP3    H164504   5.402   6.333  15.421  1.0565 -1.4761  0.8909
14363TIP3    H264505   5.375   6.448  15.515  1.5318 -1.3370  0.8610
14364TIP3   OH264506   5.193   2.506   1.351  0.6299  0.0528  0.0543
14364TIP3    H164507   5.212   2.537   1.440 -0.6534  1.0078  0.0294
14364TIP3    H264508   5.107   2.543   1.331 -0.1001 -1.9452 -0.7617
14365TIP3   OH264509   6.522   4.187  15.575 -0.3834  0.0405  0.1013
14365TIP3    H164510   6.546   4.187  15.668 -1.0933 -2.2625  0.3436
14365TIP3    H264511   6.573   4.116  15.537 -0.7217  0.4236 -1.1064
14366TIP3   OH264512   1.053   2.854   0.258  0.2657 -0.6885 -0.3631
14366TIP3    H164513   1.083   2.915   0.325 -1.7095  0.9615 -0.9083
14366TIP3    H264514   1.090   2.888   0.176 -0.6345 -0.3537 -0.6364
14367TIP3   OH264515   2.532   2.484  11.766 -0.0947  0.3765  0.4322
14367TIP3    H164516   2.528   2.491  11.861  1.7687 -2.1392  0.7949
14367TIP3    H264517   2.442   2.471  11.738 -0.6125  0.7505  1.8665
14368TIP3   OH264518   0.009   3.425   6.067 -0.0783  0.6579 -0.4268
14368TIP3    H164519   0.043   3.365   6.133 -0.2468 -0.0460 -0.9720
14368TIP3    H264520  -0.070   3.462   6.106 -0.2998  0.0774 -0.3149
14369TIP3   OH264521   6.179   4.404  14.025 -0.3331  0.5337  0.2330
14369TIP3    H164522   6.182   4.375  13.933 -0.2010  0.1656  0.3507
14369TIP3    H264523   6.094   4.376  14.057 -0.3224  0.5354  0.2633
14370TIP3   OH264524   5.441   2.642  12.195  0.2206 -0.9153 -0.0702
14370TIP3    H164525   5.434   2.644  12.291 -0.5184 -1.0655 -0.1196
14370TIP3    H264526   5.488   2.723  12.173  0.5262 -0.9535  0.4280
14371TIP3   OH264527   3.796   4.765  12.673  0.0433  0.2629 -0.6584
14371TIP3    H164528   3.815   4.681  12.714  0.4212  0.3692 -0.6124
14371TIP3    H264529   3.728   4.746  12.609 -1.4343  0.2921  0.8194
14372TIP3   OH264530   4.159   1.521  13.479 -0.0409  0.3386  0.4746
14372TIP3    H164531   4.192   1.570  13.404 -0.3635 -1.1785 -0.7235
14372TIP3    H264532   4.147   1.432  13.446 -2.8839  0.2140  1.5332
14373TIP3   OH264533   0.011   4.740  13.958  0.2540  0.3066 -0.2694
14373TIP3    H164534  -0.068   4.687  13.944  0.2160 -0.0854  1.2188
14373TIP3    H264535   0.052   4.745  13.872 -1.2195  0.2353 -1.0041
14374TIP3   OH264536   3.819   1.542   6.111  0.0853 -0.5390  0.0388
14374TIP3    H164537   3.820   1.591   6.029 -1.3710 -0.7512 -0.1364
14374TIP3    H264538   3.903   1.562   6.152  0.3824  0.4408 -0.9942
14375TIP3   OH264539   0.840   1.832   3.220 -0.1186  0.0456  0.6712
14375TIP3    H164540   0.900   1.840   3.294  1.0497  0.0533 -0.2511
14375TIP3    H264541   0.883   1.879   3.148 -0.6365 -1.0136 -0.3681
14376TIP3   OH264542   3.889   3.541  16.247 -0.4557  0.4165  0.3210
14376TIP3    H164543   3.946   3.590  16.188  0.4290 -1.3806 -0.3749
14376TIP3    H264544   3.803   3.545  16.206 -0.0822  0.1473 -0.4996
14377TIP3   OH264545   4.803   0.274  16.834  0.2338  0.3532 -0.4517
14377TIP3    H164546   4.770   0.232  16.754 -1.1426  0.2098  0.1666
14377TIP3    H264547   4.796   0.368  16.816  1.6903  0.3585 -1.1770
14378TIP3   OH264548   1.550   3.717  14.728 -0.1656  0.0003  0.7245
14378TIP3    H164549   1.509   3.717  14.641  0.2630  0.7233  0.5126
14378TIP3    H264550   1.551   3.625  14.754  1.1518 -0.4364 -0.7305
14379TIP3   OH264551   5.830   2.640   5.807  0.2205  0.9469  0.1046
14379TIP3    H164552   5.846   2.721   5.855  0.8364  0.2745  1.0697
14379TIP3    H264553   5.816   2.668   5.716  1.0310  2.0742  0.3102
14380TIP3   OH264554   1.897   3.758   0.038 -0.1813 -0.1006  0.1569
14380TIP3    H164555   1.849   3.820  -0.017  0.7875  0.4148 -0.1386
14380TIP3    H264556   1.851   3.760   0.122 -1.8357 -1.0801 -0.6610
14381TIP3   OH264557   5.411   0.053  12.573  0.0898  0.1247 -0.1675
14381TIP3    H164558   5.472   0.035  12.501  2.8410  2.1062  1.4814
14381TIP3    H264559   5.405  -0.030  12.621 -0.2752 -0.6764 -1.5351
14382TIP3   OH264560   4.565   3.506   5.031  0.0072 -0.7947  0.3121
14382TIP3    H164561   4.534   3.530   5.119 -0.9656 -1.9567  0.3106
14382TIP3    H264562   4.492   3.458   4.992  0.7361 -1.0069 -0.8338
14383TIP3   OH264563   0.193   1.843   2.714  0.0616  0.2935  0.6332
14383TIP3    H164564   0.252   1.772   2.738  0.1659 -0.2563 -1.0921
14383TIP3    H264565   0.105   1.804   2.721  0.1446 -0.2413 -0.8864
14384TIP3   OH264566   5.397   3.966   2.248 -0.4504 -0.2104 -0.0960
14384TIP3    H164567   5.350   3.922   2.319  0.3382 -0.1542  0.4690
14384TIP3    H264568   5.437   4.042   2.288 -0.3697  0.0743 -0.7029
14385TIP3   OH264569   0.389   0.303  14.612  0.0678  0.2343 -0.4632
14385TIP3    H164570   0.354   0.365  14.548  1.1240  0.1743 -1.1371
14385TIP3    H264571   0.334   0.314  14.689 -1.6733 -0.1849 -1.5996
14386TIP3   OH264572   5.050   4.385   4.100 -0.2447 -0.2342  0.7424
14386TIP3    H164573   5.049   4.335   4.182 -3.5354  1.3224  1.8419
14386TIP3    H264574   4.996   4.333   4.040  0.1618 -0.2156  0.3591
14387TIP3   OH264575   3.134   4.585  16.906  0.2683 -0.0621 -0.2110
14387TIP3    H164576   3.167   4.635  16.981 -0.6696  1.1079 -0.5472
14387TIP3    H264577   3.194   4.607  16.834  1.2468 -1.2888  0.2031
14388TIP3   OH264578   4.120   2.763  11.134 -0.5415 -0.2350 -0.1034
14388TIP3    H164579   4.169   2.724  11.061 -0.1989 -0.2540  0.1346
14388TIP3    H264580   4.031   2.773  11.100 -0.2925  0.1241 -0.6603
14389TIP3   OH264581   5.036   3.130  14.535  0.5023  0.2543  0.3965
14389TIP3    H164582   5.100   3.160  14.470 -0.1996  0.0628 -0.4080
14389TIP3    H264583   4.963   3.192  14.528 -0.5735 -1.0428 -0.6493
14390TIP3   OH264584   2.592   3.742  15.647 -0.1579  0.3300 -0.4020
14390TIP3    H164585   2.596   3.647  15.656  1.3692  0.5337  1.9693
14390TIP3    H264586   2.506   3.766  15.682 -0.7132 -0.1728 -1.3817
14391TIP3   OH264587   6.427   2.898   5.177 -0.2251 -0.2642 -0.0622
14391TIP3    H164588   6.518   2.892   5.149 -0.3971 -1.8042 -0.3560
14391TIP3    H264589   6.384   2.822   5.139 -1.2815 -0.4639  1.4144
14392TIP3   OH264590   6.743   5.017   4.439 -0.1746  0.3847 -0.1060
14392TIP3    H164591   6.772   5.049   4.525  2.6496 -0.4675 -0.6091
14392TIP3    H264592   6.808   4.951   4.416 -0.7387  0.7094 -2.9845
14393TIP3   OH264593   2.039   5.196  15.958 -0.3199  0.1622 -0.0575
14393TIP3    H164594   1.945   5.209  15.945 -0.2563  0.4761 -0.2038
14393TIP3    H264595   2.045   5.112  16.004 -0.6938  0.3286  0.3034
14394TIP3   OH264596   0.086   3.568  13.685 -0.0587  0.0666  0.2608
14394TIP3    H164597   0.055   3.530  13.767  0.8442 -1.8951 -0.2431
14394TIP3    H264598   0.040   3.519  13.617  0.2514  0.7154 -0.4261
14395TIP3   OH264599   6.318   6.402   6.170 -0.0799  0.0012  0.1162
14395TIP3    H164600   6.347   6.315   6.140  1.1692  0.4502 -0.0376
14395TIP3    H264601   6.236   6.385   6.216 -0.7539 -1.0403 -1.4001
14396TIP3   OH264602   5.795   0.216   2.734  0.5515 -0.5843  0.0135
14396TIP3    H164603   5.756   0.155   2.797  1.5704 -1.1275  0.1267
14396TIP3    H264604   5.882   0.180   2.716  1.5725  1.3482  0.8357
14397TIP3   OH264605   2.855   1.799  16.328  0.0330 -0.4491 -0.0488
14397TIP3    H164606   2.847   1.712  16.288  1.9995 -2.2529  3.1150
14397TIP3    H264607   2.786   1.802  16.393  1.2285 -0.5423  1.2632
14398TIP3   OH264608   1.106   4.656   3.180 -0.0473  0.1698 -0.5277
14398TIP3    H164609   1.050   4.603   3.236  0.4370  0.9418  0.7441
14398TIP3    H264610   1.134   4.597   3.110 -2.4497 -0.2178 -1.2231
14399TIP3   OH264611   0.178   4.533   4.425 -0.0090  0.5881  0.1187
14399TIP3    H164612   0.259   4.560   4.468 -0.3686 -1.8695  2.6121
14399TIP3    H264613   0.208   4.491   4.344  0.9190  2.4171 -0.5594
14400TIP3   OH264614   1.130   6.118   2.712  0.4574 -0.4804 -0.3620
14400TIP3    H164615   1.177   6.065   2.777  1.0441  0.4798  0.0073
14400TIP3    H264616   1.039   6.088   2.718  0.5234 -0.4708  0.8321
14401TIP3   OH264617   4.482   4.796  13.873 -0.5508 -0.0963  0.0212
14401TIP3    H164618   4.414   4.783  13.807  0.1950 -3.4153 -0.2651
14401TIP3    H264619   4.439   4.773  13.956 -1.2629  3.3141  0.7435
14402TIP3   OH264620   1.537   5.823  14.114 -0.2455  0.1108  0.1974
14402TIP3    H164621   1.621   5.861  14.137 -1.2663  0.9177  3.0010
14402TIP3    H264622   1.557   5.733  14.088  1.5033  0.4208  0.4026
14403TIP3   OH264623   6.239   1.344   4.682 -0.3259 -0.1608 -0.1833
14403TIP3    H164624   6.193   1.371   4.762 -0.1255  1.6048 -0.6296
14403TIP3    H264625   6.326   1.319   4.712 -0.8956 -1.5383  0.4011
14404TIP3   OH264626   6.115   2.394   6.251  0.4389  0.3938  0.0961
14404TIP3    H164627   6.203   2.426   6.232  0.3344 -0.0504 -1.1887
14404TIP3    H264628   6.117   2.376   6.346  1.6604  0.5818  0.1299
14405TIP3   OH264629   2.388   0.849   1.081  0.0933 -0.6113  0.2941
14405TIP3    H164630   2.318   0.869   1.143  0.2519  1.9552 -0.2413
14405TIP3    H264631   2.465   0.832   1.135  0.1223  1.1539  0.8741
14406TIP3   OH264632   1.994   5.462   2.652  0.4157  0.2783  0.0510
14406TIP3    H164633   1.996   5.406   2.730 -1.4941 -1.2566 -0.9261
14406TIP3    H264634   2.060   5.424   2.594  1.0251  0.7217  0.4386
14407TIP3   OH264635   5.019   0.829  16.799 -0.5617 -0.3627  0.1493
14407TIP3    H164636   5.110   0.804  16.784 -0.3131  1.0984 -1.0287
14407TIP3    H264637   4.992   0.871  16.717 -1.6161  1.0946  1.1810
14408TIP3   OH264638   0.789   2.463   5.059  0.3534 -0.3744  0.5377
14408TIP3    H164639   0.862   2.400   5.053 -0.3172 -1.0835 -0.4220
14408TIP3    H264640   0.714   2.410   5.086 -0.1687  0.0563 -0.0474
14409TIP3   OH264641   3.058   0.165   5.749 -0.2989  0.1627 -0.3683
14409TIP3    H164642   3.136   0.121   5.714  0.9664  0.4716  1.9067
14409TIP3    H264643   3.051   0.133   5.839 -1.9664  1.2615 -0.0791
14410TIP3   OH264644   4.138   4.888  14.542  0.1632 -0.5025  0.2967
14410TIP3    H164645   4.078   4.901  14.615 -0.8097  2.0295 -0.8238
14410TIP3    H264646   4.091   4.830  14.482  0.7876 -2.2297  1.4121
14411TIP3   OH264647   5.777   0.243   4.850  0.1441 -0.5474 -0.2002
14411TIP3    H164648   5.710   0.174   4.852  0.5792 -0.9662  0.3710
14411TIP3    H264649   5.732   0.319   4.814 -0.0942 -1.4043 -1.7953
14412TIP3   OH264650   2.042   4.083  13.675  0.3421 -0.3974 -0.3742
14412TIP3    H164651   2.014   4.168  13.709 -1.2494 -0.3673 -1.6372
14412TIP3    H264652   1.989   4.069  13.597  2.0909 -1.5912 -1.4303
14413TIP3   OH264653   5.973   2.668  14.400 -0.0399 -0.0301  0.1175
14413TIP3    H164654   5.937   2.648  14.314 -0.4348  0.5310  0.1494
14413TIP3    H264655   5.900   2.705  14.449  0.9352  2.6708 -0.3455
14414TIP3   OH264656   4.544   0.555   5.425 -0.0221 -0.5785  0.3924
14414TIP3    H164657   4.554   0.644   5.391 -0.4918 -0.9550 -0.7638
14414TIP3    H264658   4.471   0.562   5.488 -0.2845 -0.2122  0.0566
14415TIP3   OH264659   0.127   0.539   1.846  0.1628  0.1968 -1.1265
14415TIP3    H164660   0.181   0.539   1.766 -1.5188 -1.5128 -2.3356
14415TIP3    H264661   0.160   0.465   1.897 -0.8091 -0.6496 -1.7160
14416TIP3   OH264662   2.835   6.471  16.197  0.0981  0.5526 -0.2862
14416TIP3    H164663   2.903   6.534  16.221  1.2310 -0.7122 -0.0305
14416TIP3    H264664   2.869   6.429  16.118 -0.4173 -0.0500 -0.1966
14417TIP3   OH264665   1.125   2.351  17.080  0.5841  0.4151 -0.0820
14417TIP3    H164666   1.213   2.316  17.097  0.9694  1.3997  0.0308
14417TIP3    H264667   1.069   2.274  17.073  1.7949 -0.3528 -2.1825
14418TIP3   OH264668   5.264   3.829  12.581  0.1146 -0.4338 -0.4346
14418TIP3    H164669   5.354   3.799  12.569  0.4776  0.6143 -0.4148
14418TIP3    H264670   5.272   3.915  12.621 -0.9262 -0.7443  0.4861
14419TIP3   OH264671   2.036   0.068   4.909  0.3738  0.2808 -0.5149
14419TIP3    H164672   1.953   0.030   4.880  0.5706 -1.7783  1.3765
14419TIP3    H264673   2.020   0.162   4.910 -1.6469 -0.0088 -1.0286
14420TIP3   OH264674   6.498   3.256  13.702 -0.6464  0.2239 -0.2992
14420TIP3    H164675   6.533   3.188  13.645 -2.1977  1.3695 -2.7853
14420TIP3    H264676   6.463   3.322  13.642 -1.7067  1.8937  2.0027
14421TIP3   OH264677   6.220   4.963  13.167 -0.0378  0.3216 -0.6275
14421TIP3    H164678   6.300   4.961  13.220 -0.7882  1.1451  0.5776
14421TIP3    H264679   6.153   4.926  13.223 -1.0099  1.8701 -0.7039
14422TIP3   OH264680   1.277   4.105  16.830  0.5668  0.1559  0.4749
14422TIP3    H164681   1.325   4.023  16.844  0.5749 -0.2316 -1.5562
14422TIP3    H264682   1.185   4.079  16.830  0.4950  0.3807  1.1165
14423TIP3   OH264683   0.536   0.483  13.875 -0.4453 -0.7572 -0.0642
14423TIP3    H164684   0.546   0.516  13.964  0.7023 -2.4091  0.4747
14423TIP3    H264685   0.543   0.560  13.819  0.4974  0.1006  1.1999
14424TIP3   OH264686   2.783   1.634   5.293 -0.1784 -0.1713 -0.2479
14424TIP3    H164687   2.689   1.650   5.286 -0.5634 -2.4024 -0.8980
14424TIP3    H264688   2.795   1.602   5.383 -0.0115  0.2470 -0.1195
14425TIP3   OH264689   1.969   1.052   3.673  0.4027 -0.1916 -0.0158
14425TIP3    H164690   1.890   1.106   3.683  1.6978  1.9129 -0.6635
14425TIP3    H264691   1.993   1.063   3.581  2.3648  0.5547  0.5514
14426TIP3   OH264692   6.209   2.799  12.002  0.2284 -0.5185 -0.2953
14426TIP3    H164693   6.133   2.838  11.960  0.6133  0.7192  0.1031
14426TIP3    H264694   6.172   2.740  12.069 -0.3821  0.0345 -0.1359
14427TIP3   OH264695   0.112   0.320  11.958 -0.7080 -0.2353 -0.2324
14427TIP3    H164696   0.160   0.388  12.004  0.2135 -0.2588 -1.1195
14427TIP3    H264697   0.023   0.354  11.950 -0.3876  0.6324 -0.2016
14428TIP3   OH264698   0.531   1.594  15.071  0.1024 -0.0393 -0.2775
14428TIP3    H164699   0.547   1.624  14.981 -0.1195  0.3632 -0.1860
14428TIP3    H264700   0.580   1.512  15.078 -0.5128 -0.4804 -1.0121
14429TIP3   OH264701   0.095   2.938   5.664  0.5851 -0.5951 -0.1459
14429TIP3    H164702   0.024   2.907   5.607  0.6975 -1.8372  0.3405
14429TIP3    H264703   0.139   2.858   5.692  1.0454  0.0406  1.0182
14430TIP3   OH264704   5.054   6.391  11.509 -0.7471  0.4479  0.3291
14430TIP3    H164705   5.003   6.445  11.570 -0.2300  1.8374 -0.4409
14430TIP3    H264706   5.144   6.422  11.518 -0.1336 -1.3923  1.0329
14431TIP3   OH264707   1.655   6.126   2.381  0.6961 -0.3573  0.0361
14431TIP3    H164708   1.657   6.222   2.373  1.4853 -0.3189  0.5859
14431TIP3    H264709   1.609   6.097   2.302 -1.3079  0.5600  0.8011
14432TIP3   OH264710   1.433   6.652   5.266  0.1285 -0.1184  0.3862
14432TIP3    H164711   1.441   6.595   5.343  1.7600 -0.9368 -0.3380
14432TIP3    H264712   1.352   6.624   5.223  1.2219 -2.4594 -0.3252
14433TIP3   OH264713   5.644   4.864   3.664 -0.7585 -0.4750  0.1550
14433TIP3    H164714   5.630   4.771   3.643 -4.6255 -0.6433  2.5840
14433TIP3    H264715   5.676   4.863   3.754 -0.3070  0.5444  0.0090
14434TIP3   OH264716   2.939   4.599   2.589 -0.1818 -0.1734 -0.2899
14434TIP3    H164717   2.917   4.510   2.618  0.0994 -0.3054 -0.4775
14434TIP3    H264718   3.033   4.596   2.571 -0.0490  0.3237  0.2845
14435TIP3   OH264719   3.641   2.776   0.936 -0.0378 -0.2692 -0.0460
14435TIP3    H164720   3.616   2.861   0.972 -0.4553  0.5728 -2.1931
14435TIP3    H264721   3.678   2.728   1.011  1.6279  2.3429  0.9317
14436TIP3   OH264722   3.892   5.343   5.029 -0.6197  0.3129  0.1305
14436TIP3    H164723   3.898   5.348   5.124 -0.8661  0.6447  0.1303
14436TIP3    H264724   3.922   5.430   4.999  0.0076  0.0211 -0.1207
14437TIP3   OH264725   5.198   1.434  11.769 -0.1269  0.5551  0.5036
14437TIP3    H164726   5.229   1.480  11.848 -1.9837 -0.0207  1.6277
14437TIP3    H264727   5.241   1.480  11.697  2.1148  0.7267  1.8334
14438TIP3   OH264728   5.717   2.361  13.958 -0.0848 -0.0044 -0.5563
14438TIP3    H164729   5.758   2.325  13.879 -0.5302 -1.2693 -0.2435
14438TIP3    H264730   5.625   2.372  13.933 -0.3677 -1.0266 -0.0527
14439TIP3   OH264731   1.044   2.840   2.620 -0.0442 -0.0015 -0.1621
14439TIP3    H164732   1.079   2.855   2.708  0.1100 -1.6096  0.0839
14439TIP3    H264733   0.962   2.889   2.618 -0.7158 -0.9785  1.3673
14440TIP3   OH264734   3.076   6.482   6.337 -0.5546 -0.2858  0.5321
14440TIP3    H164735   3.029   6.530   6.269  0.7980 -0.5999 -0.6740
14440TIP3    H264736   3.053   6.390   6.321 -0.9698 -0.2889  1.1093
14441TIP3   OH264737   0.244   1.049  17.215  0.6567  0.3656  0.1410
14441TIP3    H164738   0.165   1.095  17.244  0.2408  0.3528 -0.9436
14441TIP3    H264739   0.230   0.958  17.245  0.1646  0.3166 -0.2237
14442TIP3   OH264740   6.007   0.723   2.525 -0.7109  0.2570 -0.2038
14442TIP3    H164741   6.081   0.672   2.557 -1.9145 -0.4643  1.6061
14442TIP3    H264742   5.938   0.709   2.590 -2.8511 -0.0552 -2.3813
14443TIP3   OH264743   0.078   0.950  14.219  0.1547  0.2792 -0.5618
14443TIP3    H164744   0.079   0.896  14.298 -1.1824  0.4167 -0.4443
14443TIP3    H264745   0.066   1.040  14.251 -0.9982  0.2725 -0.9303
14444TIP3   OH264746   2.364   0.762  13.144 -0.3719  0.1576  0.2153
14444TIP3    H164747   2.336   0.732  13.230 -0.3523  0.1658  0.2240
14444TIP3    H264748   2.310   0.712  13.082  0.5252 -0.7917  0.1886
14445TIP3   OH264749   1.166   2.183  14.865 -0.8084  0.5466  0.1495
14445TIP3    H164750   1.136   2.182  14.956  0.8574  0.8326  0.7404
14445TIP3    H264751   1.136   2.100  14.828  1.2439 -1.1243  1.9475
14446TIP3   OH264752   4.969   6.375  17.199 -0.9057 -0.5563 -0.2486
14446TIP3    H164753   4.995   6.355  17.109 -1.6138 -1.5413 -0.2527
14446TIP3    H264754   4.884   6.418  17.191 -2.2679 -3.0157  0.0227
14447TIP3   OH264755   6.121   3.121  11.600 -0.6604  0.2132 -0.2031
14447TIP3    H164756   6.115   3.126  11.504  1.8433  0.8575 -0.3985
14447TIP3    H264757   6.100   3.029  11.620 -1.2832  0.0812 -1.3527
14448TIP3   OH264758   2.924   5.250  16.807 -0.6360 -0.9176 -0.4772
14448TIP3    H164759   2.973   5.299  16.741 -1.6905  0.6029 -0.1617
14448TIP3    H264760   2.884   5.316  16.862  1.4430 -2.0931  2.6999
14449TIP3   OH264761   4.367   2.638  11.856  0.2318 -0.5335 -0.0930
14449TIP3    H164762   4.424   2.588  11.797  0.2848 -0.3109 -0.2338
14449TIP3    H264763   4.425   2.667  11.926  0.1566 -0.8469  0.0978
14450TIP3   OH264764   3.740   1.313   0.191  0.0283 -0.1497  0.7458
14450TIP3    H164765   3.726   1.285   0.281 -1.1361 -0.4123  0.4919
14450TIP3    H264766   3.832   1.342   0.189  0.1724 -0.4871  1.9114
14451TIP3   OH264767   5.436   1.814   4.951  0.2453  0.0691  0.3669
14451TIP3    H164768   5.443   1.909   4.961  0.1049  0.2440 -0.9168
14451TIP3    H264769   5.343   1.799   4.935  0.2821 -0.2704  0.4794
14452TIP3   OH264770   6.152   5.252   1.004  0.4519  0.3653  0.9335
14452TIP3    H164771   6.087   5.194   0.964  2.2258 -2.1694  1.4883
14452TIP3    H264772   6.127   5.254   1.097  0.4158  0.4414  0.9218
14453TIP3   OH264773   4.886   5.679  16.119  0.2633 -0.4795 -0.1050
14453TIP3    H164774   4.831   5.666  16.196 -0.0782 -1.7280 -0.5379
14453TIP3    H264775   4.939   5.599  16.114  1.7525  0.4676 -0.0070
14454TIP3   OH264776   4.707   5.720   2.910 -0.4522  0.0292 -0.3066
14454TIP3    H164777   4.770   5.793   2.904  1.4723 -1.3787  1.5437
14454TIP3    H264778   4.622   5.763   2.916  0.5278  2.1034 -0.2817
14455TIP3   OH264779   6.163   2.178  15.873 -0.0842  0.1497 -0.1439
14455TIP3    H164780   6.193   2.260  15.835 -1.7555  0.5392 -0.7127
14455TIP3    H264781   6.152   2.198  15.966  0.9636  0.1226 -0.0096
14456TIP3   OH264782   6.465   3.028   0.743 -0.2318 -0.3662 -0.3358
14456TIP3    H164783   6.478   2.952   0.687 -1.1990  0.2638 -1.4720
14456TIP3    H264784   6.381   3.011   0.787 -0.8961  0.4218 -1.2703
14457TIP3   OH264785   1.745   6.785  10.900  0.2211 -0.4357  0.3169
14457TIP3    H164786   1.691   6.863  10.896  2.3432  1.0951 -0.4018
14457TIP3    H264787   1.786   6.779  10.814 -0.6128 -2.9345  0.0116
14458TIP3   OH264788   3.125   6.435  11.126  0.0529 -0.3816  0.4552
14458TIP3    H164789   3.148   6.517  11.169  0.2497  0.6586 -1.5270
14458TIP3    H264790   3.076   6.461  11.048 -0.6476 -2.2032  0.2235
14459TIP3   OH264791   3.685   5.355  15.850  0.0262  0.4016  0.2305
14459TIP3    H164792   3.595   5.386  15.859  0.9279  3.1607  0.7437
14459TIP3    H264793   3.737   5.420  15.897  2.4985  0.1024 -1.8959
14460TIP3   OH264794   6.671   0.923   1.234  0.1904  0.0067 -0.2858
14460TIP3    H164795   6.683   0.907   1.328  0.2596 -2.2702 -0.6125
14460TIP3    H264796   6.760   0.920   1.198 -0.0158 -2.5273 -0.8009
14461TIP3   OH264797   2.813   2.334  14.043  0.6870  0.2192  0.4729
14461TIP3    H164798   2.857   2.406  13.999 -0.6849  0.9011  0.1616
14461TIP3    H264799   2.729   2.324  13.996 -0.4921  0.4798  2.4060
14462TIP3   OH264800   2.915   3.844  12.750  0.1848  0.0355  0.0718
14462TIP3    H164801   2.924   3.842  12.845  1.5395  0.2058 -0.0389
14462TIP3    H264802   2.950   3.760  12.720  0.1912  0.1694 -0.3077
14463TIP3   OH264803   3.353   0.675   0.000  0.0500 -0.6495 -0.1956
14463TIP3    H164804   3.317   0.743  -0.058  1.9529 -0.0063 -0.6845
14463TIP3    H264805   3.331   0.706   0.088 -0.0582  0.0314 -0.4556
14464TIP3   OH264806   1.967   5.076   3.797 -0.0241  0.2362 -0.0118
14464TIP3    H164807   1.992   4.988   3.770  0.8813  0.4719  0.0288
14464TIP3    H264808   2.045   5.129   3.782 -1.7117  2.0034 -4.0913
14465TIP3   OH264809   5.669   5.016  17.112 -0.5221 -0.0653 -1.0394
14465TIP3    H164810   5.640   5.106  17.094 -1.0601 -0.5124 -2.5599
14465TIP3    H264811   5.642   5.000  17.202 -2.9989  0.3648 -1.6334
14466TIP3   OH264812   2.744   6.285  16.861  0.5732  0.2671 -0.0120
14466TIP3    H164813   2.703   6.258  16.778  0.4424  0.6888 -0.0905
14466TIP3    H264814   2.742   6.381  16.858  0.1510  0.2869  0.6822
14467TIP3   OH264815   4.026   3.476   5.198 -0.6567  0.1162 -0.6779
14467TIP3    H164816   4.111   3.467   5.240 -0.8616  0.1265 -0.2547
14467TIP3    H264817   3.982   3.393   5.217 -1.5720  0.9327  0.9981
14468TIP3   OH264818   5.792   2.855   0.541  0.5372 -0.5210 -0.1028
14468TIP3    H164819   5.848   2.924   0.577  0.1331 -0.0875 -0.2837
14468TIP3    H264820   5.703   2.886   0.557  0.3513 -0.7884 -0.5834
14469TIP3   OH264821   4.854   0.157  13.832 -0.2920  0.2849 -0.7634
14469TIP3    H164822   4.772   0.199  13.805 -1.0769 -0.8532 -0.2368
14469TIP3    H264823   4.833   0.064  13.837  0.2351  0.2058  2.0498
14470TIP3   OH264824   4.784   4.498  13.969  0.1568  0.1199 -0.0283
14470TIP3    H164825   4.714   4.500  13.903  0.9353 -0.6454 -0.9168
14470TIP3    H264826   4.776   4.411  14.009 -1.5604  1.2779  2.3458
14471TIP3   OH264827   3.147   5.047  14.593  0.2183  0.2697 -0.1088
14471TIP3    H164828   3.190   5.017  14.674  0.5970  2.0382  0.3820
14471TIP3    H264829   3.076   4.985  14.580  1.2507 -1.1208  0.5739
14472TIP3   OH264830   1.180   2.020   0.958  0.3137 -0.3993 -0.0205
14472TIP3    H164831   1.259   1.971   0.979  0.7933  0.8490  1.3130
14472TIP3    H264832   1.126   2.015   1.037 -0.2043  0.1092 -0.3260
14473TIP3   OH264833   0.278   3.131   1.139 -0.3839  0.4244 -0.2118
14473TIP3    H164834   0.335   3.111   1.065  1.3582  0.1612  1.1318
14473TIP3    H264835   0.193   3.093   1.115 -0.0011  0.7368 -2.2318
14474TIP3   OH264836   5.950   5.045  14.678  0.8829 -0.1528  0.5969
14474TIP3    H164837   6.016   5.033  14.609 -1.4060 -0.7531 -1.6247
14474TIP3    H264838   5.955   5.138  14.700  1.6272  0.0668 -0.4391
14475TIP3   OH264839   4.436   1.072  13.175 -0.4949  0.5520  0.4629
14475TIP3    H164840   4.422   1.165  13.192 -0.1900  1.1896 -2.2977
14475TIP3    H264841   4.377   1.051  13.103  0.0173 -1.1963  0.4900
14476TIP3   OH264842   6.615   3.991  12.312  0.2990 -0.0073  0.3017
14476TIP3    H164843   6.622   3.980  12.406  1.7812 -1.9872  0.0210
14476TIP3    H264844   6.591   3.905  12.278 -2.6524  1.2088 -1.0002
14477TIP3   OH264845   5.357   1.814   5.251  0.0198 -0.3309 -0.2396
14477TIP3    H164846   5.277   1.850   5.213 -1.3029 -1.8982  0.9002
14477TIP3    H264847   5.362   1.855   5.338 -0.1033 -0.9685  0.0717
14478TIP3   OH264848   0.653   4.493   3.402  0.1686  0.1080 -0.2140
14478TIP3    H164849   0.658   4.474   3.495 -0.1687 -0.2147 -0.2594
14478TIP3    H264850   0.580   4.554   3.393 -0.0228 -0.1318 -0.3060
14479TIP3   OH264851   1.572   0.426   2.494 -0.3063 -0.2724 -0.1729
14479TIP3    H164852   1.523   0.344   2.503  3.3565 -3.1529 -3.0030
14479TIP3    H264853   1.637   0.423   2.564  2.3909 -2.1069 -2.5140
14480TIP3   OH264854   0.547   6.613  11.290  0.2126 -0.0125  0.0202
14480TIP3    H164855   0.479   6.605  11.356  0.1741  0.4671  0.0489
14480TIP3    H264856   0.530   6.542  11.228  0.6102 -0.8336  0.8352
14481TIP3   OH264857   0.182   0.419  15.363 -0.6359 -0.0362  0.1879
14481TIP3    H164858   0.156   0.420  15.270 -0.5645 -0.6284  0.1569
14481TIP3    H264859   0.274   0.392  15.362 -0.9074 -1.0076  0.4857
14482TIP3   OH264860   4.703   5.676  16.341 -0.2065 -0.6296  0.5364
14482TIP3    H164861   4.742   5.755  16.378  1.8422 -1.9296  1.3789
14482TIP3    H264862   4.609   5.691  16.346  0.0373  0.6942  3.1457
14483TIP3   OH264863   3.478   4.144  17.201 -0.3438 -0.4329 -0.6599
14483TIP3    H164864   3.442   4.147  17.113 -4.2622 -2.0803  0.6686
14483TIP3    H264865   3.477   4.235  17.231 -1.7751 -0.1909 -1.3589
14484TIP3   OH264866   2.245   4.610  15.443 -0.1427  0.0618 -0.2867
14484TIP3    H164867   2.162   4.654  15.458  0.3566  1.2801 -0.9300
14484TIP3    H264868   2.262   4.622  15.349  0.7563 -0.1489 -0.1629
14485TIP3   OH264869   0.081   3.611  11.169  0.4882 -0.1371 -0.0160
14485TIP3    H164870   0.085   3.525  11.211 -0.5090 -1.0443 -1.6848
14485TIP3    H264871   0.013   3.602  11.102 -1.3170  2.6305  1.2540
14486TIP3   OH264872   4.426   2.886   2.121  0.0644 -0.9030  0.0714
14486TIP3    H164873   4.357   2.938   2.162  1.5891  1.9464 -0.7134
14486TIP3    H264874   4.407   2.796   2.148 -3.8447 -0.2799 -0.0180
14487TIP3   OH264875   5.330   4.441   4.058  0.4565  0.0333  0.2601
14487TIP3    H164876   5.238   4.418   4.049  0.9477 -2.1803  0.2967
14487TIP3    H264877   5.333   4.500   4.134 -0.9992  0.8242 -0.2711
14488TIP3   OH264878   0.716   1.088  11.108 -0.1039  0.0578 -0.8648
14488TIP3    H164879   0.625   1.108  11.130 -0.0954 -0.1222 -0.6601
14488TIP3    H264880   0.760   1.079  11.193  0.1020  0.1343 -0.9633
14489TIP3   OH264881   0.271   0.648  14.250  0.1311 -0.0873  0.0936
14489TIP3    H164882   0.206   0.656  14.320  0.2159  1.1520  0.0422
14489TIP3    H264883   0.347   0.695  14.282  1.5514 -2.5968  0.7090
14490TIP3   OH264884   5.527   6.051   1.885  0.1657  0.3857 -0.2728
14490TIP3    H164885   5.433   6.047   1.865  0.0837  0.9403 -0.0362
14490TIP3    H264886   5.534   6.122   1.949  0.6348 -0.2606  0.3981
14491TIP3   OH264887   5.992   2.588   3.389 -0.3522 -0.3711  0.1643
14491TIP3    H164888   5.996   2.593   3.485 -0.7901  1.2844  0.1210
14491TIP3    H264889   5.911   2.540   3.371 -0.0797 -1.0250  0.6092
14492TIP3   OH264890   2.749   6.777   5.216 -0.0781  0.2179 -0.2695
14492TIP3    H164891   2.803   6.767   5.137 -2.4076  0.8608 -2.0619
14492TIP3    H264892   2.724   6.688   5.239 -1.6372  0.1244 -2.0238
14493TIP3   OH264893   2.453   2.746  10.737 -0.0782  0.0636 -0.1122
14493TIP3    H164894   2.476   2.758  10.645 -0.5681 -1.0210 -0.3956
14493TIP3    H264895   2.430   2.833  10.767  1.3551  0.6725 -0.6465
14494TIP3   OH264896   1.403   1.500  12.004  0.2359 -0.2163 -0.1485
14494TIP3    H164897   1.426   1.517  12.096 -0.9365  1.1218 -0.0767
14494TIP3    H264898   1.308   1.510  12.001  0.0687 -1.7994 -1.2187
14495TIP3   OH264899   0.940   2.152   0.215 -0.6306 -0.3004  0.7080
14495TIP3    H164900   0.926   2.222   0.152 -0.2119 -1.6292 -0.9370
14495TIP3    H264901   1.025   2.114   0.191  0.7434  0.6522  3.6066
14496TIP3   OH264902   5.673   5.399   0.354  0.2352  0.1570  0.4237
14496TIP3    H164903   5.642   5.480   0.397  0.5446  0.9930 -0.8785
14496TIP3    H264904   5.625   5.329   0.399 -1.7461  1.2261  0.1123
14497TIP3   OH264905   2.620   6.262   4.866  0.0411  0.1858  0.3628
14497TIP3    H164906   2.643   6.207   4.941  0.3047  0.5339  0.5427
14497TIP3    H264907   2.704   6.276   4.821 -0.0631  0.2510  0.1891
14498TIP3   OH264908   4.208   1.120  15.110  0.3629 -0.4706  0.2762
14498TIP3    H164909   4.299   1.151  15.118  0.6845 -1.3065 -0.0575
14498TIP3    H264910   4.215   1.025  15.108 -0.2761 -0.5463 -2.3597
14499TIP3   OH264911   4.356   0.262   5.199  0.3326 -0.3175  0.1448
14499TIP3    H164912   4.383   0.193   5.260  2.7510  1.6102  1.4795
14499TIP3    H264913   4.264   0.278   5.219  0.3020 -1.7044  1.2622
14500TIP3   OH264914   2.450   3.219  14.767  0.1098 -0.5002  0.1054
14500TIP3    H164915   2.416   3.134  14.738 -0.1906  0.1434 -1.5656
14500TIP3    H264916   2.533   3.198  14.809 -0.9714 -1.8204  1.7415
14501TIP3   OH264917   3.345   0.776  15.312  0.7882  0.2793 -0.0369
14501TIP3    H164918   3.289   0.789  15.236 -0.8956 -0.9798  0.9208
14501TIP3    H264919   3.396   0.697  15.292  1.0740  0.5118 -0.2437
14502TIP3   OH264920   0.236   1.098   3.160 -0.1366  0.1353  0.3789
14502TIP3    H164921   0.232   1.168   3.226  0.2649  0.2323  0.3045
14502TIP3    H264922   0.153   1.052   3.169 -0.3843  0.5861  0.4723
14503TIP3   OH264923   0.104   0.255   2.681 -0.7579 -0.2678 -0.2335
14503TIP3    H164924   0.138   0.268   2.593  1.7990 -0.0185  0.7171
14503TIP3    H264925   0.159   0.187   2.719 -1.4742 -0.0231  1.3375
14504TIP3   OH264926   5.753   3.236  16.735  0.2519  0.3684 -0.4437
14504TIP3    H164927   5.831   3.181  16.730  0.0161 -0.2796  1.8992
14504TIP3    H264928   5.687   3.189  16.683  1.0280  0.2868 -1.3912
14505TIP3   OH264929   5.307   5.647  15.511 -0.1832 -0.0988  0.3259
14505TIP3    H164930   5.387   5.664  15.461  0.3874 -0.0694  1.2377
14505TIP3    H264931   5.238   5.643  15.444  0.5340  0.1151 -0.4470
14506TIP3   OH264932   0.676   3.507  16.859  0.2301 -0.5653 -0.0367
14506TIP3    H164933   0.637   3.486  16.774  1.5708 -2.5349 -0.2379
14506TIP3    H264934   0.652   3.598  16.875  0.6376  0.1392 -2.9097
14507TIP3   OH264935   1.450   2.963  12.785  0.3132  0.7671 -0.4840
14507TIP3    H164936   1.452   2.936  12.693  0.9978  0.7960 -0.4812
14507TIP3    H264937   1.542   2.978  12.807  0.2592 -0.2759  0.5155
14508TIP3   OH264938   3.424   5.403  15.905 -0.5924 -0.4113  0.4346
14508TIP3    H164939   3.402   5.452  15.984  0.4096 -1.1569  1.2120
14508TIP3    H264940   3.343   5.358  15.880 -0.7686 -0.6591  1.4112
14509TIP3   OH264941   1.592   6.341  15.425  0.8054 -0.2671 -0.5992
14509TIP3    H164942   1.638   6.423  15.411  0.3193  0.4439  1.5995
14509TIP3    H264943   1.647   6.275  15.383  1.5791  1.0748 -1.7645
14510TIP3   OH264944   1.747   0.285  12.436  0.1351 -0.6268  0.7315
14510TIP3    H164945   1.658   0.307  12.408 -0.6072 -1.6841  2.1131
14510TIP3    H264946   1.798   0.282  12.355 -0.1487  3.7139  0.1776
14511TIP3   OH264947   0.030   1.182   0.083  0.0786  0.0639 -0.3363
14511TIP3    H164948   0.059   1.256   0.136 -0.2209  0.1520 -0.2989
14511TIP3    H264949  -0.065   1.190   0.078 -0.0014 -0.5573  0.0250
14512TIP3   OH264950   0.266   6.355  14.128 -0.4012 -0.4456 -0.0577
14512TIP3    H164951   0.334   6.407  14.171 -0.0851  0.3150 -1.3993
14512TIP3    H264952   0.309   6.271  14.109 -0.7180 -0.9978  1.5545
14513TIP3   OH264953   0.460   0.297  15.446 -0.2886 -0.0075  0.3791
14513TIP3    H164954   0.538   0.327  15.400 -1.0292  3.7614  1.2849
14513TIP3    H264955   0.485   0.296  15.539 -0.3372 -2.4116  0.4321
14514TIP3   OH264956   1.957   2.297   3.208 -0.6438 -0.2624 -0.4599
14514TIP3    H164957   1.968   2.202   3.206 -1.3041 -0.3353 -0.6844
14514TIP3    H264958   2.022   2.330   3.145  2.7695 -0.2203  2.7614
14515TIP3   OH264959   3.630   6.273   3.486  0.3109 -0.0089 -0.0777
14515TIP3    H164960   3.692   6.318   3.429  1.1801  0.0473  0.8798
14515TIP3    H264961   3.561   6.242   3.428  1.1256  0.1307 -1.1314
14516TIP3   OH264962   5.593   0.770  14.832 -0.6784  0.0646  0.5605
14516TIP3    H164963   5.685   0.770  14.806 -0.3199  0.4144  1.7992
14516TIP3    H264964   5.548   0.815  14.761  0.5651  2.8874  1.4460
14517TIP3   OH264965   1.694   1.225   1.186 -0.1472 -0.1204 -0.3393
14517TIP3    H164966   1.722   1.262   1.102 -0.1667  1.4147  0.3007
14517TIP3    H264967   1.652   1.142   1.162  0.2921  0.0375 -1.7933
14518TIP3   OH264968   1.818   6.455  13.680  0.2477  0.2371  0.0454
14518TIP3    H164969   1.860   6.540  13.674 -0.1691  0.3709 -1.3350
14518TIP3    H264970   1.890   6.392  13.684  0.5601  0.5964  0.0992
14519TIP3   OH264971   4.177   2.044  12.303 -0.0747  0.3691 -0.2939
14519TIP3    H164972   4.204   2.029  12.394 -2.8519  0.7526  0.6913
14519TIP3    H264973   4.121   2.121  12.307 -0.0857  0.5391 -2.4184
14520TIP3   OH264974   3.427   1.330   2.515  0.2184 -0.2768 -1.1478
14520TIP3    H164975   3.354   1.369   2.467  0.3804  0.1258 -1.0734
14520TIP3    H264976   3.492   1.400   2.519  1.0035 -0.9429 -2.0655
14521TIP3   OH264977   5.654   0.420   2.911  0.0343 -0.0159 -0.1936
14521TIP3    H164978   5.568   0.382   2.929 -0.6208  1.2337 -0.5701
14521TIP3    H264979   5.691   0.364   2.843 -0.5904 -0.4059 -0.2261
14522TIP3   OH264980   6.363   0.253  17.206 -0.0284 -0.6272  0.4757
14522TIP3    H164981   6.277   0.210  17.206 -1.3233  1.7917  0.8118
14522TIP3    H264982   6.360   0.314  17.280  1.1698  0.9604 -0.7048
14523TIP3   OH264983   1.810   2.597  12.881 -0.3459 -0.5682  0.3243
14523TIP3    H164984   1.757   2.673  12.859  0.7622  0.2460  0.3568
14523TIP3    H264985   1.819   2.549  12.799  1.4439  0.9749 -0.4770
14524TIP3   OH264986   2.409   2.496  14.589 -0.6341  0.7917 -0.8882
14524TIP3    H164987   2.409   2.401  14.572 -1.6747  0.5856  0.1627
14524TIP3    H264988   2.444   2.534  14.508 -0.2772 -0.4753 -1.3630
14525TIP3   OH264989   4.433   2.568  16.384 -0.6429  0.4775  1.0055
14525TIP3    H164990   4.446   2.595  16.475  0.2912 -0.9719  1.3334
14525TIP3    H264991   4.517   2.586  16.341 -0.2476 -1.1157  1.0515
14526TIP3   OH264992   6.221   3.497   2.803  0.0737  0.2165  0.4703
14526TIP3    H164993   6.169   3.447   2.740  0.8066  2.5765 -2.1787
14526TIP3    H264994   6.158   3.520   2.872 -1.3930 -0.3944 -0.6087
14527TIP3   OH264995   3.661   1.269   1.138  0.0948 -0.3777  0.0282
14527TIP3    H164996   3.697   1.267   1.049  1.3920  1.3782  0.4568
14527TIP3    H264997   3.591   1.204   1.137  1.0263 -1.4504 -1.8577
14528TIP3   OH264998   1.658   0.518  10.717 -0.1194 -0.4061 -0.3225
14528TIP3    H164999   1.630   0.605  10.689  1.6006  0.3245  0.1174
14528TIP3    H265000   1.704   0.482  10.642  1.7071  0.2674  0.4350
14529TIP3   OH265001   4.075   5.747   3.058 -0.2041  0.1968  0.2015
14529TIP3    H165002   4.168   5.727   3.051 -0.4819 -1.0903 -0.0740
14529TIP3    H265003   4.072   5.841   3.074  1.0979  0.4225 -0.7122
14530TIP3   OH265004   3.336   3.913   3.520 -0.2990 -0.4469 -0.3387
14530TIP3    H165005   3.364   3.998   3.554 -1.1109 -0.7265  1.0963
14530TIP3    H265006   3.278   3.878   3.587  0.8750 -2.6290 -0.3875
14531TIP3   OH265007   4.837   4.641   2.992 -0.1387 -0.7113  0.2551
14531TIP3    H165008   4.828   4.557   2.947 -0.5635 -1.8602  2.3654
14531TIP3    H265009   4.892   4.623   3.068 -1.9071  0.3947  1.8989
14532TIP3   OH265010   1.482   6.525   4.640  0.3272 -0.0748 -0.6533
14532TIP3    H165011   1.450   6.611   4.668 -0.3621 -0.1876 -1.0762
14532TIP3    H265012   1.539   6.497   4.712  0.3538  0.6179 -0.3918
14533TIP3   OH265013   3.367   0.772   6.005 -0.3084 -0.0919  0.4076
14533TIP3    H165014   3.342   0.741   5.918  2.3276 -0.1719 -0.3781
14533TIP3    H265015   3.356   0.695   6.061 -1.2903 -0.2444  0.0408
14534TIP3   OH265016   3.042   0.624   1.158 -0.0661 -0.6087 -0.2133
14534TIP3    H165017   3.062   0.709   1.118 -1.7480 -1.0250 -2.1102
14534TIP3    H265018   3.096   0.621   1.237  0.9931  1.6647 -0.7755
14535TIP3   OH265019   1.527   0.226  14.758 -0.4634  0.2035  0.7484
14535TIP3    H165020   1.454   0.288  14.751 -0.1618  0.4787  0.0034
14535TIP3    H265021   1.485   0.143  14.780 -0.9420  0.5083  1.0018
14536TIP3   OH265022   4.280   2.535  16.095  0.5661  0.2198 -0.5011
14536TIP3    H165023   4.333   2.615  16.098  0.6259  0.2590 -2.0009
14536TIP3    H265024   4.343   2.465  16.111  1.1769  0.2491 -2.5107
14537TIP3   OH265025   5.518   4.936   1.698  0.3394 -0.0601 -0.3357
14537TIP3    H165026   5.612   4.950   1.681  0.3260 -0.0485 -0.3986
14537TIP3    H265027   5.504   4.844   1.680  0.4999 -0.2414  0.4153
14538TIP3   OH265028   3.545   1.160  15.874 -0.5257  0.4103 -0.0585
14538TIP3    H165029   3.590   1.224  15.819 -2.4192  2.7335  0.8702
14538TIP3    H265030   3.467   1.136  15.824  0.6020 -1.9845 -0.7894
14539TIP3   OH265031   6.068   4.567  11.525  0.4210 -0.3974  0.5613
14539TIP3    H165032   6.139   4.627  11.549  0.9699 -1.0026  0.4710
14539TIP3    H265033   6.061   4.576  11.430  0.6983 -0.6952  0.5141
14540TIP3   OH265034   6.568   2.918  13.002 -0.1519 -0.4184  0.0535
14540TIP3    H165035   6.606   2.925  12.915  0.4680  0.6561  0.3940
14540TIP3    H265036   6.473   2.926  12.987  0.0359  1.3509 -0.3927
14541TIP3   OH265037   3.273   3.363  16.054 -0.0710  0.0672  0.4730
14541TIP3    H165038   3.306   3.302  15.988  0.2764 -1.6410  2.1225
14541TIP3    H265039   3.330   3.439  16.047  1.9572 -1.3397  0.8020
14542TIP3   OH265040   4.970   4.564   3.224  0.5498  0.2704  0.3060
14542TIP3    H165041   4.885   4.558   3.268  0.5215  1.6576  0.4777
14542TIP3    H265042   5.022   4.494   3.263 -0.2359 -0.0322  0.8360
14543TIP3   OH265043   4.508   3.291   3.268 -0.0051  0.1229 -0.0808
14543TIP3    H165044   4.486   3.324   3.355  0.0412  0.1232 -0.0692
14543TIP3    H265045   4.437   3.322   3.211  0.3657  0.7813 -0.1935
14544TIP3   OH265046   4.366   4.868  12.721 -0.4337 -0.2148  0.4027
14544TIP3    H165047   4.285   4.908  12.690  0.5337  0.9066 -0.8058
14544TIP3    H265048   4.342   4.828  12.805 -2.0758  0.6212  0.3853
14545TIP3   OH265049   4.485   4.720   2.916  0.0230 -0.0834  0.3352
14545TIP3    H165050   4.472   4.729   2.822 -0.3322  0.3657  0.4229
14545TIP3    H265051   4.457   4.630   2.935  0.0267 -0.1520  0.0231
14546TIP3   OH265052   4.247   2.748  12.950 -0.3212 -0.6968  0.1113
14546TIP3    H165053   4.165   2.798  12.954  0.8560  1.2816  0.5226
14546TIP3    H265054   4.267   2.742  12.857 -2.4940 -4.0496 -0.3491
14547TIP3   OH265055   0.936   4.631   4.256  0.2464  0.2845 -0.5241
14547TIP3    H165056   0.896   4.718   4.265 -2.4778 -1.0351  2.0591
14547TIP3    H265057   0.867   4.577   4.218  1.0922 -1.2340  0.0217
14548TIP3   OH265058   3.621   0.161   2.237 -0.2912 -0.1182  0.1478
14548TIP3    H165059   3.702   0.189   2.195 -1.6500  0.2701 -2.3901
14548TIP3    H265060   3.604   0.075   2.201 -0.8394 -0.3668  0.9698
14549TIP3   OH265061   3.441   3.958   4.902 -0.2218 -0.2673 -0.6844
14549TIP3    H165062   3.520   3.976   4.851 -1.4273  0.8168 -2.2446
14549TIP3    H265063   3.381   3.916   4.841 -1.2179 -0.1768  0.1988
14550TIP3   OH265064   3.247   2.807   1.369 -0.0045 -0.0466 -0.1509
14550TIP3    H165065   3.273   2.898   1.383  2.6959 -1.1417  3.3697
14550TIP3    H265066   3.195   2.784   1.446 -0.1328 -1.6583 -0.6730
14551TIP3   OH265067   0.322   1.565  14.102 -0.2419 -0.1305  0.2437
14551TIP3    H165068   0.361   1.550  14.188 -0.4449  0.3210  0.4208
14551TIP3    H265069   0.367   1.505  14.043 -0.0314 -0.3683  0.6490
14552TIP3   OH265070   4.679   1.049   3.939 -0.2569  0.8038 -0.6244
14552TIP3    H165071   4.684   1.101   4.019  0.1135  2.6307 -1.7731
14552TIP3    H265072   4.762   1.001   3.937 -0.3770  0.5411  0.1962
14553TIP3   OH265073   2.042   1.587  12.044 -0.4203 -0.0010 -0.9198
14553TIP3    H165074   2.046   1.648  11.970 -0.1390  0.7152 -0.3338
14553TIP3    H265075   2.086   1.634  12.115 -2.5712  0.2259  0.3225
14554TIP3   OH265076   5.392   1.292  16.345 -0.7633 -0.6105  0.2344
14554TIP3    H165077   5.444   1.363  16.307 -0.9767 -1.1407 -1.1106
14554TIP3    H265078   5.302   1.316  16.326 -0.9210 -0.5404  1.0474
14555TIP3   OH265079   4.999   5.613   5.637  0.5841  0.1920  0.5210
14555TIP3    H165080   4.907   5.634   5.651  0.4710 -0.8231  1.3948
14555TIP3    H265081   5.040   5.624   5.723  0.9660 -0.8213  0.4879
14556TIP3   OH265082   6.107   2.783   1.079  0.2529  0.5197 -0.1527
14556TIP3    H165083   6.025   2.833   1.084 -0.6455 -0.8515 -0.6860
14556TIP3    H265084   6.171   2.839   1.123 -0.9096  1.7302  0.0865
14557TIP3   OH265085   3.131   3.230  16.872 -0.0690 -0.3934  0.5691
14557TIP3    H165086   3.209   3.249  16.924 -0.9722 -1.5088  2.4350
14557TIP3    H265087   3.150   3.146  16.831  0.6783  0.5276 -1.0512
14558TIP3   OH265088   0.974   1.806   4.455  0.2040  0.0828 -0.0151
14558TIP3    H165089   0.950   1.898   4.441  2.7636  0.6287 -1.3540
14558TIP3    H265090   0.936   1.784   4.541 -2.9480  1.4232 -0.9183
14559TIP3   OH265091   5.029   6.687   5.314 -0.3306  0.0159  0.3829
14559TIP3    H165092   4.963   6.746   5.350 -0.5059  1.0102 -1.4521
14559TIP3    H265093   5.040   6.715   5.223  1.1891 -1.3970  0.0726
14560TIP3   OH265094   5.732   1.082   2.149 -0.1975 -0.6092 -0.3336
14560TIP3    H165095   5.690   1.147   2.094  0.8779  1.1356  0.8068
14560TIP3    H265096   5.781   1.027   2.087 -1.0168 -0.2753 -1.3067
14561TIP3   OH265097   2.765   3.877  11.119  0.0179  0.0647  0.4313
14561TIP3    H165098   2.774   3.956  11.173 -1.3719  0.1272  0.5980
14561TIP3    H265099   2.680   3.841  11.143 -0.7902  0.2385 -1.9142
14562TIP3   OH265100   5.984   3.354   0.643  0.3689  0.0602  0.5270
14562TIP3    H165101   5.964   3.438   0.684  1.5436  0.4973  0.2531
14562TIP3    H265102   5.937   3.289   0.695  0.2203  0.8008  1.3301
14563TIP3   OH265103   2.512   2.329  16.425  0.5122  0.1987 -0.0021
14563TIP3    H165104   2.520   2.384  16.502 -0.1255 -0.1217  0.2987
14563TIP3    H265105   2.588   2.352  16.371  0.6053  0.8908  0.4142
14564TIP3   OH265106   6.245   4.755  11.574  0.3319 -0.0770  0.0996
14564TIP3    H165107   6.339   4.736  11.569  0.2996 -0.4626  0.8276
14564TIP3    H265108   6.240   4.841  11.614  0.3684 -0.2206  0.4173
14565TIP3   OH265109   1.969   1.375  11.843  0.1198 -0.0398 -0.6656
14565TIP3    H165110   2.053   1.411  11.813 -1.3756  2.3854 -2.2677
14565TIP3    H265111   1.949   1.305  11.782  0.7990 -0.4382 -0.4482
14566TIP3   OH265112   3.611   3.045   1.972 -0.4674  0.2638 -0.4599
14566TIP3    H165113   3.605   3.019   2.064  2.4727 -0.1607 -0.2738
14566TIP3    H265114   3.617   2.962   1.924  1.4644  0.4341 -0.6103
14567TIP3   OH265115   0.167   3.055  13.150  0.2280  0.1651 -0.3661
14567TIP3    H165116   0.131   2.977  13.106 -0.1044  0.4571 -0.6192
14567TIP3    H265117   0.240   3.082  13.094  2.0989 -1.5150  1.1095
14568TIP3   OH265118   2.120   3.005  14.025 -0.1161 -0.3189  0.2199
14568TIP3    H165119   2.036   3.051  14.028 -0.7720 -1.4671  2.6873
14568TIP3    H265120   2.106   2.927  14.079  1.9194 -1.6890 -1.0905
14569TIP3   OH265121   1.714   5.698   4.720  0.1087 -0.0354 -0.1804
14569TIP3    H165122   1.765   5.656   4.651  2.4865  0.6823  1.0170
14569TIP3    H265123   1.712   5.633   4.791  0.4312  0.3710  0.2144
14570TIP3   OH265124   0.092   3.696   4.198 -1.0649 -0.6632  0.0869
14570TIP3    H165125   0.055   3.785   4.202  3.0989  1.3981 -1.4533
14570TIP3    H265126   0.109   3.681   4.105  0.9094 -1.8074  0.5703
14571TIP3   OH265127   1.221   0.201   1.768 -0.4338 -0.0140  0.1978
14571TIP3    H165128   1.303   0.164   1.735 -1.3626 -1.7301 -0.3085
14571TIP3    H265129   1.153   0.160   1.715 -1.8308 -1.0310  2.6192
14572TIP3   OH265130   2.716   0.986  10.297 -0.1100 -1.0787  0.1846
14572TIP3    H165131   2.672   0.965  10.379  0.2954 -2.5374  0.0534
14572TIP3    H265132   2.809   0.988  10.320  0.0134 -1.5841 -0.2496
14573TIP3   OH265133   3.489   3.022  15.063 -0.2500 -0.1236  0.9040
14573TIP3    H165134   3.550   3.090  15.089 -0.1237 -1.2118  3.7434
14573TIP3    H265135   3.536   2.971  14.997  0.5834  1.0267  0.5790
14574TIP3   OH265136   2.871   4.327   5.501  0.2529  0.6105  0.2362
14574TIP3    H165137   2.966   4.338   5.501  0.1490  1.8752 -1.1097
14574TIP3    H265138   2.837   4.410   5.469 -1.2592 -0.1337 -0.2091
14575TIP3   OH265139   0.682   3.219   1.518  1.0119 -0.4184  0.4518
14575TIP3    H165140   0.726   3.294   1.559  1.9722 -0.3280 -0.6736
14575TIP3    H265141   0.723   3.211   1.432 -0.9437 -0.5925 -0.5229
14576TIP3   OH265142   3.296   1.947   6.365  0.4418 -0.6412 -0.0863
14576TIP3    H165143   3.250   1.994   6.436 -0.9287 -0.7075 -0.8835
14576TIP3    H265144   3.331   1.868   6.407 -0.0372 -0.5020  0.5957
14577TIP3   OH265145   6.137   3.179   6.615 -0.2013  0.1358  0.1326
14577TIP3    H165146   6.203   3.195   6.682  0.9787 -0.7360 -0.7862
14577TIP3    H265147   6.184   3.189   6.532 -0.9639 -1.5196 -0.5383
14578TIP3   OH265148   4.988   3.176   5.726 -0.5470 -0.6358  0.0103
14578TIP3    H165149   5.024   3.230   5.796 -1.3363  0.8850 -0.7108
14578TIP3    H265150   5.054   3.108   5.711  1.2716  1.1159 -0.1913
14579TIP3   OH265151   0.581   1.875   0.079 -0.3936 -0.6039  0.4907
14579TIP3    H165152   0.579   1.786   0.112 -2.2119 -0.7102  0.1848
14579TIP3    H265153   0.490   1.895   0.057  0.3468  0.3420 -2.0690
14580TIP3   OH265154   1.063   5.267  15.149  0.4875  0.7123 -0.2686
14580TIP3    H165155   1.152   5.251  15.118  0.7162  0.6295  0.4197
14580TIP3    H265156   1.035   5.347  15.103  1.2879  1.3167  0.2780
14581TIP3   OH265157   0.093   5.434   1.598  0.4284 -0.1505 -0.5113
14581TIP3    H165158   0.131   5.472   1.519  2.4008 -1.2495 -0.1795
14581TIP3    H265159   0.074   5.509   1.654  1.2801  0.5160 -1.0900
14582TIP3   OH265160   0.554   5.707  11.175 -0.2544 -0.2235  0.3918
14582TIP3    H165161   0.575   5.631  11.121 -0.8982 -1.0628  1.2809
14582TIP3    H265162   0.490   5.756  11.123 -0.2464 -0.5813  0.0369
14583TIP3   OH265163   2.834   2.187  13.515 -0.5069 -0.1390  0.3908
14583TIP3    H165164   2.812   2.095  13.496 -1.9212  0.0047  1.1856
14583TIP3    H265165   2.846   2.189  13.610  1.0302  0.2210  0.2116
14584TIP3   OH265166   0.239   5.078   0.489  0.1260  0.2338  0.1784
14584TIP3    H165167   0.326   5.109   0.516  0.0275  1.7682 -1.0753
14584TIP3    H265168   0.193   5.061   0.571  1.2784  0.3707  0.8841
14585TIP3   OH265169   5.613   3.324  17.202  0.5519 -0.2342 -0.0003
14585TIP3    H165170   5.522   3.329  17.231  0.0971  2.5526 -1.5664
14585TIP3    H265171   5.664   3.338  17.282 -0.5060  1.0160  0.5029
14586TIP3   OH265172   2.127   0.001   6.421 -0.3491 -0.6210  0.0816
14586TIP3    H165173   2.121   0.068   6.353  0.7324  0.1850  0.7448
14586TIP3    H265174   2.078   0.037   6.495 -0.1397 -0.7486  0.2876
14587TIP3   OH265175   1.488   0.303  17.144 -0.3254  0.0760  0.4590
14587TIP3    H165176   1.395   0.293  17.165 -0.3326 -0.6396  0.1081
14587TIP3    H265177   1.491   0.305  17.048  0.3011 -3.4730  0.2557
14588TIP3   OH265178   5.707   1.010   5.643  0.5133 -0.8126 -0.1783
14588TIP3    H165179   5.711   1.072   5.571 -0.4864  0.0019  0.4379
14588TIP3    H265180   5.641   0.946   5.617 -0.5742  0.0342  0.3936
14589TIP3   OH265181   1.699   0.034   0.487 -0.1077  0.0246 -0.4916
14589TIP3    H165182   1.735   0.039   0.575  0.2659  0.7488 -0.6748
14589TIP3    H265183   1.775   0.025   0.430 -0.4514 -3.2754 -0.5978
14590TIP3   OH265184   4.306   6.663   3.060 -0.2904 -0.1836 -0.4536
14590TIP3    H165185   4.212   6.655   3.077 -0.1216  0.1840  0.7144
14590TIP3    H265186   4.343   6.692   3.143  0.6204  1.4983 -1.4102
14591TIP3   OH265187   3.963   4.944  14.758 -0.2377  0.4572 -0.3327
14591TIP3    H165188   4.022   4.961  14.832  0.0840 -0.8147 -0.2838
14591TIP3    H265189   3.901   4.879  14.792 -2.2122  2.3267 -0.1181
14592TIP3   OH265190   3.292   6.402  13.603  0.0597 -0.5435  0.0134
14592TIP3    H165191   3.254   6.412  13.690 -0.5931 -2.4655  0.0009
14592TIP3    H265192   3.386   6.399  13.618 -0.0305 -0.4862  0.6114
14593TIP3   OH265193   3.310   2.179  11.132 -0.5322  0.1212 -0.5199
14593TIP3    H165194   3.221   2.210  11.150 -0.0757  1.5759 -0.6286
14593TIP3    H265195   3.363   2.259  11.131  1.1773 -0.8891  1.7261
14594TIP3   OH265196   1.111   3.045  10.558  0.3925 -0.2686  0.2327
14594TIP3    H165197   1.072   3.040  10.645  0.8386 -3.5518  0.3680
14594TIP3    H265198   1.174   3.116  10.565  0.7083 -0.6751  2.7607
14595TIP3   OH265199   5.674   6.725  15.462 -0.8902 -0.4779 -0.3253
14595TIP3    H165200   5.621   6.671  15.402 -0.0336 -1.5142 -0.1923
14595TIP3    H265201   5.754   6.674  15.475  0.3405  1.2225 -0.8553
14596TIP3   OH265202   4.209   1.960   3.680  0.4871  0.2027  0.0628
14596TIP3    H165203   4.238   1.912   3.603 -0.0871 -0.0104 -0.0249
14596TIP3    H265204   4.288   2.005   3.712  0.6199  0.7090 -0.9489
14597TIP3   OH265205   5.216   2.721   1.877 -0.1065  0.7669  0.2130
14597TIP3    H165206   5.124   2.720   1.851 -0.0696  0.9544  0.0770
14597TIP3    H265207   5.222   2.794   1.939 -0.3567 -0.1321  1.3407
14598TIP3   OH265208   4.164   0.312  14.933 -0.8079  0.2064  0.2511
14598TIP3    H165209   4.218   0.306  14.854 -0.4337 -0.3258  0.5425
14598TIP3    H265210   4.080   0.274  14.907 -0.5121 -0.4656  0.2583
14599TIP3   OH265211   1.361   2.230   5.229 -1.0493  0.1465  0.4845
14599TIP3    H165212   1.400   2.205   5.145  2.4015 -3.7927  2.8317
14599TIP3    H265213   1.275   2.189   5.229 -0.5287 -1.0294 -0.6688
14600TIP3   OH265214   4.092   2.272  16.001 -0.0676 -0.3891  0.4794
14600TIP3    H165215   4.134   2.229  15.927 -0.0612 -0.2904  0.4269
14600TIP3    H265216   4.140   2.240  16.078  0.8975  0.6721  0.3272
14601TIP3   OH265217   2.485   2.614   0.101 -0.0071 -0.8426 -0.0552
14601TIP3    H165218   2.455   2.589   0.188  1.6781 -0.3018  0.7385
14601TIP3    H265219   2.580   2.622   0.110  0.2079 -0.7023 -1.9357
14602TIP3   OH265220   6.032   1.699  16.334  0.3372  0.3316  0.1832
14602TIP3    H165221   6.013   1.730  16.246  1.2281 -0.9634 -0.4889
14602TIP3    H265222   6.100   1.759  16.366 -0.6252  1.3602  0.3695
14603TIP3   OH265223   4.858   3.368   1.967 -0.0944 -0.1576  0.9120
14603TIP3    H165224   4.781   3.312   1.961 -0.6311  0.5849  0.7880
14603TIP3    H265225   4.904   3.353   1.884 -0.9068  0.5416  0.3182
14604TIP3   OH265226   2.974   4.394   4.108 -0.0052 -0.4087  0.0818
14604TIP3    H165227   2.890   4.438   4.095 -0.0113 -0.4420  0.0068
14604TIP3    H265228   3.010   4.433   4.188  0.9400  1.2678 -1.0701
14605TIP3   OH265229   4.931   4.123   5.608  0.2612  0.4087  0.2201
14605TIP3    H165230   5.023   4.144   5.627  0.6864 -0.0684 -1.1977
14605TIP3    H265231   4.899   4.083   5.689  0.2691  3.6265  1.9842
14606TIP3   OH265232   1.918   6.033  16.748 -0.3383 -0.7999 -0.1875
14606TIP3    H165233   1.830   6.048  16.782  0.4118 -0.5105  1.7428
14606TIP3    H265234   1.947   6.119  16.717 -0.5533 -0.7989 -0.3886
14607TIP3   OH265235   5.932   6.591   1.441  0.6038  0.3659 -0.7084
14607TIP3    H165236   5.979   6.548   1.369  0.7945 -0.2663 -0.2226
14607TIP3    H265237   6.001   6.620   1.500  0.4172 -0.0596 -0.2714
14608TIP3   OH265238   6.384   1.845   2.958  0.1475  0.3921 -0.2588
14608TIP3    H165239   6.381   1.920   2.899 -0.4330 -0.2724 -1.0778
14608TIP3    H265240   6.469   1.804   2.941  1.4143  1.9990  1.6578
14609TIP3   OH265241   6.530   6.282   0.154 -0.0291  0.1107 -0.0403
14609TIP3    H165242   6.548   6.361   0.103 -0.5146 -0.6453 -1.4505
14609TIP3    H265243   6.519   6.313   0.244 -1.2406  1.8014 -0.7238
14610TIP3   OH265244   3.003   4.475   1.265  0.1192 -0.0000 -0.1600
14610TIP3    H165245   3.010   4.382   1.242  2.7794 -0.4049  1.7624
14610TIP3    H265246   2.933   4.478   1.330 -0.2596 -0.5850 -0.5306
14611TIP3   OH265247   0.485   3.847   5.193 -0.3782  0.4584 -0.1024
14611TIP3    H165248   0.444   3.883   5.272 -0.1896  1.2987 -0.3679
14611TIP3    H265249   0.422   3.867   5.123  0.8823  2.7254 -0.6940
14612TIP3   OH265250   0.653   5.808   2.619 -0.3838  0.3523 -0.0022
14612TIP3    H165251   0.594   5.768   2.682 -0.2351  0.1299 -0.0022
14612TIP3    H265252   0.647   5.902   2.637 -1.5460  0.4186 -0.7230
14613TIP3   OH265253   2.667   3.373  16.730 -0.1618 -0.0058  0.6655
14613TIP3    H165254   2.715   3.328  16.800  1.2716 -0.7258 -0.7290
14613TIP3    H265255   2.688   3.325  16.651 -1.0575  1.3135 -0.4279
14614TIP3   OH265256   5.670   1.344   2.041 -0.4492 -0.9652 -0.2295
14614TIP3    H165257   5.594   1.347   1.983 -0.1203 -0.7546 -0.6484
14614TIP3    H265258   5.634   1.360   2.128 -0.7739 -0.0491 -0.5248
14615TIP3   OH265259   4.408   2.159   3.235  0.3598  0.0585 -0.0856
14615TIP3    H165260   4.484   2.202   3.275  1.2271  0.4794 -2.0506
14615TIP3    H265261   4.355   2.231   3.200  0.6153 -0.3409 -1.3396
14616TIP3   OH265262   5.713   2.381   2.665 -0.1649 -0.6347  0.3449
14616TIP3    H165263   5.732   2.352   2.754  0.7793 -0.5424  0.1777
14616TIP3    H265264   5.746   2.310   2.609  1.1995  0.2485 -0.0178
14617TIP3   OH265265   4.673   1.295  17.176  0.1337  0.6403  0.0327
14617TIP3    H165266   4.739   1.352  17.217  1.3772 -1.2405  0.8198
14617TIP3    H265267   4.697   1.294  17.083  1.4638 -0.2193  0.3421
14618TIP3   OH265268   6.710   1.244  12.656 -0.5446 -0.0154  0.0197
14618TIP3    H165269   6.698   1.334  12.628 -0.9644  0.2106  0.8900
14618TIP3    H265270   6.682   1.191  12.581  0.6406  0.5721 -0.8557
14619TIP3   OH265271   3.989   5.427  12.057 -0.2169 -0.1369 -0.0253
14619TIP3    H165272   3.922   5.394  12.117 -0.5171 -0.9379 -0.7599
14619TIP3    H265273   3.976   5.375  11.977  0.0793  0.9830 -0.8300
14620TIP3   OH265274   2.866   6.219   0.351 -0.1193  0.1884 -0.1065
14620TIP3    H165275   2.804   6.291   0.344 -1.9219 -1.3727 -1.2926
14620TIP3    H265276   2.916   6.222   0.270  0.9512  1.0477  0.5610
14621TIP3   OH265277   5.063   4.487  11.807 -0.0139  0.1177  0.0816
14621TIP3    H165278   5.065   4.558  11.871  1.0827 -0.4363  0.6897
14621TIP3    H265279   5.124   4.422  11.841 -0.1229 -0.6126 -1.0529
14622TIP3   OH265280   4.760   3.712  10.993 -0.3279  0.5570 -0.1832
14622TIP3    H165281   4.840   3.669  11.022 -1.7088 -0.7660  1.9479
14622TIP3    H265282   4.708   3.722  11.073 -2.0589  1.8870 -1.4071
14623TIP3   OH265283   1.635   5.103   3.508 -0.0011  0.4491  0.4133
14623TIP3    H165284   1.691   5.038   3.467  0.2915  0.7788  0.2885
14623TIP3    H265285   1.640   5.083   3.602 -0.2754  0.0092  0.3360
14624TIP3   OH265286   1.011   5.805  13.979 -0.7477  0.1526 -0.1097
14624TIP3    H165287   1.075   5.790  14.049  0.1600  0.0356 -0.9395
14624TIP3    H265288   1.062   5.797  13.898 -2.1766 -1.7491 -0.8820
14625TIP3   OH265289   4.605   6.332  15.758  0.5392  0.1442 -0.4596
14625TIP3    H165290   4.625   6.362  15.846 -1.0196  1.2060 -0.4300
14625TIP3    H265291   4.531   6.272  15.769  1.3133 -0.9258 -0.9041
14626TIP3   OH265292   3.896   5.739  16.952  0.7743  0.1051 -0.3975
14626TIP3    H165293   3.852   5.799  16.892  0.7916 -0.9800 -1.5462
14626TIP3    H265294   3.984   5.773  16.961  0.6847  0.4418 -0.7652
14627TIP3   OH265295   2.770   4.517   5.797 -0.2707 -0.2044  0.1692
14627TIP3    H165296   2.757   4.505   5.892  0.4546  0.2460  0.3358
14627TIP3    H265297   2.862   4.542   5.789 -0.8828  2.1000 -0.4306
14628TIP3   OH265298   6.303   2.372   5.775  0.0525  0.6633 -0.1419
14628TIP3    H165299   6.209   2.373   5.758  0.0411  1.4259 -0.0959
14628TIP3    H265300   6.310   2.360   5.869  0.0925 -2.5490 -0.4638
14629TIP3   OH265301   4.170   5.847  17.177 -0.0639 -0.0571  0.3050
14629TIP3    H165302   4.144   5.781  17.241 -0.2087 -0.1379  0.1632
14629TIP3    H265303   4.257   5.818  17.148  0.5775  0.6868  1.4154
14630TIP3   OH265304   3.659   0.659   6.688 -0.1524  0.6167 -0.6594
14630TIP3    H165305   3.643   0.599   6.615 -0.2486  0.3443 -0.4179
14630TIP3    H265306   3.727   0.616   6.740 -0.2711  0.6807 -0.4487
14631TIP3   OH265307   1.685   0.707  16.686  0.2815  0.2960  0.2849
14631TIP3    H165308   1.637   0.790  16.688 -0.0242  0.2986 -2.8233
14631TIP3    H265309   1.772   0.731  16.654 -0.3663 -0.7062 -2.4831
14632TIP3   OH265310   2.377   2.120   1.108 -0.0355  0.3189 -0.0616
14632TIP3    H165311   2.310   2.066   1.150 -0.4900  1.0456  0.1682
14632TIP3    H265312   2.330   2.197   1.078  0.5809  0.5238 -0.5170
14633TIP3   OH265313   0.171   3.061  15.587 -0.6110 -0.4202  0.3804
14633TIP3    H165314   0.250   3.006  15.591 -0.1108  0.2654  0.1115
14633TIP3    H265315   0.141   3.054  15.497  0.0026  0.4905  0.0950
14634TIP3   OH265316   6.647   0.195  16.435 -0.5455 -0.0464  0.3700
14634TIP3    H165317   6.590   0.137  16.487 -1.1679  0.4016  0.2024
14634TIP3    H265318   6.734   0.181  16.471 -0.6577 -1.2004  0.2428
14635TIP3   OH265319   6.711   3.625   0.971 -0.1126 -0.2031  0.1852
14635TIP3    H165320   6.666   3.670   1.042  0.7312  0.1488  0.5067
14635TIP3    H265321   6.794   3.671   0.962  0.8485 -1.7854  0.6167
14636TIP3   OH265322   2.700   0.249   4.504 -0.1373 -0.0965  0.3723
14636TIP3    H165323   2.681   0.337   4.472 -1.0694 -0.6352 -0.5826
14636TIP3    H265324   2.615   0.206   4.509  0.1727 -0.6161  1.8934
14637TIP3   OH265325   0.703   4.161  13.965  0.5578 -0.1166  0.9475
14637TIP3    H165326   0.651   4.111  14.027 -0.9127 -0.2380 -0.3220
14637TIP3    H265327   0.644   4.177  13.891  2.4903 -0.7391 -0.8274
14638TIP3   OH265328   0.273   1.966   4.278 -0.6563 -0.2445  0.4850
14638TIP3    H165329   0.355   1.943   4.322 -0.3847 -0.5090 -0.1541
14638TIP3    H265330   0.219   2.003   4.348  0.6524  1.6177  0.5861
14639TIP3   OH265331   0.952   2.170   6.547  0.5214  0.1031 -0.7627
14639TIP3    H165332   0.905   2.188   6.628 -0.0086  1.2928 -1.3170
14639TIP3    H265333   1.013   2.099   6.570  1.1517  1.1407  0.9524
14640TIP3   OH265334   5.621   1.435   3.186  0.1218  0.1236  0.1791
14640TIP3    H165335   5.613   1.445   3.280  0.4455  0.2585  0.1957
14640TIP3    H265336   5.566   1.360   3.164  0.7039 -0.4318  0.5937
14641TIP3   OH265337   1.907   3.359  14.109 -0.0542 -0.4214  0.4350
14641TIP3    H165338   1.974   3.348  14.042  1.4009 -1.1276  1.9193
14641TIP3    H265339   1.930   3.294  14.176 -1.9528 -0.3368  1.2222
14642TIP3   OH265340   4.608   0.480   6.185  0.3800  0.7015 -0.1754
14642TIP3    H165341   4.638   0.555   6.235  1.1066 -1.2062  2.4331
14642TIP3    H265342   4.686   0.449   6.138  0.2607  1.0849 -0.6377
14643TIP3   OH265343   1.951   2.769  16.663 -0.0591 -0.0202 -0.0797
14643TIP3    H165344   1.912   2.777  16.576  0.3924  0.8008 -0.2156
14643TIP3    H265345   1.886   2.719  16.713 -0.2428 -0.6545 -0.9276
14644TIP3   OH265346   5.507   3.645   1.602 -0.4462 -0.7513 -0.0964
14644TIP3    H165347   5.459   3.562   1.603  1.4785 -2.0509 -2.8352
14644TIP3    H265348   5.448   3.707   1.560 -1.6008 -0.8669  1.2576
14645TIP3   OH265349   5.869   0.757  17.211  0.4367  0.5637  0.0378
14645TIP3    H165350   5.922   0.837  17.209 -0.9188  1.5664 -3.0932
14645TIP3    H265351   5.924   0.691  17.168  0.4605  0.6362 -0.0429
14646TIP3   OH265352   0.742   3.416  14.951  0.3370  0.5737  0.0354
14646TIP3    H165353   0.682   3.458  15.013 -1.0233 -1.9963  0.5904
14646TIP3    H265354   0.826   3.411  14.998 -0.5371 -0.8574  1.5557
14647TIP3   OH265355   3.566   2.476   6.119  0.4902  0.4427 -0.7662
14647TIP3    H165356   3.657   2.455   6.098  0.7988  2.2956 -1.5104
14647TIP3    H265357   3.568   2.507   6.209  0.4136 -0.4386 -0.4517
14648TIP3   OH265358   6.156   3.566  16.168  0.4995 -0.5703 -0.0828
14648TIP3    H165359   6.235   3.566  16.222 -0.0187 -0.4991  0.6896
14648TIP3    H265360   6.088   3.531  16.225 -0.0489 -0.5601 -0.7170
14649TIP3   OH265361   4.444   3.029  13.711  0.5572  0.0117  0.1842
14649TIP3    H165362   4.352   3.053  13.700  0.0687 -1.4003  0.9180
14649TIP3    H265363   4.455   2.950  13.659  0.9956 -0.5795  1.1339
14650TIP3   OH265364   3.221   1.427   3.278  0.0404  0.2034  0.0189
14650TIP3    H165365   3.163   1.466   3.212  0.0595  0.1477 -0.0313
14650TIP3    H265366   3.286   1.379   3.227  2.8785  3.8421 -0.2200
14651TIP3   OH265367   4.713   6.074   4.159 -0.4268  0.1178  0.1834
14651TIP3    H165368   4.783   6.023   4.200 -0.3906  0.4229  0.5063
14651TIP3    H265369   4.656   6.099   4.232 -1.3723 -0.8960 -0.1850
14652TIP3   OH265370   0.372   0.845  16.006  0.3937 -0.0550  0.4230
14652TIP3    H165371   0.331   0.928  16.028 -0.0666 -0.6726  2.0754
14652TIP3    H265372   0.332   0.782  16.067  2.2383 -1.0757  0.6546
14653TIP3   OH265373   0.704   4.411  14.544  0.0384 -0.1754  0.4042
14653TIP3    H165374   0.724   4.423  14.452 -0.6694 -1.1519  0.0998
14653TIP3    H265375   0.694   4.500  14.579  0.4044  0.1986 -0.4296
14654TIP3   OH265376   3.612   3.573   3.898  0.4523 -0.0187 -0.2156
14654TIP3    H165377   3.605   3.556   3.992 -0.7095 -1.8659 -0.5767
14654TIP3    H265378   3.592   3.488   3.858 -1.4014  1.2594 -2.1712
14655TIP3   OH265379   3.330   0.758   1.206  0.4020 -0.0549 -0.3698
14655TIP3    H165380   3.359   0.668   1.192  1.0397 -0.0412  0.7319
14655TIP3    H265381   3.412   0.807   1.220 -0.0363  0.2843  1.2058
14656TIP3   OH265382   2.820   0.923  16.627 -0.2117 -0.4177  0.0889
14656TIP3    H165383   2.880   0.922  16.702 -0.2173  0.3026  0.1135
14656TIP3    H265384   2.873   0.889  16.555  0.8568  1.9194 -0.3199
14657TIP3   OH265385   4.871   4.835  12.153 -0.8609  0.1574  0.1392
14657TIP3    H165386   4.833   4.867  12.071 -1.1035  0.3056  0.3084
14657TIP3    H265387   4.817   4.874  12.221 -1.5208 -1.0759  0.3400
14658TIP3   OH265388   6.479   3.172  10.210  0.0018  0.2481  0.6606
14658TIP3    H165389   6.429   3.236  10.160 -1.4021 -0.1406  1.4998
14658TIP3    H265390   6.517   3.222  10.282  0.5044  0.4764  0.2385
14659TIP3   OH265391   1.372   1.420   6.399 -0.0399  0.4625 -0.3344
14659TIP3    H165392   1.281   1.397   6.415 -0.1258  0.4658 -0.8155
14659TIP3    H265393   1.370   1.511   6.370  0.2981  1.1209  1.5542
14660TIP3   OH265394   1.405   5.957   6.406  0.2750  0.0581 -0.4001
14660TIP3    H165395   1.407   5.917   6.493 -1.9860  2.3208  0.7993
14660TIP3    H265396   1.331   5.915   6.363 -1.0789  1.6939  0.2646
14661TIP3   OH265397   1.779   0.634  16.265  0.3914  0.6870  0.8156
14661TIP3    H165398   1.715   0.693  16.225 -0.6357  0.0224  1.4533
14661TIP3    H265399   1.864   0.667  16.235 -0.1931  2.1230  0.6885
14662TIP3   OH265400   4.551   5.879  12.054 -0.2392 -0.0304  1.2686
14662TIP3    H165401   4.548   5.862  11.960 -1.8664  0.2680  1.2250
14662TIP3    H265402   4.604   5.958  12.063 -0.1587 -0.0028  0.5848
14663TIP3   OH265403   6.222   1.677   1.460 -0.3680  0.3002  0.8361
14663TIP3    H165404   6.190   1.611   1.398  2.7210  0.3452 -1.0251
14663TIP3    H265405   6.205   1.639   1.546 -0.2885 -2.1464 -0.1319
14664TIP3   OH265406   4.044   0.232  13.839 -0.2539  0.2167  0.5051
14664TIP3    H165407   4.086   0.266  13.760 -1.0212  1.5322  0.6484
14664TIP3    H265408   4.025   0.309  13.892 -2.5882 -0.3308  0.5642
14665TIP3   OH265409   2.697   2.544  16.844 -0.0702  0.0691  0.5378
14665TIP3    H165410   2.784   2.510  16.824  0.2941  0.1244  1.9793
14665TIP3    H265411   2.680   2.518  16.934 -1.4117  0.3562  0.3942
14666TIP3   OH265412   3.301   0.005   1.652 -0.2397 -0.6146 -0.1446
14666TIP3    H165413   3.226   0.063   1.649 -0.1311 -0.4910 -0.5425
14666TIP3    H265414   3.296  -0.046   1.571  1.1040  0.6714 -1.0927
14667TIP3   OH265415   0.234   5.078  12.162  0.1220 -0.8427 -0.4467
14667TIP3    H165416   0.207   5.118  12.080  1.6204 -0.7999 -0.9400
14667TIP3    H265417   0.197   5.135  12.230  1.3201  0.8287 -1.1227
14668TIP3   OH265418   0.628   1.818  15.210  0.2992 -0.1245  0.0965
14668TIP3    H165419   0.589   1.826  15.297  0.2346  1.3267 -0.0538
14668TIP3    H265420   0.569   1.759  15.163 -1.0767  1.0716  0.2570
14669TIP3   OH265421   0.524   0.557   2.319  0.1857  0.0310  0.6203
14669TIP3    H165422   0.605   0.538   2.365  1.0162 -0.7054 -1.0544
14669TIP3    H265423   0.551   0.573   2.228 -1.4697  0.4150  0.1603
14670TIP3   OH265424   6.099   1.662   0.226 -0.2445  0.3857 -0.2897
14670TIP3    H165425   6.154   1.740   0.219  0.3165 -0.1388 -2.6019
14670TIP3    H265426   6.135   1.614   0.300  1.9478  0.4396 -1.2500
14671TIP3   OH265427   2.625   1.809  16.134  0.1014 -0.4058  0.2825
14671TIP3    H165428   2.637   1.720  16.100 -0.6092 -0.0325 -1.0442
14671TIP3    H265429   2.708   1.829  16.178 -0.4390 -2.4423  2.4255
14672TIP3   OH265430   2.513   3.423  17.075  0.5513 -0.2913  0.5785
14672TIP3    H165431   2.537   3.516  17.080 -0.5117  0.1503 -1.4327
14672TIP3    H265432   2.576   3.379  17.133  2.6715  1.3968 -0.2847
14673TIP3   OH265433   4.492   4.353  14.127 -0.2027  0.4042 -0.4886
14673TIP3    H165434   4.424   4.372  14.063 -0.5786  0.7053 -0.0045
14673TIP3    H265435   4.515   4.262  14.110  0.9389  0.9577 -2.1916
14674TIP3   OH265436   6.539   3.625  15.301 -0.7614 -0.2729 -0.1741
14674TIP3    H165437   6.451   3.607  15.333 -0.9324 -0.1377 -0.5623
14674TIP3    H265438   6.526   3.656  15.211 -0.2348 -1.5438 -0.7160
14675TIP3   OH265439   6.761   4.761  15.059  0.7466 -0.5625 -0.0931
14675TIP3    H165440   6.683   4.816  15.071  0.9801 -0.1637 -0.3717
14675TIP3    H265441   6.805   4.765  15.143  2.0542  1.7144 -0.7839
14676TIP3   OH265442   5.712   1.054   6.297  0.0647  0.1107  0.2712
14676TIP3    H165443   5.766   1.128   6.326  0.3319  0.1674 -0.3564
14676TIP3    H265444   5.627   1.070   6.338  0.5817 -0.1256  1.4964
14677TIP3   OH265445   3.663   4.764  14.680  0.3074  0.4324  0.3040
14677TIP3    H165446   3.697   4.774  14.769  2.1069 -2.4946  0.0934
14677TIP3    H265447   3.618   4.847  14.662  1.2308  1.7456  3.3135
14678TIP3   OH265448   5.432   3.588   1.231  0.1461 -0.1412  0.1635
14678TIP3    H165449   5.474   3.673   1.222  1.1281 -0.6084  0.2522
14678TIP3    H265450   5.471   3.534   1.162 -0.2011 -0.6243  0.3382
14679TIP3   OH265451   4.296   6.098  12.297 -0.0389 -0.0026  0.5385
14679TIP3    H165452   4.242   6.139  12.365  0.2787 -0.4993  1.1041
14679TIP3    H265453   4.331   6.020  12.339 -2.0247 -1.8482 -1.0464
14680TIP3   OH265454   0.648   6.551  12.435 -0.0432  0.5395  0.2560
14680TIP3    H165455   0.722   6.536  12.377  1.8979  1.9398  2.2279
14680TIP3    H265456   0.647   6.475  12.493  0.2266  0.8101  0.6143
14681TIP3   OH265457   0.802   5.777  13.536  0.1932 -0.7454  0.0632
14681TIP3    H165458   0.884   5.807  13.496  0.0813  0.6249  0.7877
14681TIP3    H265459   0.763   5.720  13.470  1.3255 -0.7561 -0.6383
14682TIP3   OH265460   6.612   0.925  17.056 -0.0664  0.3494 -0.1464
14682TIP3    H165461   6.528   0.913  17.011  0.7173  0.7307 -1.7803
14682TIP3    H265462   6.674   0.871  17.006  0.6835  0.1444  0.9846
14683TIP3   OH265463   5.521   1.082   1.028  0.7908  0.2924  1.0094
14683TIP3    H165464   5.467   1.016   1.073  0.4167  0.3358  0.6268
14683TIP3    H265465   5.611   1.058   1.050  0.6328  0.0073  1.3629
14684TIP3   OH265466   0.673   3.610   2.015 -0.6228  0.3973  0.1059
14684TIP3    H165467   0.639   3.699   2.021 -1.3941  0.0179  1.9853
14684TIP3    H265468   0.596   3.557   1.993 -0.9850 -0.2498  2.6875
14685TIP3   OH265469   5.768   3.503  16.092  0.5445 -0.0954 -0.1060
14685TIP3    H165470   5.710   3.549  16.154 -2.2179 -1.7283 -1.2952
14685TIP3    H265471   5.788   3.420  16.136  0.4178 -0.3190 -0.4682
14686TIP3   OH265472   3.579   6.725   5.649 -0.0872  0.1493  0.1422
14686TIP3    H165473   3.641   6.653   5.664 -0.3967  0.0601  1.0475
14686TIP3    H265474   3.633   6.795   5.611  0.2261 -0.5314 -0.7089
14687TIP3   OH265475   0.366   1.582  11.159 -0.3607 -0.0982 -0.3043
14687TIP3    H165476   0.357   1.595  11.065  0.8539 -0.5315 -0.5130
14687TIP3    H265477   0.444   1.632  11.183 -0.8138  0.2262  0.5238
14688TIP3   OH265478   4.706   1.299   4.979  0.2917  0.4757  0.0483
14688TIP3    H165479   4.789   1.252   4.985 -0.0158 -0.0213  0.6319
14688TIP3    H265480   4.661   1.260   4.904  0.1913  0.0760  0.3112
14689TIP3   OH265481   3.296   1.030  12.796 -0.5268  0.4440 -0.5870
14689TIP3    H165482   3.317   1.064  12.709  0.8984 -0.3279 -0.5843
14689TIP3    H265483   3.312   1.104  12.855  1.0811  0.2624 -0.7410
14690TIP3   OH265484   0.782   0.590   2.437  0.3607 -0.4682 -0.1826
14690TIP3    H165485   0.786   0.500   2.469  1.1912 -0.4276 -0.1407
14690TIP3    H265486   0.785   0.643   2.516 -0.8717 -0.4005 -0.1633
14691TIP3   OH265487   6.536   2.984  13.581 -0.1038  0.3743 -0.1309
14691TIP3    H165488   6.516   2.933  13.503  1.4007 -0.5038  0.0277
14691TIP3    H265489   6.488   2.941  13.651  2.0784 -1.6421  0.2295
14692TIP3   OH265490   1.350   3.747  13.791 -0.3197  0.4420  0.0490
14692TIP3    H165491   1.420   3.752  13.856 -0.6905  3.0980  0.3863
14692TIP3    H265492   1.384   3.798  13.717 -0.9629 -0.2832 -0.7588
14693TIP3   OH265493   4.133   4.288  12.936 -0.3253 -0.1552 -0.2320
14693TIP3    H165494   4.054   4.295  12.989  0.0904 -0.1131  0.4005
14693TIP3    H265495   4.125   4.204  12.891  0.3610 -1.3317  1.6966
14694TIP3   OH265496   1.743   5.657   2.357  0.0810  0.1909 -0.0347
14694TIP3    H165497   1.743   5.744   2.396  1.5234 -1.3647  3.9477
14694TIP3    H265498   1.669   5.612   2.398  1.7426 -1.5781  1.2273
14695TIP3   OH265499   5.724   2.424  14.226  0.0973 -0.3156  0.2461
14695TIP3    H165500   5.717   2.339  14.269 -0.8308 -0.3421  0.0774
14695TIP3    H265501   5.691   2.409  14.137  1.3968 -0.1221 -0.2808
14696TIP3   OH265502   5.162   4.288   5.357 -0.7172  0.2661 -0.0414
14696TIP3    H165503   5.070   4.303   5.333 -1.2041  0.1922  1.6349
14696TIP3    H265504   5.175   4.194   5.341 -0.2391  0.6569 -2.3334
14697TIP3   OH265505   0.826   1.333   1.064 -0.5893  0.3912 -0.2997
14697TIP3    H165506   0.835   1.271   0.991  1.7894 -0.2183  0.4242
14697TIP3    H265507   0.836   1.419   1.024 -0.7077  0.1501 -0.8643
14698TIP3   OH265508   3.384   4.852   3.594 -0.5859  0.1288 -0.2810
14698TIP3    H165509   3.379   4.794   3.518 -0.7998 -0.5636  0.2520
14698TIP3    H265510   3.293   4.864   3.621 -0.7983  2.6544 -1.8018
14699TIP3   OH265511   1.505   2.513   4.235  0.8711  0.2601 -0.3799
14699TIP3    H165512   1.542   2.590   4.192  2.3498 -0.1249  0.1533
14699TIP3    H265513   1.577   2.449   4.236  0.1229 -0.5998  0.5112
14700TIP3   OH265514   2.212   1.086  13.988  0.2799  0.0062  0.4973
14700TIP3    H165515   2.194   1.097  14.081 -0.8443  0.1051  0.2795
14700TIP3    H265516   2.143   1.027  13.956 -0.3758  1.3291 -0.6131
14701TIP3   OH265517   3.561   6.413   3.719 -0.6680  0.1753 -0.3526
14701TIP3    H165518   3.653   6.401   3.744 -0.2601 -0.1212 -1.8896
14701TIP3    H265519   3.555   6.376   3.631 -1.7912  2.0279 -1.1087
14702TIP3   OH265520   6.407   1.620   1.927  0.3233  0.4046  0.6572
14702TIP3    H165521   6.361   1.572   1.995  0.3714 -0.3227  0.1852
14702TIP3    H265522   6.493   1.578   1.922 -0.5709 -1.3835 -1.6901
14703TIP3   OH265523   6.411   2.048  17.104  0.0211 -0.4226  0.3217
14703TIP3    H165524   6.360   2.082  17.031  1.0235  0.8042  0.1663
14703TIP3    H265525   6.373   1.962  17.122 -0.0660 -0.8988 -1.8486
14704TIP3   OH265526   4.763   6.150   2.334  0.3968 -0.0346  0.0540
14704TIP3    H165527   4.703   6.082   2.304  0.1271  0.6649 -1.0686
14704TIP3    H265528   4.713   6.232   2.326  1.2564  0.4797 -0.2605
14705TIP3   OH265529   5.149   2.107   2.894  0.1370 -0.5204 -0.5291
14705TIP3    H165530   5.195   2.185   2.863 -0.5201  0.8893  1.7747
14705TIP3    H265531   5.218   2.049   2.924  0.5853 -0.3330 -1.1717
14706TIP3   OH265532   3.923   2.935  14.462  0.1287 -0.3000  0.2625
14706TIP3    H165533   3.987   2.864  14.468 -1.0474 -1.5628 -1.2433
14706TIP3    H265534   3.948   2.996  14.532  2.0756 -1.4457  0.6370
14707TIP3   OH265535   1.714   3.482   2.192 -0.1367 -0.0575 -0.0272
14707TIP3    H165536   1.697   3.405   2.139  0.8006 -0.5703  0.3929
14707TIP3    H265537   1.666   3.553   2.148  1.1003 -0.3212 -1.9256
14708TIP3   OH265538   3.601   0.070  13.081  0.2264 -0.0549 -0.2608
14708TIP3    H165539   3.629   0.080  12.990  0.7732 -1.7304 -0.2969
14708TIP3    H265540   3.549  -0.010  13.082 -1.8567  1.2328  0.4680
14709TIP3   OH265541   2.863   1.439   5.126 -0.2325 -0.3228 -0.2002
14709TIP3    H165542   2.797   1.377   5.157  0.4024 -0.7492  0.3235
14709TIP3    H265543   2.840   1.522   5.168 -1.1421 -0.1777 -0.9806
14710TIP3   OH265544   2.949   4.992  12.385 -0.1653 -0.1779  0.7304
14710TIP3    H165545   2.890   4.981  12.311  0.3268 -1.0023  0.4443
14710TIP3    H265546   2.896   4.973  12.462 -0.1079 -1.6359  0.4315
14711TIP3   OH265547   2.451   3.048   0.697 -0.0351  0.4408 -0.3843
14711TIP3    H165548   2.466   3.090   0.782  0.8549  0.3013 -0.4638
14711TIP3    H265549   2.538   3.038   0.659 -0.4439  0.7412 -1.4371
14712TIP3   OH265550   6.407   4.242  12.937 -0.1921 -0.1276 -0.2952
14712TIP3    H165551   6.382   4.321  12.889  0.2728 -0.0606 -0.4325
14712TIP3    H265552   6.468   4.272  13.004  0.4821 -0.4395 -0.7465
14713TIP3   OH265553   6.558   0.623   2.991  0.2521  0.0975  0.3895
14713TIP3    H165554   6.627   0.569   2.953  0.5389 -0.0862  1.1540
14713TIP3    H265555   6.557   0.600   3.084  0.7501  1.7759  0.8477
14714TIP3   OH265556   0.093   6.654  15.472 -0.3851 -0.0232  0.7042
14714TIP3    H165557  -0.002   6.669  15.469 -0.4110  0.0813  1.6521
14714TIP3    H265558   0.131   6.740  15.458 -0.4158 -0.1755 -0.3356
14715TIP3   OH265559   5.757   2.331   1.904  1.0498 -0.2395  0.0772
14715TIP3    H165560   5.835   2.278   1.921 -0.1495 -1.5220  1.9660
14715TIP3    H265561   5.727   2.301   1.818  2.8205  0.5851 -0.8834
14716TIP3   OH265562   4.356   0.002   0.515  0.1074 -0.2973  0.5237
14716TIP3    H165563   4.315   0.088   0.504  0.5200 -0.2170 -0.5409
14716TIP3    H265564   4.446   0.015   0.485  0.2761 -1.0098  0.7218
14717TIP3   OH265565   5.237   5.171   0.466 -0.2725 -0.2085 -0.0040
14717TIP3    H165566   5.189   5.140   0.542  2.0650  0.6906  1.9829
14717TIP3    H265567   5.270   5.257   0.492 -0.2465  0.5869 -2.4502
14718TIP3   OH265568   1.085   3.985   5.035  0.2250 -0.1526  0.2035
14718TIP3    H165569   1.167   3.985   5.085 -0.5575 -0.0702  1.5420
14718TIP3    H265570   1.082   3.899   4.992  1.4409  0.1992 -0.6305
14719TIP3   OH265571   3.745   0.476   0.167  0.5318 -0.1423 -0.2350
14719TIP3    H165572   3.669   0.479   0.225 -0.7783 -0.3382 -1.8633
14719TIP3    H265573   3.793   0.556   0.186 -0.4677  0.3385  0.3601
14720TIP3   OH265574   3.175   4.459   4.309  0.4654  0.1470 -0.4126
14720TIP3    H165575   3.249   4.466   4.369 -0.2722  1.1726  0.4156
14720TIP3    H265576   3.126   4.384   4.342  2.6124 -2.4922 -2.7325
14721TIP3   OH265577   2.080   3.855  11.863  0.1843 -0.5501 -0.5589
14721TIP3    H165578   1.999   3.811  11.890 -1.1569  0.8473 -2.1545
14721TIP3    H265579   2.097   3.823  11.774  1.8825 -1.4411  0.0318
14722TIP3   OH265580   5.020   0.961  12.119 -0.9431  1.1757  0.8341
14722TIP3    H165581   4.925   0.947  12.119 -0.5786 -2.2072 -0.7522
14722TIP3    H265582   5.034   1.032  12.057 -2.3599  0.5489 -0.2542
14723TIP3   OH265583   5.850   0.548  14.656 -0.4407 -0.4461  0.1478
14723TIP3    H165584   5.928   0.525  14.607  0.0561  0.7780  0.3273
14723TIP3    H265585   5.858   0.643  14.671 -1.5330 -0.4531  0.8944
14724TIP3   OH265586   2.674   6.621   3.142  0.1825 -0.0748  0.0601
14724TIP3    H165587   2.641   6.621   3.232 -0.3581  0.6394 -0.1343
14724TIP3    H265588   2.644   6.538   3.106 -1.2657  0.4816 -0.0572
14725TIP3   OH265589   5.901   5.785  15.785 -0.0951  0.3326  0.1474
14725TIP3    H165590   5.848   5.827  15.717 -0.9510  1.5766  1.5200
14725TIP3    H265591   5.840   5.729  15.833  0.5590 -0.7529 -0.2489
14726TIP3   OH265592   2.396   5.046  16.827  0.0239 -0.1082 -0.4491
14726TIP3    H165593   2.349   5.125  16.800 -0.3849 -0.4094 -0.6330
14726TIP3    H265594   2.488   5.072  16.828 -0.0450  0.1886 -1.1399
14727TIP3   OH265595   5.334   1.558  15.496  0.3528  0.4979  0.3557
14727TIP3    H165596   5.378   1.608  15.427  0.3628  1.5119  1.0653
14727TIP3    H265597   5.344   1.612  15.574  0.9234 -0.9301  1.3203
14728TIP3   OH265598   0.888   0.367  15.212 -0.1175  0.0309  0.2886
14728TIP3    H165599   0.847   0.374  15.126 -0.3064 -0.4331  0.3395
14728TIP3    H265600   0.832   0.419  15.269  0.9613  1.7976 -0.1882
14729TIP3   OH265601   5.102   3.234  11.277 -0.5588 -0.1536 -0.2136
14729TIP3    H165602   5.095   3.299  11.207  1.4132 -0.9556 -1.2520
14729TIP3    H265603   5.111   3.151  11.231  1.2078 -0.6649  0.9651
14730TIP3   OH265604   1.450   5.635  12.694 -0.2371 -0.0084  0.4572
14730TIP3    H165605   1.421   5.628  12.785 -1.1119 -1.8039  0.0772
14730TIP3    H265606   1.537   5.674  12.699  1.4906 -3.6012  2.4477
14731TIP3   OH265607   2.286   6.695  16.987  0.2493 -0.5281  0.7890
14731TIP3    H165608   2.364   6.639  16.984  0.9156  0.3590  1.2001
14731TIP3    H265609   2.236   6.663  17.062  0.9671 -0.1365  1.4420
14732TIP3   OH265610   2.706   0.810  16.020 -0.2329 -0.3091  0.1645
14732TIP3    H165611   2.736   0.793  15.930  1.4979 -0.8896  0.8181
14732TIP3    H265612   2.690   0.904  16.022  1.7216  0.0781 -0.2248
14733TIP3   OH265613   3.503   3.624  12.261  0.3716  0.2115 -0.1112
14733TIP3    H165614   3.502   3.543  12.312  1.3212 -0.8768 -1.7366
14733TIP3    H265615   3.424   3.671  12.289  0.8586 -0.2898  2.3384
14734TIP3   OH265616   0.828   1.527  14.108  0.5547 -0.1866  0.6128
14734TIP3    H165617   0.888   1.552  14.038 -1.3696  1.7766 -0.4383
14734TIP3    H265618   0.806   1.436  14.090  1.7982 -0.3736 -0.0354
14735TIP3   OH265619   5.322   1.351  12.923 -0.1823  0.2082 -0.7951
14735TIP3    H165620   5.323   1.335  12.829 -1.3133  1.4660 -1.0682
14735TIP3    H265621   5.335   1.265  12.963 -0.3642 -0.4501 -2.0972
14736TIP3   OH265622   6.301   1.231   1.330  0.0269 -0.1435  0.5970
14736TIP3    H165623   6.312   1.292   1.403  0.0085 -0.2269  0.6697
14736TIP3    H265624   6.238   1.274   1.272 -0.6722 -0.4868  1.0828
14737TIP3   OH265625   1.525   5.370  17.103  0.3356 -0.2443 -0.3411
14737TIP3    H165626   1.593   5.431  17.134 -0.8031  0.7032  0.3827
14737TIP3    H265627   1.569   5.316  17.038  2.2526 -0.7975  1.2938
14738TIP3   OH265628   0.463   5.239  13.237 -0.6219 -0.2405 -0.1616
14738TIP3    H165629   0.491   5.310  13.179 -0.9415  0.1310  0.1295
14738TIP3    H265630   0.542   5.187  13.251  0.3523  1.6015  1.7973
14739TIP3   OH265631   1.144   0.845  11.009 -0.1925 -0.1478 -0.3477
14739TIP3    H165632   1.051   0.865  11.016  0.1375  1.8247 -0.9169
14739TIP3    H265633   1.152   0.794  10.928 -0.7824 -0.3770 -0.2622
14740TIP3   OH265634   4.612   4.316   3.584  0.1882 -0.0106 -0.5283
14740TIP3    H165635   4.623   4.323   3.489  1.4409  0.6942 -0.3579
14740TIP3    H265636   4.580   4.403   3.610  1.1091  0.2337 -0.1698
14741TIP3   OH265637   6.556   5.982   5.283  0.2640 -0.1963 -0.1161
14741TIP3    H165638   6.491   6.019   5.223  0.4489 -1.9701 -1.5032
14741TIP3    H265639   6.640   5.993   5.238  0.5876 -0.3316  0.4418
14742TIP3   OH265640   5.080   2.746   0.033 -0.1778  0.0870  0.7648
14742TIP3    H165641   5.029   2.827   0.025  0.3522  0.5429  1.7007
14742TIP3    H265642   5.121   2.753   0.120  0.1094 -1.0565  0.7354
14743TIP3   OH265643   0.696   4.664   0.580 -0.0757  0.2907  0.6667
14743TIP3    H165644   0.660   4.676   0.492 -0.8858  1.4928  1.1338
14743TIP3    H265645   0.686   4.570   0.597 -1.9406  0.3794  0.2979
14744TIP3   OH265646   2.752   5.516   6.149 -0.5814  0.0243 -0.5500
14744TIP3    H165647   2.757   5.452   6.219  0.8238 -0.7967 -1.3520
14744TIP3    H265648   2.842   5.524   6.117 -0.6805  2.4675 -0.4444
14745TIP3   OH265649   1.546   4.467   3.058 -0.4344 -0.2403  0.4953
14745TIP3    H165650   1.590   4.551   3.043  0.2153 -0.3172  1.8070
14745TIP3    H265651   1.506   4.445   2.973  1.0428  0.4265 -0.4155
14746TIP3   OH265652   0.234   0.266   1.790 -0.2130  0.5731 -0.1287
14746TIP3    H165653   0.308   0.317   1.823  0.9854  0.8223 -2.9245
14746TIP3    H265654   0.238   0.183   1.838  0.5680  1.3534  1.2240
14747TIP3   OH265655   0.387   6.540  11.518  0.1043  0.3324 -0.0786
14747TIP3    H165656   0.424   6.551  11.605  1.6666  0.4844 -0.7346
14747TIP3    H265657   0.350   6.452  11.518 -0.3811  0.5235  0.8923
14748TIP3   OH265658   2.872   4.943  15.985 -0.5308  0.1751  0.4409
14748TIP3    H165659   2.801   4.916  16.043 -0.5843 -0.3907  0.1161
14748TIP3    H265660   2.914   4.861  15.958 -0.2480  0.4562  0.0063
14749TIP3   OH265661   3.020   6.316  15.308  0.6421  0.1317  0.0879
14749TIP3    H165662   3.059   6.244  15.357 -0.4192 -1.1522 -0.8839
14749TIP3    H265663   3.016   6.284  15.218 -2.4699  0.2062  0.0964
14750TIP3   OH265664   1.973   6.485   2.623 -0.5759  0.4674  0.3112
14750TIP3    H165665   2.062   6.450   2.622 -0.0443  1.7486 -0.6441
14750TIP3    H265666   1.924   6.425   2.679  0.7726 -0.5319  0.4723
14751TIP3   OH265667   6.007   0.723  10.833 -0.5178  0.6469  0.0187
14751TIP3    H165668   5.911   0.727  10.827 -0.6224 -0.7682  0.4218
14751TIP3    H265669   6.030   0.797  10.890 -1.4042  0.7419  0.2676
14752TIP3   OH265670   2.255   4.671  12.353 -0.4492 -0.1836 -0.0035
14752TIP3    H165671   2.274   4.628  12.436  2.1481 -0.3684 -0.6024
14752TIP3    H265672   2.199   4.610  12.306 -0.3242 -0.9803  0.8517
14753TIP3   OH265673   2.538   6.559  13.459 -0.4514  0.1853 -0.4158
14753TIP3    H165674   2.593   6.564  13.537  0.4919  1.2387 -1.1172
14753TIP3    H265675   2.510   6.468  13.455  3.4641 -1.1496 -1.4782
14754TIP3   OH265676   6.249   2.704   0.328  0.7555 -0.6265  0.4381
14754TIP3    H165677   6.340   2.699   0.301  1.0999  0.7632  1.1977
14754TIP3    H265678   6.206   2.755   0.259  0.3846 -1.8668 -0.2664
14755TIP3   OH265679   2.826   5.687   2.684 -0.3276 -0.3891 -0.6912
14755TIP3    H165680   2.897   5.729   2.636  0.5924  0.5243  1.3529
14755TIP3    H265681   2.869   5.643   2.758 -1.9116  1.7441  1.7050
14756TIP3   OH265682   2.304   4.655  14.330  0.5371  0.3265 -0.1743
14756TIP3    H165683   2.277   4.711  14.403 -0.3275 -1.1098  0.6626
14756TIP3    H265684   2.368   4.595  14.369  0.5576 -0.0361 -0.7490
14757TIP3   OH265685   4.259   3.913   2.440  0.2807 -0.0766 -0.2556
14757TIP3    H165686   4.234   3.873   2.357  0.1843  0.9307 -0.7212
14757TIP3    H265687   4.348   3.945   2.425  0.4076 -0.2305  0.1567
14758TIP3   OH265688   0.378   4.330   4.985 -0.0169  0.0165 -0.0234
14758TIP3    H165689   0.392   4.294   5.073  0.2329  1.5762  0.6129
14758TIP3    H265690   0.298   4.382   4.993 -0.9341 -1.1228 -1.1762
14759TIP3   OH265691   4.905   5.307  16.868  0.1163 -0.4133  0.2479
14759TIP3    H165692   4.865   5.230  16.827  2.4833 -1.1603 -0.8510
14759TIP3    H265693   4.875   5.381  16.815 -1.0009 -0.7349  0.4078
14760TIP3   OH265694   4.939   6.340  14.247 -0.5662  0.5952 -0.1837
14760TIP3    H165695   5.013   6.331  14.187  0.3195  2.7264  0.4880
14760TIP3    H265696   4.862   6.324  14.192  0.3074 -2.7221 -0.6663
14761TIP3   OH265697   1.784   3.927  14.070  0.0893  0.4423  0.2647
14761TIP3    H165698   1.813   4.015  14.098 -2.0722  1.1448  0.4821
14761TIP3    H265699   1.744   3.889  14.148 -0.1123 -0.2362 -0.1595
14762TIP3   OH265700   2.875   5.620  10.868 -0.1832  0.1762 -0.3122
14762TIP3    H165701   2.852   5.529  10.849 -0.6823 -0.5153  3.0536
14762TIP3    H265702   2.803   5.671  10.832 -1.7579 -1.1137  0.8629
14763TIP3   OH265703   4.886   0.003  15.405  0.0333  0.7090  0.0455
14763TIP3    H165704   4.873  -0.009  15.311  2.6909 -0.5531 -0.2563
14763TIP3    H265705   4.838  -0.069  15.445  1.3027 -0.5368 -0.5927
14764TIP3   OH265706   4.988   6.245  11.797  0.1425 -0.0429  0.5617
14764TIP3    H165707   5.055   6.214  11.735 -1.7583 -3.3770 -0.0645
14764TIP3    H265708   4.919   6.280  11.741 -0.3434 -0.3889  0.9391
14765TIP3   OH265709   4.470   5.979  16.738 -0.0036 -0.0363 -0.2093
14765TIP3    H165710   4.420   6.047  16.783 -1.7532  0.4026 -2.6611
14765TIP3    H265711   4.453   5.900  16.788  0.0893  0.8319  1.2648
14766TIP3   OH265712   1.340   0.787   2.236  0.0065  0.0943  0.5242
14766TIP3    H165713   1.294   0.805   2.154  2.2407  1.8854 -0.4583
14766TIP3    H265714   1.399   0.715   2.215  0.3652  0.3556  0.6091
14767TIP3   OH265715   2.029   1.072   4.347 -0.2172  0.0631  0.1087
14767TIP3    H165716   1.936   1.090   4.328 -1.0133 -4.1795 -1.1520
14767TIP3    H265717   2.027   1.009   4.418  1.5206 -1.5421 -1.1630
14768TIP3   OH265718   0.607   3.895   2.082  0.2941  0.0345 -0.5488
14768TIP3    H165719   0.659   3.973   2.064  0.1440  1.2589  3.3961
14768TIP3    H265720   0.517   3.928   2.087  0.0744 -0.6284 -0.1060
14769TIP3   OH265721   3.102   5.045   2.965  0.0974 -0.2823 -0.0980
14769TIP3    H165722   3.039   4.992   3.015 -0.1583  0.2963  0.2017
14769TIP3    H265723   3.173   4.984   2.944 -0.7712 -1.0815 -0.8569
14770TIP3   OH265724   5.411   1.719   0.348  0.4439 -0.6909  0.9945
14770TIP3    H165725   5.475   1.788   0.330  0.9656 -1.6228 -1.1362
14770TIP3    H265726   5.455   1.638   0.321 -1.6444 -1.3524 -0.7380
14771TIP3   OH265727   5.658   3.092   2.358 -0.0955 -0.7683  0.2312
14771TIP3    H165728   5.582   3.112   2.303 -0.1424 -0.6543  0.3386
14771TIP3    H265729   5.670   3.170   2.412  0.7321 -0.3647 -0.5130
14772TIP3   OH265730   4.063   3.020   3.253 -0.0577  0.0209 -0.2796
14772TIP3    H165731   4.111   3.037   3.334  0.2985 -2.9219  0.2371
14772TIP3    H265732   4.131   3.000   3.189 -0.4156  0.6621 -0.8707
14773TIP3   OH265733   3.468   6.673  17.126 -0.2737 -0.1166 -0.3627
14773TIP3    H165734   3.425   6.701  17.207 -0.0186  0.3203 -0.3756
14773TIP3    H265735   3.419   6.596  17.098  0.6542 -1.2895  1.0966
14774TIP3   OH265736   0.351   6.080  15.495  0.0516 -0.7047 -0.1361
14774TIP3    H165737   0.324   6.106  15.407 -0.5168 -1.4299 -0.1777
14774TIP3    H265738   0.296   6.005  15.516  0.6835 -0.9798  0.5577
14775TIP3   OH265739   4.611   1.805   4.601 -0.9989 -0.8174 -0.0201
14775TIP3    H165740   4.582   1.724   4.644 -0.4078 -1.5620 -0.9622
14775TIP3    H265741   4.620   1.869   4.671 -2.5594 -1.2395  0.6168
14776TIP3   OH265742   4.845   1.260   0.308  0.5791  0.4214  0.6156
14776TIP3    H165743   4.813   1.173   0.333 -1.3864  0.1794 -2.2873
14776TIP3    H265744   4.940   1.254   0.315  0.4695 -1.8850  0.6643
14777TIP3   OH265745   4.736   0.953   4.367  0.5265  0.0037 -0.1800
14777TIP3    H165746   4.777   0.881   4.319 -0.7304  0.8026 -2.6198
14777TIP3    H265747   4.711   0.914   4.451  1.4763 -1.8954 -0.7174
14778TIP3   OH265748   0.208   3.488   5.569  0.2204  0.4076 -0.1185
14778TIP3    H165749   0.193   3.517   5.659 -2.9270  1.8804 -0.9598
14778TIP3    H265750   0.195   3.393   5.572 -2.4065  0.7041  0.6803
14779TIP3   OH265751   6.022   3.090   3.094 -0.6904 -1.1393 -0.2477
14779TIP3    H165752   5.958   3.124   3.032 -0.7067  0.8652  0.8010
14779TIP3    H265753   6.106   3.098   3.048 -0.5493  1.4339  0.3202
14780TIP3   OH265754   0.458   4.128  15.409  0.3595  0.3156  0.4467
14780TIP3    H165755   0.454   4.163  15.320 -0.7023  0.2635  0.4595
14780TIP3    H265756   0.546   4.151  15.440  0.2742  1.5171 -0.1354
14781TIP3   OH265757   0.285   5.619  13.027 -0.1416  0.1998  0.4046
14781TIP3    H165758   0.334   5.586  13.103  0.7479 -1.5098 -0.8481
14781TIP3    H265759   0.194   5.604  13.050  0.1538 -1.1182  0.8214
14782TIP3   OH265760   3.364   3.327   4.776 -0.0954 -0.2842  0.9393
14782TIP3    H165761   3.409   3.411   4.773 -0.3899 -0.1351 -0.6563
14782TIP3    H265762   3.278   3.347   4.811 -0.1185  0.0721  0.6876
14783TIP3   OH265763   4.295   3.999  13.455  0.2301 -0.2639 -0.2755
14783TIP3    H165764   4.265   4.064  13.391  0.2106 -0.6109 -0.6295
14783TIP3    H265765   4.374   4.036  13.493  0.8599 -0.5279 -1.2961
14784TIP3   OH265766   3.185   6.354   5.054  0.2229 -0.1069 -0.0585
14784TIP3    H165767   3.278   6.353   5.032 -0.0637 -0.0237 -1.3248
14784TIP3    H265768   3.147   6.285   5.000 -0.5099  0.0684  0.2234
14785TIP3   OH265769   0.591   6.163  13.248  0.8182 -0.3929 -0.0915
14785TIP3    H165770   0.679   6.181  13.283  0.3876  0.7963  0.4307
14785TIP3    H265771   0.546   6.247  13.252 -0.6136 -1.1444  0.4059
14786TIP3   OH265772   1.224   2.642   2.775  0.3574 -0.5598 -0.1502
14786TIP3    H165773   1.144   2.609   2.734  1.0336 -0.6005 -1.4966
14786TIP3    H265774   1.204   2.734   2.795  0.1447 -0.4210 -0.9643
14787TIP3   OH265775   0.038   2.483  13.891  0.2682  0.3481 -0.4650
14787TIP3    H165776   0.004   2.535  13.964  0.4717  1.5019 -1.1695
14787TIP3    H265777   0.107   2.430  13.930 -0.9457 -0.5306  0.5714
14788TIP3   OH265778   0.354   4.894  12.433 -0.3822  0.0578  0.3222
14788TIP3    H165779   0.287   4.886  12.365 -0.1130 -1.1205  0.1820
14788TIP3    H265780   0.358   4.808  12.474  1.7873 -0.2650 -0.3948
14789TIP3   OH265781   1.404   4.333  11.428 -0.9570  0.0073 -0.2231
14789TIP3    H165782   1.354   4.262  11.387 -1.3818 -0.1263  0.4996
14789TIP3    H265783   1.422   4.301  11.517  0.0932  0.2114 -0.3466
14790TIP3   OH265784   5.451   0.388   3.231 -0.7980  0.3021  0.1285
14790TIP3    H165785   5.458   0.484   3.234  1.9025  0.1888 -0.3042
14790TIP3    H265786   5.428   0.368   3.140 -1.4036  0.5224  0.2282
14791TIP3   OH265787   1.864   6.366   2.388 -0.0992 -0.8096  0.2128
14791TIP3    H165788   1.940   6.394   2.338 -1.1028  0.0834 -0.8919
14791TIP3    H265789   1.895   6.361   2.479  0.9477  0.8311 -0.0086
14792TIP3   OH265790   4.102   6.325   3.146  0.8473  0.1201 -0.0044
14792TIP3    H165791   4.098   6.420   3.136  0.0707  0.0740 -0.1835
14792TIP3    H265792   4.156   6.296   3.072  0.3111  0.3432 -0.4929
14793TIP3   OH265793   4.008   2.301  14.866 -0.0737  0.3075 -0.7701
14793TIP3    H165794   3.917   2.278  14.848 -0.6095  0.1204  1.7986
14793TIP3    H265795   4.052   2.217  14.879  0.8691  0.3115 -3.2834
14794TIP3   OH265796   0.316   0.169   5.563 -0.7801  0.0253  0.2593
14794TIP3    H165797   0.338   0.262   5.566 -0.7636  0.0573 -0.5828
14794TIP3    H265798   0.399   0.126   5.540 -0.5542 -0.3025  1.5963
14795TIP3   OH265799   2.653   1.621  13.509  0.1269  0.6816 -0.7966
14795TIP3    H165800   2.709   1.545  13.493  2.8213  2.2327  0.6091
14795TIP3    H265801   2.659   1.673  13.428  0.5052  0.7039 -0.7563
14796TIP3   OH265802   6.399   0.489   5.053  0.2472 -0.2955  0.3926
14796TIP3    H165803   6.392   0.395   5.074 -0.6937  0.0528  1.7630
14796TIP3    H265804   6.429   0.490   4.962 -0.5219 -1.9397  0.0680
14797TIP3   OH265805   0.129   1.554   5.436 -0.2363 -0.1026  0.1178
14797TIP3    H165806   0.142   1.633   5.383 -2.5025  0.7503  0.6991
14797TIP3    H265807   0.117   1.484   5.371 -1.0617  0.5863 -0.5063
14798TIP3   OH265808   0.023   3.794  17.069 -0.3563 -0.2037  0.4118
14798TIP3    H165809   0.026   3.802  17.164  0.6255  2.5112  0.2302
14798TIP3    H265810  -0.043   3.727  17.052  0.6600 -2.0101  3.0248
14799TIP3   OH265811   5.600   2.541   5.936  0.0168  0.1836 -0.4030
14799TIP3    H165812   5.583   2.574   6.024 -0.9835 -0.0705 -0.4874
14799TIP3    H265813   5.649   2.611   5.893 -1.2593  1.1853 -0.2890
14800TIP3   OH265814   6.623   5.188  14.208  0.3698  0.6597  0.4654
14800TIP3    H165815   6.662   5.103  14.188  0.8878  0.7263  1.1866
14800TIP3    H265816   6.674   5.251  14.158 -0.4547  0.4935 -0.6281
14801TIP3   OH265817   3.955   0.938   5.971 -0.2776  0.1477 -0.2452
14801TIP3    H165818   3.903   0.858   5.970 -0.1381 -0.0050  1.5855
14801TIP3    H265819   4.045   0.908   5.984 -0.0650  0.5504 -0.7487
14802TIP3   OH265820   0.447   1.429   0.400 -0.2860  0.2980 -0.2747
14802TIP3    H165821   0.528   1.461   0.441  1.4644 -1.4498 -2.1362
14802TIP3    H265822   0.406   1.375   0.468  0.2859  0.9354  0.5954
14803TIP3   OH265823   3.362   5.897  12.356 -0.3308  0.2320 -0.0650
14803TIP3    H165824   3.437   5.866  12.304  0.6593  3.0850 -0.5792
14803TIP3    H265825   3.304   5.822  12.363  0.5239 -0.9179 -3.4647
14804TIP3   OH265826   6.518   5.585   6.308  0.3234 -0.4093 -0.6577
14804TIP3    H165827   6.471   5.533   6.373  0.6316  1.0774  0.8317
14804TIP3    H265828   6.586   5.630   6.358  1.2148  0.0333 -2.1977
14805TIP3   OH265829   3.942   2.468  16.250  1.2083 -0.0396 -0.3318
14805TIP3    H165830   3.992   2.423  16.181  0.2793 -0.6733 -0.6067
14805TIP3    H265831   3.985   2.441  16.332  1.0344 -0.9691 -0.5312
14806TIP3   OH265832   0.610   4.808  14.049  0.1625  0.0696 -0.1101
14806TIP3    H165833   0.686   4.792  13.994 -1.8137 -1.9040 -2.5242
14806TIP3    H265834   0.611   4.738  14.114 -0.3295 -0.8455 -1.0652
14807TIP3   OH265835   0.489   3.894   3.883 -0.7794  0.0970  0.4333
14807TIP3    H165836   0.408   3.846   3.901 -0.8487  0.3081  0.6989
14807TIP3    H265837   0.484   3.916   3.790 -0.2315 -1.3603  0.0278
14808TIP3   OH265838   0.441   2.612  16.744 -0.1425  0.7164  0.2984
14808TIP3    H165839   0.364   2.614  16.688  0.6250  1.4296 -0.7692
14808TIP3    H265840   0.420   2.549  16.813 -0.7440 -0.9286 -1.3226
14809TIP3   OH265841   2.148   2.731  14.690  0.0177  0.1919 -0.2314
14809TIP3    H165842   2.184   2.670  14.754 -0.1406  1.3291  0.9985
14809TIP3    H265843   2.067   2.690  14.660  0.4782 -0.7061 -0.2656
14810TIP3   OH265844   2.238   1.357   1.812  0.1329  0.2420  0.2538
14810TIP3    H165845   2.246   1.265   1.838  0.0664 -0.6295 -2.4984
14810TIP3    H265846   2.326   1.381   1.782 -0.3874  0.2619 -1.3367
14811TIP3   OH265847   0.270   4.092  11.848 -0.2879 -0.1792 -0.4652
14811TIP3    H165848   0.203   4.156  11.870  0.4104  0.3131  0.3307
14811TIP3    H265849   0.258   4.073  11.755 -0.8552  0.6910 -0.5723
14812TIP3   OH265850   4.483   2.627   1.099  0.0251 -0.6184 -0.1691
14812TIP3    H165851   4.459   2.608   1.190  0.3707  0.8934  0.2656
14812TIP3    H265852   4.495   2.541   1.059  0.5397 -1.3092  1.3917
14813TIP3   OH265853   2.183   0.042   4.639  0.1329 -0.5048  0.1072
14813TIP3    H165854   2.136   0.072   4.717 -0.4771 -1.7506  0.2457
14813TIP3    H265855   2.268   0.085   4.645 -0.5312  0.8139  0.5161
14814TIP3   OH265856   1.819   1.580  11.748  0.1150 -0.1382  0.1422
14814TIP3    H165857   1.810   1.643  11.820  3.1439  0.6757 -0.0517
14814TIP3    H265858   1.885   1.517  11.780 -0.3029 -1.1892 -1.0094
14815TIP3   OH265859   2.429   0.642  10.830 -0.4748  0.0504 -0.6109
14815TIP3    H165860   2.409   0.579  10.899  0.1612 -1.2362 -1.5598
14815TIP3    H265861   2.450   0.588  10.753  1.4073  1.3546 -1.0989
14816TIP3   OH265862   1.688   2.647   1.770 -0.7201 -0.0979 -0.1144
14816TIP3    H165863   1.653   2.708   1.705 -2.1283 -0.6501  0.0860
14816TIP3    H265864   1.780   2.637   1.746 -0.6540  1.4530 -0.6398
14817TIP3   OH265865   3.084   2.027   3.913 -0.3139  0.2970 -0.0000
14817TIP3    H165866   3.084   1.959   3.846 -0.4920  0.4355 -0.1420
14817TIP3    H265867   3.100   1.980   3.995  1.6703  0.3196 -0.3272
14818TIP3   OH265868   3.221   3.008  16.725  0.2210  0.5086 -0.7233
14818TIP3    H165869   3.221   2.960  16.807  1.7171  0.9305 -0.4573
14818TIP3    H265870   3.255   2.945  16.661 -2.1687 -0.2595 -1.3412
14819TIP3   OH265871   6.448   4.230   5.873  0.4949 -0.1683  0.4063
14819TIP3    H165872   6.464   4.273   5.789  2.1636  2.7448  2.0730
14819TIP3    H265873   6.516   4.163   5.878 -0.1050 -0.9272 -0.8161
14820TIP3   OH265874   0.474   0.883  15.169  1.0632  0.1011 -0.5640
14820TIP3    H165875   0.467   0.795  15.207 -0.9140  0.6183  0.3905
14820TIP3    H265876   0.392   0.896  15.122 -0.0867  2.5182  1.8469
14821TIP3   OH265877   1.842   5.332   0.215 -0.1593  0.3282 -0.0140
14821TIP3    H165878   1.906   5.328   0.287  0.3215  0.1883 -0.4467
14821TIP3    H265879   1.777   5.265   0.238 -0.3110  0.6627  0.5715
14822TIP3   OH265880   4.894   2.497   0.490 -0.1528 -0.4765  0.3240
14822TIP3    H165881   4.952   2.572   0.505 -1.5205  0.8251 -0.5474
14822TIP3    H265882   4.888   2.453   0.575  2.0228 -0.6339  0.4505
14823TIP3   OH265883   2.238   0.753  12.168 -0.5065  0.6380  0.3127
14823TIP3    H165884   2.199   0.840  12.175  0.2374  0.9221  1.1489
14823TIP3    H265885   2.315   0.757  12.225  0.7285  0.0877 -1.2559
14824TIP3   OH265886   1.976   1.711  15.048 -0.2041  0.2233 -0.6831
14824TIP3    H165887   2.022   1.772  15.106 -1.0823 -0.5654  0.9067
14824TIP3    H265888   1.912   1.766  15.002  0.8352  0.9453 -1.3116
14825TIP3   OH265889   3.016   4.613  14.025 -0.0671 -0.2124  0.2274
14825TIP3    H165890   2.986   4.681  14.085  1.4815  1.6074 -0.9421
14825TIP3    H265891   3.099   4.646  13.991  0.2062 -2.2130 -1.2252
14826TIP3   OH265892   6.161   2.545  12.609  0.4910 -0.1082 -0.0165
14826TIP3    H165893   6.108   2.521  12.685  0.1023 -0.1558 -0.2992
14826TIP3    H265894   6.100   2.585  12.548  1.1806  1.9131  0.5516
14827TIP3   OH265895   3.711   4.520  14.557  0.2387  0.3127  0.1404
14827TIP3    H165896   3.684   4.544  14.469  1.3412  0.5327 -0.1595
14827TIP3    H265897   3.721   4.603  14.603  0.0600  0.2204  0.3466
14828TIP3   OH265898   4.301   3.570  12.731  0.1020  0.5118  0.6139
14828TIP3    H165899   4.249   3.499  12.694 -1.2470  1.4014  0.7718
14828TIP3    H265900   4.275   3.648  12.682  3.1523  0.6270 -1.1047
14829TIP3   OH265901   6.146   0.933   1.998  0.4481  0.1832 -0.0427
14829TIP3    H165902   6.163   0.948   1.905  2.2404  0.3262  0.2829
14829TIP3    H265903   6.053   0.907   2.001  1.0626 -2.8520 -2.2074
14830TIP3   OH265904   0.125   4.815   4.871 -0.6905 -0.2248 -0.1735
14830TIP3    H165905   0.051   4.869   4.845 -0.0302  0.0955 -1.4814
14830TIP3    H265906   0.117   4.807   4.966 -1.1168  1.7117 -0.0098
14831TIP3   OH265907   2.612   5.768   3.380  0.3840 -0.1449  0.1920
14831TIP3    H165908   2.686   5.815   3.416  1.9967 -0.9927 -1.8381
14831TIP3    H265909   2.550   5.836   3.354  0.1336  0.5500  2.3541
14832TIP3   OH265910   3.116   4.362   4.715  0.5317  0.5628  0.2030
14832TIP3    H165911   3.046   4.297   4.728  2.5839 -1.5529  1.6877
14832TIP3    H265912   3.105   4.424   4.787  0.9951 -0.6514  1.3848
14833TIP3   OH265913   5.934   1.875  15.988  0.3379  0.2821  0.3276
14833TIP3    H165914   5.934   1.894  16.082 -0.0182 -0.8179  0.5632
14833TIP3    H265915   6.008   1.815  15.976  0.3054  0.3229 -0.0736
14834TIP3   OH265916   0.856   2.252   4.241 -0.1060 -0.6819 -0.2069
14834TIP3    H165917   0.764   2.238   4.215 -1.2858  1.2755  2.4925
14834TIP3    H265918   0.900   2.273   4.159 -1.9733 -1.9031 -1.6362
14835TIP3   OH265919   4.904   0.872  12.993  0.2431 -0.2207  0.3116
14835TIP3    H165920   4.852   0.795  12.971  0.1506 -0.2775  0.7297
14835TIP3    H265921   4.995   0.845  12.976  0.0694  0.3420 -1.8319
14836TIP3   OH265922   0.555   2.296   4.668  0.5980 -0.1075  0.3983
14836TIP3    H165923   0.520   2.361   4.606 -1.9939 -2.6679 -1.1211
14836TIP3    H265924   0.495   2.300   4.743 -0.2035 -1.2981 -0.1372
14837TIP3   OH265925   1.978   0.474   0.145 -0.1431 -0.1962 -0.2151
14837TIP3    H165926   2.054   0.425   0.176 -0.7477 -1.0483 -0.0425
14837TIP3    H265927   1.988   0.478   0.050 -0.1850 -0.8346 -0.2507
14838TIP3   OH265928   4.101   3.146   3.640  0.0362 -0.2658 -0.1948
14838TIP3    H165929   4.020   3.097   3.655  0.2378 -0.6247 -0.2644
14838TIP3    H265930   4.141   3.152   3.727  0.5178 -1.1300 -0.3436
14839TIP3   OH265931   1.263   2.578   0.279 -0.4567  0.7314  0.1649
14839TIP3    H165932   1.221   2.628   0.350 -0.8669  0.2057  0.2939
14839TIP3    H265933   1.192   2.556   0.219 -0.5141 -0.8045  0.7587
14840TIP3   OH265934   2.070   4.938   0.490 -0.0206 -0.1157  0.2248
14840TIP3    H165935   2.105   5.011   0.439  0.1862 -0.6443 -0.3985
14840TIP3    H265936   2.121   4.940   0.572  1.5935 -0.9356 -0.7120
14841TIP3   OH265937   4.001   4.384  10.548  0.2043 -0.4355 -0.6889
14841TIP3    H165938   3.974   4.305  10.594  0.5523  0.5863  1.3969
14841TIP3    H265939   3.956   4.380  10.464 -1.6417 -1.7026  0.3087
14842TIP3   OH265940   0.256   0.124  15.512 -0.6750 -0.3010  0.7216
14842TIP3    H165941   0.299   0.209  15.521 -0.2340 -0.2946 -1.0974
14842TIP3    H265942   0.284   0.074  15.589  1.6663  0.1139  0.1992
14843TIP3   OH265943   0.421   3.234   4.033 -0.1960  0.2298  0.2885
14843TIP3    H165944   0.402   3.280   4.115  1.0374  1.1433  0.0902
14843TIP3    H265945   0.474   3.296   3.983  1.5445 -1.4121  0.0158
14844TIP3   OH265946   1.110   0.114   0.612 -0.0747 -0.1048  0.2699
14844TIP3    H165947   1.159   0.079   0.537 -0.4791  0.0735 -0.0787
14844TIP3    H265948   1.099   0.039   0.670 -1.7010 -0.7890 -0.8664
14845TIP3   OH265949   3.504   1.077  16.616  0.1538 -0.4438 -0.2045
14845TIP3    H165950   3.490   1.089  16.709 -2.4570 -0.3449 -0.5446
14845TIP3    H265951   3.459   1.151  16.575  0.5664 -0.9204 -1.5765
14846TIP3   OH265952   1.190   4.867   0.065 -0.2608 -0.0105  0.2391
14846TIP3    H165953   1.255   4.851  -0.004 -0.5565 -0.7622  0.1281
14846TIP3    H265954   1.214   4.953   0.100  1.9620 -1.0209  1.4586
14847TIP3   OH265955   3.401   3.941  11.116 -0.0062  0.0696 -0.1030
14847TIP3    H165956   3.328   3.955  11.055 -0.4845 -0.1441  0.4094
14847TIP3    H265957   3.479   3.939  11.060 -0.3692  0.4982 -0.6386
14848TIP3   OH265958   6.692   6.234   0.851 -0.1416 -0.3572 -0.0695
14848TIP3    H165959   6.694   6.169   0.921  1.1645 -0.8323 -0.5081
14848TIP3    H265960   6.763   6.295   0.873 -0.2795 -0.0257 -0.5299
14849TIP3   OH265961   3.772   0.349  16.844 -0.9029 -0.1037 -0.6783
14849TIP3    H165962   3.725   0.373  16.923  0.1708  0.1795 -0.1058
14849TIP3    H265963   3.827   0.425  16.825  0.3754 -0.9541 -0.5085
14850TIP3   OH265964   3.034   5.773   2.530  0.3498 -0.3333  0.1665
14850TIP3    H165965   3.048   5.867   2.538  0.1034 -0.4078  1.9600
14850TIP3    H265966   3.120   5.735   2.549  0.4121 -0.4844 -0.4028
14851TIP3   OH265967   6.210   4.039   3.081  0.4331 -0.1112 -0.2327
14851TIP3    H165968   6.266   3.962   3.074 -0.0622 -0.5038  0.0825
14851TIP3    H265969   6.217   4.081   2.995 -0.1226 -1.0814 -0.7640
14852TIP3   OH265970   2.824   3.596   6.080  0.3847  0.0200 -0.1419
14852TIP3    H165971   2.774   3.659   6.028  0.9181 -0.2622 -1.0071
14852TIP3    H265972   2.831   3.519   6.024  0.9274 -0.3052  0.3683
14853TIP3   OH265973   2.758   3.961   4.751  0.8421  0.3293  0.2958
14853TIP3    H165974   2.818   3.896   4.713  0.5215 -0.3876  0.9875
14853TIP3    H265975   2.684   3.909   4.783  0.2039  1.1282  0.1367
14854TIP3   OH265976   0.107   1.242  15.226  0.1394  0.4114 -0.3109
14854TIP3    H165977   0.046   1.316  15.223  0.7680  0.9371 -0.4703
14854TIP3    H265978   0.177   1.267  15.165 -0.1107 -0.7456 -1.1159
14855TIP3   OH265979   3.915   1.107  12.186 -0.4236 -0.3397 -0.5679
14855TIP3    H165980   3.895   1.073  12.274 -0.3874  0.0202 -0.4206
14855TIP3    H265981   3.841   1.078  12.132 -2.2674  2.4020  0.3183
14856TIP3   OH265982   3.655   6.390  12.864 -0.2738  0.2738 -0.0089
14856TIP3    H165983   3.646   6.373  12.770 -1.3513 -1.1581  0.3176
14856TIP3    H265984   3.570   6.365  12.901 -0.7054  3.0370  1.0817
14857TIP3   OH265985   1.988   1.565   5.095 -0.0050  0.5036  0.0809
14857TIP3    H165986   1.938   1.517   5.029 -1.0066  2.8527 -0.9620
14857TIP3    H265987   2.075   1.575   5.056  0.1328 -0.2092  0.1929
14858TIP3   OH265988   2.130   2.413   3.011 -0.1436  0.5383  0.3001
14858TIP3    H165989   2.211   2.458   3.034 -0.5918  1.3806  0.2880
14858TIP3    H265990   2.081   2.478   2.959 -0.0498 -0.5841 -1.2430
14859TIP3   OH265991   6.593   5.020   2.007  0.2187 -0.0710  0.4459
14859TIP3    H165992   6.683   5.002   1.980  1.1890  1.1735  2.5350
14859TIP3    H265993   6.557   5.073   1.936  1.3818  0.0041 -0.1135
14860TIP3   OH265994   6.622   4.906  12.927  0.1691 -0.0399  0.2167
14860TIP3    H165995   6.642   4.923  12.835 -0.4422 -0.4988 -0.0055
14860TIP3    H265996   6.689   4.844  12.955  0.1552 -0.1631 -0.0198
14861TIP3   OH265997   6.294   1.722  10.752  0.5710 -0.3110 -0.1986
14861TIP3    H165998   6.251   1.805  10.732  2.5756  0.9084  0.2651
14861TIP3    H265999   6.378   1.727  10.705  0.3057 -2.5630 -1.0472
14862TIP3   OH266000   0.012   0.263   1.626 -0.6333  0.5573 -0.2143
14862TIP3    H166001   0.087   0.240   1.681 -1.1955  0.1037  0.3876
14862TIP3    H266002   0.037   0.344   1.583  0.6370 -0.1618 -0.8666
14863TIP3   OH266003   3.295   6.279  12.667  0.3017  0.1078  0.4179
14863TIP3    H166004   3.357   6.328  12.613  0.4005  1.9429  2.0803
14863TIP3    H266005   3.245   6.226  12.605  1.7625  0.5799 -1.2273
14864TIP3   OH266006   5.385   3.909  10.447  0.4213 -0.6480  0.7149
14864TIP3    H166007   5.404   3.848  10.376  1.7450  0.5986 -0.0699
14864TIP3    H266008   5.301   3.880  10.482  1.3693 -3.4227  0.9646
14865TIP3   OH266009   1.991   5.476  13.428  0.0169 -0.2394  0.4076
14865TIP3    H166010   1.908   5.514  13.402  0.0461  0.4744  1.3192
14865TIP3    H266011   2.014   5.521  13.509 -0.1109 -2.4048  1.7238
14866TIP3   OH266012   0.632   6.232   1.847 -0.0013  0.8213  0.7308
14866TIP3    H166013   0.723   6.223   1.876  0.3096  1.0382 -0.1427
14866TIP3    H266014   0.581   6.186   1.914  0.6695  1.4191  1.6760
14867TIP3   OH266015   6.371   2.475   1.325  0.3017 -0.0828  0.4757
14867TIP3    H166016   6.356   2.524   1.245 -1.4736  1.9431  1.9387
14867TIP3    H266017   6.301   2.409   1.326 -0.3425  0.5954  0.8521
14868TIP3   OH266018   0.988   0.878   2.781 -0.5633  0.2870 -0.3287
14868TIP3    H166019   1.076   0.857   2.750  0.6079  2.2860  1.4407
14868TIP3    H266020   0.935   0.803   2.753  1.7921 -1.2952 -0.8802
14869TIP3   OH266021   1.576   1.662  10.963 -0.1939 -0.8457  0.0472
14869TIP3    H166022   1.669   1.666  10.987  0.0453  0.5571 -0.9666
14869TIP3    H266023   1.571   1.588  10.902  0.3098 -0.7796 -0.0841
14870TIP3   OH266024   4.270   2.376  14.981  0.3728 -0.5417  0.2820
14870TIP3    H166025   4.322   2.302  14.951  0.0005 -0.1140 -1.5006
14870TIP3    H266026   4.180   2.352  14.962  0.2811  0.5404 -0.7450
14871TIP3   OH266027   1.012   2.455   1.336  0.4631  0.2255  0.5384
14871TIP3    H166028   1.023   2.399   1.259 -0.7314  0.1563  0.3887
14871TIP3    H266029   0.995   2.393   1.408  2.1408  0.2585  0.9907
14872TIP3   OH266030   0.798   0.698  14.783 -0.3878  0.4680 -0.3940
14872TIP3    H166031   0.757   0.695  14.870  0.4077  0.2391 -0.0130
14872TIP3    H266032   0.752   0.631  14.733  0.1105 -0.4275  0.3110
14873TIP3   OH266033   1.236   0.058   1.516 -0.4628 -0.1596  0.1254
14873TIP3    H166034   1.221   0.124   1.448 -1.4195 -0.5762 -0.0796
14873TIP3    H266035   1.267  -0.019   1.469 -2.1134 -0.7931  0.0036
14874TIP3   OH266036   1.901   5.646   5.827 -0.7624 -0.2738  0.2306
14874TIP3    H166037   1.986   5.681   5.855  0.4572 -2.1694 -0.9290
14874TIP3    H266038   1.918   5.607   5.742 -2.5177 -1.7887  0.5120
14875TIP3   OH266039   6.281   5.751   6.343 -0.5835  0.8976 -0.2906
14875TIP3    H166040   6.329   5.834   6.337  0.3112  0.6131  1.7829
14875TIP3    H266041   6.348   5.684   6.327 -0.9850  0.5446 -0.5039
14876TIP3   OH266042   3.759   0.671   5.255 -0.0808  0.2210 -0.9775
14876TIP3    H166043   3.681   0.721   5.279 -0.3228 -1.3467  1.9967
14876TIP3    H266044   3.832   0.720   5.294 -0.0080 -0.2042 -0.5689
14877TIP3   OH266045   0.719   5.268   4.129 -0.1796  0.2308  0.6610
14877TIP3    H166046   0.792   5.282   4.068 -0.3973 -1.7675 -0.1591
14877TIP3    H266047   0.641   5.275   4.075 -0.4577 -0.0522  1.0251
14878TIP3   OH266048   5.059   3.832   5.841  0.0526  0.4103 -0.1403
14878TIP3    H166049   5.081   3.793   5.926  0.4979  0.6673 -0.1342
14878TIP3    H266050   5.014   3.913   5.864  0.8982  0.8903 -0.1372
14879TIP3   OH266051   1.116   4.966  15.955 -0.5955  0.4799 -0.2106
14879TIP3    H166052   1.203   4.954  15.917 -0.5324 -1.1348  0.3582
14879TIP3    H266053   1.062   4.897  15.914 -2.4051  3.1057 -2.6569
14880TIP3   OH266054   0.935   0.506  15.947  0.4341  0.8002  0.1269
14880TIP3    H166055   0.942   0.594  15.913 -2.0616  0.5818 -1.1350
14880TIP3    H266056   0.867   0.511  16.015 -0.2010 -0.2416 -0.4002
14881TIP3   OH266057   2.423   5.451  12.073  0.1495 -0.5011  0.2363
14881TIP3    H166058   2.434   5.534  12.120  0.8333 -1.6911  2.2981
14881TIP3    H266059   2.401   5.477  11.984  0.0760  1.8933  0.8795
14882TIP3   OH266060   2.643   5.775  10.789  0.2528  0.6032 -0.0882
14882TIP3    H166061   2.605   5.748  10.873  1.1356 -1.1932 -0.2142
14882TIP3    H266062   2.617   5.866  10.779  1.2895  1.3337  2.8369
14883TIP3   OH266063   5.322   2.903   6.662 -0.0625  0.0321  0.0022
14883TIP3    H166064   5.227   2.912   6.656 -0.1013  0.1170  0.6776
14883TIP3    H266065   5.353   2.989   6.692  0.0887 -0.3815  1.0910
14884TIP3   OH266066   3.561   2.632  17.105 -0.1849 -0.5729  0.5108
14884TIP3    H166067   3.471   2.658  17.086  0.0360  0.0769  0.3253
14884TIP3    H266068   3.585   2.573  17.034 -0.0651  0.2061 -0.1158
14885TIP3   OH266069   6.555   0.778  16.595  0.3009  0.0776 -0.5207
14885TIP3    H166070   6.473   0.767  16.643  1.2498  0.6144  1.3450
14885TIP3    H266071   6.530   0.771  16.503 -1.9921  1.2359 -0.0655
14886TIP3   OH266072   4.150   0.581   1.122  0.3350 -0.0087  0.0311
14886TIP3    H166073   4.084   0.515   1.103  1.3912 -1.0787 -0.0735
14886TIP3    H266074   4.101   0.662   1.135 -1.1021 -1.0030  1.1882
14887TIP3   OH266075   1.567   3.987   3.848 -0.1615 -0.1502 -0.1707
14887TIP3    H166076   1.625   4.023   3.915 -1.4182  1.7262 -0.0178
14887TIP3    H266077   1.522   4.063   3.812  0.2889 -1.1083 -3.0200
14888TIP3   OH266078   4.245   4.823  17.034 -0.0347 -0.0104 -0.3095
14888TIP3    H166079   4.326   4.773  17.049 -1.3582 -2.3080 -0.3150
14888TIP3    H266080   4.191   4.805  17.111  0.0008  2.8133  0.4677
14889TIP3   OH266081   2.085   1.645   2.776  0.0692  0.7997 -0.1557
14889TIP3    H166082   2.099   1.647   2.681 -0.3385 -0.9944 -0.2897
14889TIP3    H266083   2.100   1.735   2.804  0.6216  1.2814 -1.8589
14890TIP3   OH266084   4.092   1.023  12.730 -0.5394  0.2533 -0.3086
14890TIP3    H166085   4.081   1.089  12.661  0.4137 -1.2126 -1.9075
14890TIP3    H266086   4.044   0.947  12.698 -2.1533  0.2950  1.8094
14891TIP3   OH266087   2.322   3.646   0.631  0.2562  0.1934 -0.1704
14891TIP3    H166088   2.416   3.655   0.646  0.1376 -1.0813  1.6484
14891TIP3    H266089   2.283   3.721   0.675  0.3983  0.5194 -0.5997
14892TIP3   OH266090   4.644   5.906   0.012  0.5192 -0.4925  0.2490
14892TIP3    H166091   4.668   5.854   0.089  0.6814 -1.5433 -0.4922
14892TIP3    H266092   4.708   5.977   0.011 -0.0067  0.0318  1.5529
14893TIP3   OH266093   4.489   5.605   1.923 -0.1648  0.2899 -0.1639
14893TIP3    H166094   4.437   5.527   1.942 -0.6254  0.7824  0.6865
14893TIP3    H266095   4.571   5.571   1.887  0.8791 -0.8402  2.8838
14894TIP3   OH266096   0.772   5.868   2.357  0.0022 -0.0720  0.8408
14894TIP3    H166097   0.862   5.861   2.388 -0.4870 -0.1928  2.3705
14894TIP3    H266098   0.719   5.835   2.431 -1.2531 -0.7351 -0.3011
14895TIP3   OH266099   3.146   2.785   6.791 -0.2222 -0.1743 -0.4455
14895TIP3    H166100   3.187   2.871   6.781 -0.8495  0.3957  1.4006
14895TIP3    H266101   3.118   2.761   6.703  0.7522  1.1100 -1.1387
14896TIP3   OH266102   1.476   5.456  11.155  0.0428 -0.1192  0.4358
14896TIP3    H166103   1.547   5.519  11.162  1.5240 -1.1663 -2.8749
14896TIP3    H266104   1.429   5.481  11.075 -0.3804 -2.1519 -0.0197
14897TIP3   OH266105   4.575   6.483  11.793 -0.0886  0.0438  0.1739
14897TIP3    H166106   4.569   6.393  11.824 -0.7023 -0.1962 -0.6094
14897TIP3    H266107   4.562   6.477  11.698  0.1321  0.9242  0.0792
14898TIP3   OH266108   1.209   0.708   2.929 -0.1835  0.2333 -0.1951
14898TIP3    H166109   1.283   0.646   2.926  0.6882  1.1752  0.8677
14898TIP3    H266110   1.229   0.772   2.861 -0.4719 -0.0062 -0.5020
14899TIP3   OH266111   6.502   6.639  16.675 -0.0980  0.4284  0.0351
14899TIP3    H166112   6.517   6.730  16.700  2.7052 -0.2465  1.2379
14899TIP3    H266113   6.585   6.611  16.637 -1.2119 -1.3727 -1.1916
14900TIP3   OH266114   5.257   5.024   5.447  0.1664 -0.6656 -0.1249
14900TIP3    H166115   5.213   4.980   5.374  1.7606  0.9752 -2.1965
14900TIP3    H266116   5.260   4.958   5.516  0.1029 -2.9334 -2.1356
14901TIP3   OH266117   6.159   4.675   4.358  0.3665  0.2966  0.0350
14901TIP3    H166118   6.160   4.668   4.453 -0.4364 -1.2832 -0.0405
14901TIP3    H266119   6.177   4.767   4.340 -2.8604  1.4022  1.8218
14902TIP3   OH266120   5.894   3.137  11.980  0.3417  0.0482 -0.6409
14902TIP3    H166121   5.828   3.131  11.911 -0.4156  0.3133  0.0395
14902TIP3    H266122   5.977   3.121  11.935 -0.2352 -0.9484 -1.3964
14903TIP3   OH266123   1.602   2.266   4.403  0.2764  0.1659 -0.2286
14903TIP3    H166124   1.585   2.345   4.454  0.2548  0.3044 -0.4480
14903TIP3    H266125   1.593   2.194   4.466 -0.8457  0.2534 -0.2652
14904TIP3   OH266126   5.057   3.768  11.053  0.1422 -0.0068  0.0929
14904TIP3    H166127   5.067   3.706  11.125  0.3783  1.4855  1.4060
14904TIP3    H266128   5.133   3.826  11.061  1.5365 -1.2195 -2.8942
14905TIP3   OH266129   3.042   1.234   2.091 -0.4230 -0.1691 -0.3253
14905TIP3    H166130   3.134   1.215   2.109 -0.8252 -1.7668  0.2307
14905TIP3    H266131   3.023   1.187   2.010 -0.9006 -0.3530 -0.1102
14906TIP3   OH266132   3.370   1.502  16.102 -0.5977 -0.4339  0.3627
14906TIP3    H166133   3.332   1.535  16.021  1.2246 -0.7311 -0.6633
14906TIP3    H266134   3.380   1.408  16.088  0.8214 -0.3172  0.4335
14907TIP3   OH266135   6.641   6.465  11.348 -0.1281 -0.5027 -0.3371
14907TIP3    H166136   6.649   6.380  11.392 -1.2871 -1.1400 -1.2897
14907TIP3    H266137   6.573   6.511  11.397  0.6389 -0.0208  0.3002
14908TIP3   OH266138   6.184   4.440   3.774 -0.0067 -0.5560  0.2347
14908TIP3    H166139   6.243   4.389   3.830 -0.2101 -0.3328  0.6554
14908TIP3    H266140   6.226   4.439   3.688  1.9017  1.6196  1.0348
14909TIP3   OH266141   3.481   6.074  16.135  0.0849  0.2071  0.1603
14909TIP3    H166142   3.402   6.081  16.189  0.7429 -0.7398  1.2656
14909TIP3    H266143   3.539   6.017  16.184  0.9109 -0.2645 -1.3164
14910TIP3   OH266144   2.254   4.793  10.920 -0.2009  0.1484  0.0510
14910TIP3    H166145   2.198   4.764  10.992  1.7711  1.5176  2.2669
14910TIP3    H266146   2.338   4.751  10.936  0.8316  1.9673 -0.3179
14911TIP3   OH266147   0.808   3.749  14.780 -0.3499  0.7968  0.0875
14911TIP3    H166148   0.884   3.776  14.831 -0.1622  0.8754 -0.2322
14911TIP3    H266149   0.735   3.800  14.817 -0.6080 -0.5729  1.5877
14912TIP3   OH266150   2.178   1.500  15.664  0.7637  0.6864  0.1200
14912TIP3    H166151   2.190   1.405  15.661 -3.3789 -0.0111 -0.6777
14912TIP3    H266152   2.187   1.524  15.756  0.7754 -0.6931  0.4877
14913TIP3   OH266153   0.460   6.718   5.721  0.0919 -0.2723 -0.8293
14913TIP3    H166154   0.531   6.759   5.673  0.9483 -1.4597 -0.6356
14913TIP3    H266155   0.391   6.784   5.723  0.6342  0.3903 -2.2779
14914TIP3   OH266156   2.913   0.068   4.653 -0.2133 -0.0682  0.6188
14914TIP3    H166157   2.829   0.109   4.635 -0.6711 -0.8847  0.8407
14914TIP3    H266158   2.976   0.119   4.603 -1.2378 -1.4249 -2.2388
14915TIP3   OH266159   4.193   1.228   2.409 -0.1291  0.1652 -0.6458
14915TIP3    H166160   4.229   1.230   2.320  0.5079  1.9099 -0.3822
14915TIP3    H266161   4.230   1.305   2.452 -0.3225 -0.7106  1.1951
14916TIP3   OH266162   3.576   3.606   0.931  0.2397  0.1741 -0.6043
14916TIP3    H166163   3.671   3.616   0.944  0.3257 -0.6952 -0.5043
14916TIP3    H266164   3.544   3.573   1.015 -0.2912  1.2961 -0.3583
14917TIP3   OH266165   5.003   4.509   5.054  0.3048  0.0990  0.0735
14917TIP3    H166166   4.928   4.474   5.006  0.4574 -1.1518  0.6942
14917TIP3    H266167   4.993   4.604   5.049 -2.0208 -0.0045  1.2113
14918TIP3   OH266168   4.854   2.443  12.875  0.2365  0.1932 -0.3724
14918TIP3    H166169   4.942   2.460  12.841  0.1786  0.1657 -0.5392
14918TIP3    H266170   4.849   2.493  12.956  0.5300 -0.0794 -0.1812
14919TIP3   OH266171   6.577   3.616  13.351  0.2157  0.1449  0.1524
14919TIP3    H166172   6.617   3.575  13.428  0.5764  0.8362  0.3354
14919TIP3    H266173   6.649   3.662  13.308 -0.4859  2.0528  0.9017
14920TIP3   OH266174   4.858   2.143   2.949 -0.3750  0.3094 -0.2034
14920TIP3    H166175   4.889   2.164   3.037 -1.5691 -1.8523  0.8157
14920TIP3    H266176   4.936   2.113   2.902  0.1503  0.8478  0.3081
14921TIP3   OH266177   6.528   5.133   0.423 -0.3634 -0.3058  0.1890
14921TIP3    H166178   6.558   5.057   0.373 -1.1390 -0.4550 -0.0499
14921TIP3    H266179   6.595   5.144   0.490 -1.0524 -2.2335  1.2867
14922TIP3   OH266180   3.521   2.290  16.192  0.0017  0.1008 -0.1777
14922TIP3    H166181   3.479   2.204  16.191  0.8052 -0.3181  0.4146
14922TIP3    H266182   3.454   2.349  16.224 -0.3060 -0.4629  0.2491
14923TIP3   OH266183   5.562   5.590  13.209  0.1057 -0.0129  0.3007
14923TIP3    H166184   5.603   5.571  13.294  1.7732  0.5594 -0.3305
14923TIP3    H266185   5.560   5.506  13.164  1.2625  0.0512  0.0884
14924TIP3   OH266186   5.449   2.437  15.562 -0.0003 -0.6168 -0.3970
14924TIP3    H166187   5.357   2.455  15.540 -0.1503 -1.0012 -0.0872
14924TIP3    H266188   5.479   2.378  15.492 -0.2138 -1.1041 -0.0853
14925TIP3   OH266189   1.745   0.873   4.086 -0.2947 -0.3449 -0.3972
14925TIP3    H166190   1.800   0.939   4.127  0.6120 -2.1012  1.3843
14925TIP3    H266191   1.672   0.862   4.146  0.6341 -2.3716  0.4726
14926TIP3   OH266192   5.294   1.270   5.250 -0.9402 -0.7762  0.1856
14926TIP3    H166193   5.344   1.352   5.242 -1.1472 -0.6113  0.5265
14926TIP3    H266194   5.321   1.234   5.334 -1.3688 -0.7026  0.3569
14927TIP3   OH266195   3.826   3.601   2.896  0.0128  0.4665  0.2187
14927TIP3    H166196   3.769   3.676   2.912  1.2502  1.2992  0.9405
14927TIP3    H266197   3.891   3.605   2.967  1.0279 -0.3773 -0.6220
14928TIP3   OH266198   3.122   3.109  11.937 -0.7957 -0.1677  0.0484
14928TIP3    H166199   3.150   3.117  11.846  0.3945 -2.6894  0.1036
14928TIP3    H266200   3.190   3.153  11.987 -0.5397 -0.2838 -0.1970
14929TIP3   OH266201   1.547   6.692  17.012  0.4101 -0.4186 -0.2825
14929TIP3    H166202   1.578   6.612  16.970  0.7842 -1.2332  1.4451
14929TIP3    H266203   1.627   6.742  17.030  0.4075 -0.7678  0.7641
14930TIP3   OH266204   5.182   1.315   2.876 -0.5032  0.0715 -0.2695
14930TIP3    H166205   5.217   1.388   2.825  1.3210 -1.7452 -1.8625
14930TIP3    H266206   5.097   1.296   2.836 -0.7313  0.9433 -0.2153
14931TIP3   OH266207   1.141   4.914   1.330  0.1761  0.1990 -0.4625
14931TIP3    H166208   1.197   4.867   1.267 -1.4551 -0.1313 -1.7358
14931TIP3    H266209   1.190   4.910   1.412  0.1478 -3.8891 -0.4153
14932TIP3   OH266210   1.430   4.817   6.191 -0.9095 -0.3362  0.0183
14932TIP3    H166211   1.446   4.907   6.163  0.1483 -0.0089  1.4896
14932TIP3    H266212   1.366   4.825   6.261  1.7498 -0.2055  2.6660
14933TIP3   OH266213   2.023   5.735  15.654 -1.0760  0.4372  0.2721
14933TIP3    H166214   2.071   5.818  15.648 -0.9663  0.3135 -0.9270
14933TIP3    H266215   1.941   5.758  15.698 -1.1144  1.2243 -0.1835
14934TIP3   OH266216   4.391   5.149   0.836  0.2556 -0.0261 -0.3260
14934TIP3    H166217   4.428   5.108   0.758  1.1524  1.4768 -0.7268
14934TIP3    H266218   4.330   5.214   0.802  0.5629  0.5586  0.2166
14935TIP3   OH266219   0.925   0.595  14.369 -0.9212 -0.4117 -0.7025
14935TIP3    H166220   0.848   0.645  14.343 -0.8155 -0.1087 -0.4463
14935TIP3    H266221   0.891   0.508  14.388 -1.5797  0.2398  1.4310
14936TIP3   OH266222   5.137   0.650   3.818 -0.5484  0.0518  0.5594
14936TIP3    H166223   5.059   0.611   3.856 -1.5580  0.3449 -1.1048
14936TIP3    H266224   5.117   0.659   3.725  1.1984  0.7995  0.2050
14937TIP3   OH266225   3.265   5.922   4.629  0.1568  0.5501 -0.0314
14937TIP3    H166226   3.258   5.928   4.534 -0.0592  1.2780  0.0200
14937TIP3    H266227   3.323   5.995   4.653  1.7783 -0.7565  0.2338
14938TIP3   OH266228   0.200   0.485  12.189  0.2907 -0.0541 -0.1229
14938TIP3    H166229   0.205   0.489  12.285  0.3065 -0.6826 -0.0942
14938TIP3    H266230   0.110   0.507  12.168  0.1780 -0.3496  0.0587
14939TIP3   OH266231   2.079   1.769  16.627 -0.1785  0.1019 -0.6608
14939TIP3    H166232   2.058   1.692  16.681  1.9632 -0.0965 -0.0244
14939TIP3    H266233   2.077   1.842  16.689  1.0699  0.0547 -0.5522
14940TIP3   OH266234   1.845   3.996   3.788 -0.5015 -0.1426 -0.1187
14940TIP3    H166235   1.771   3.939   3.810 -0.5705 -0.0452 -0.0984
14940TIP3    H266236   1.805   4.082   3.773 -0.4654 -0.2233 -0.7006
14941TIP3   OH266237   4.822   1.060  17.008 -0.3129 -0.0886  0.7766
14941TIP3    H166238   4.800   1.064  16.915 -0.0749 -0.5367  0.6999
14941TIP3    H266239   4.873   1.139  17.024  0.9510 -0.7657  0.1777
14942TIP3   OH266240   6.712   3.198  16.747  0.0546 -0.3064 -0.3301
14942TIP3    H166241   6.769   3.259  16.699  1.1294  0.1406  1.4035
14942TIP3    H266242   6.628   3.204  16.703 -0.8640  4.7934  1.4568
14943TIP3   OH266243   2.846   6.707   2.409  0.0472 -0.3066 -0.1905
14943TIP3    H166244   2.804   6.719   2.324  0.1049 -0.1600 -0.1979
14943TIP3    H266245   2.939   6.714   2.391  0.1836 -2.1665 -0.4439
14944TIP3   OH266246   3.604   3.497   0.057  0.0518 -0.5313  0.3345
14944TIP3    H166247   3.598   3.454   0.143 -0.0952 -0.3202  0.4299
14944TIP3    H266248   3.689   3.470   0.023  0.9612  0.9035  1.3601
14945TIP3   OH266249   5.892   3.833  10.528  0.8186 -0.6567 -0.2003
14945TIP3    H166250   5.830   3.800  10.593  0.8447 -0.7330 -0.2135
14945TIP3    H266251   5.942   3.900  10.574  0.8701 -0.7448 -0.1289
14946TIP3   OH266252   1.955   4.588  13.219 -0.3250  0.2565  0.0118
14946TIP3    H166253   1.963   4.529  13.144  2.0158 -0.1835  0.5439
14946TIP3    H266254   1.860   4.593  13.235 -0.6705 -4.0004  0.4240
14947TIP3   OH266255   0.426   6.554   0.699  0.0922 -0.4144 -0.1044
14947TIP3    H166256   0.402   6.646   0.686  0.6870 -0.3609 -0.8915
14947TIP3    H266257   0.403   6.511   0.616  0.7562 -0.7700 -0.1131
14948TIP3   OH266258   4.736   2.591  13.111 -0.8974  0.3505 -0.4383
14948TIP3    H166259   4.771   2.579  13.199  0.6826  0.0718 -1.0832
14948TIP3    H266260   4.644   2.616  13.125 -0.7172  0.1444  1.2668
14949TIP3   OH266261   3.319   5.442   0.687 -0.3593 -0.0013  0.1410
14949TIP3    H166262   3.226   5.450   0.707 -0.0907  0.5077  1.2874
14949TIP3    H266263   3.360   5.421   0.771  0.6555  0.6777 -0.1631
14950TIP3   OH266264   1.965   3.221  15.361 -0.8534 -0.0377  0.8849
14950TIP3    H166265   1.910   3.246  15.287 -1.2291  0.4727  1.3260
14950TIP3    H266266   2.053   3.211  15.324 -1.4903 -2.5166 -0.1626
14951TIP3   OH266267   1.078   3.898   0.296 -0.3934 -0.3964 -0.3926
14951TIP3    H166268   1.160   3.868   0.338  0.0281  0.8705 -0.2785
14951TIP3    H266269   1.106   3.930   0.210  0.3665  5.3311  1.5314
14952TIP3   OH266270   5.182   3.812   5.587 -0.3075  0.1579 -0.2786
14952TIP3    H166271   5.113   3.824   5.652  0.7209  0.5909  0.7662
14952TIP3    H266272   5.244   3.882   5.605  1.3783 -1.3527  0.0734
14953TIP3   OH266273   6.398   4.163  13.370  0.2754 -0.0328 -0.5132
14953TIP3    H166274   6.396   4.196  13.460  1.6243 -1.5067  0.0956
14953TIP3    H266275   6.311   4.125  13.357 -0.6375  1.9551 -0.5765
14954TIP3   OH266276   3.181   1.638   2.645  0.3292  0.0188  0.2943
14954TIP3    H166277   3.252   1.647   2.581 -0.9527 -1.8418 -1.5185
14954TIP3    H266278   3.222   1.598   2.722  1.4615  0.0705 -0.2679
14955TIP3   OH266279   3.079   0.126   4.139 -0.8582 -0.3555  0.0852
14955TIP3    H166280   3.146   0.194   4.132 -0.7229 -0.5713 -0.8867
14955TIP3    H266281   3.019   0.158   4.206 -0.9516  0.8493 -0.5565
14956TIP3   OH266282   2.537   0.097  15.267 -0.2420  0.1552  0.3559
14956TIP3    H166283   2.505   0.007  15.273  3.8919 -1.6483 -0.7869
14956TIP3    H266284   2.505   0.127  15.181  0.7200 -1.3934 -0.5929
14957TIP3   OH266285   1.653   1.818   5.672 -0.5738  0.3616 -0.7770
14957TIP3    H166286   1.638   1.907   5.702 -1.0316  0.1381 -0.3153
14957TIP3    H266287   1.724   1.786   5.727  0.0289  0.6511 -1.3801
14958TIP3   OH266288   3.393   5.047  14.239 -0.4957  0.2298 -0.2097
14958TIP3    H166289   3.376   5.095  14.321 -0.8913  1.9920 -1.2731
14958TIP3    H266290   3.345   4.965  14.249  0.5864 -0.2443  1.8775
14959TIP3   OH266291   4.476   0.266   3.260 -0.0039 -0.3863  0.3457
14959TIP3    H166292   4.463   0.361   3.257 -0.5794 -0.4769 -0.4207
14959TIP3    H266293   4.548   0.253   3.321  1.6806  0.7224 -1.3229
14960TIP3   OH266294   1.949   2.551   1.399  0.1964  0.4872 -0.0744
14960TIP3    H166295   1.916   2.468   1.436  0.9293  0.1032 -0.2510
14960TIP3    H266296   2.044   2.544   1.408  0.3984  0.4658 -1.8485
14961TIP3   OH266297   5.780   2.823  14.851  0.4179  0.2480 -0.1186
14961TIP3    H166298   5.688   2.848  14.862  0.2664 -1.1683  2.6187
14961TIP3    H266299   5.828   2.888  14.902  0.5988 -0.9111  1.2445
14962TIP3   OH266300   1.253   4.480   6.486  0.2929 -0.2206  0.2690
14962TIP3    H166301   1.255   4.563   6.534 -0.4283  0.8386 -1.4444
14962TIP3    H266302   1.257   4.413   6.555  0.1204  1.2145  1.7481
14963TIP3   OH266303   0.276   6.169   2.415 -0.1310  0.2902 -0.3891
14963TIP3    H166304   0.292   6.084   2.454  0.3957 -0.3749 -1.9631
14963TIP3    H266305   0.358   6.217   2.424 -0.0645  0.2023 -0.5313
14964TIP3   OH266306   6.397   2.400  10.832  0.5366 -0.0999 -0.3249
14964TIP3    H166307   6.406   2.311  10.867  1.9152  0.2935  0.4251
14964TIP3    H266308   6.472   2.410  10.774 -0.7261 -0.0966 -2.0092
14965TIP3   OH266309   5.426   1.109  16.823 -0.6682  0.0396 -0.3591
14965TIP3    H166310   5.334   1.112  16.847 -0.8730  2.7496 -1.1874
14965TIP3    H266311   5.456   1.200  16.827  2.2222 -0.8333  0.7020
14966TIP3   OH266312   5.396   2.254   4.668 -0.0648 -0.0093  0.2654
14966TIP3    H166313   5.364   2.169   4.696 -1.6513  0.0547 -1.1253
14966TIP3    H266314   5.318   2.310   4.668  0.1152  0.4139 -2.4618
14967TIP3   OH266315   1.732   2.666   2.587 -0.6091  0.4832  0.1672
14967TIP3    H166316   1.783   2.605   2.641 -1.0265 -0.4386 -0.4631
14967TIP3    H266317   1.798   2.723   2.547  0.2254 -2.0227 -2.3480
14968TIP3   OH266318   1.880   6.317   1.315 -0.3175 -0.2307  0.1489
14968TIP3    H166319   1.880   6.352   1.405 -1.5484 -0.2491  0.1731
14968TIP3    H266320   1.971   6.289   1.300 -0.2214 -0.8134  1.6224
14969TIP3   OH266321   3.525   2.133  15.940  0.2158 -0.5759 -0.0981
14969TIP3    H166322   3.561   2.215  15.972  0.1821 -0.2963 -0.7624
14969TIP3    H266323   3.440   2.156  15.904  0.0095 -0.9813  0.1203
14970TIP3   OH266324   4.293   6.522  12.520 -0.1052  0.4593 -0.1927
14970TIP3    H166325   4.202   6.506  12.541 -0.6051  1.8654 -1.1632
14970TIP3    H266326   4.333   6.548  12.603 -0.0941 -2.0279  0.6492
14971TIP3   OH266327   2.798   6.046  15.153 -0.0385 -0.6565 -0.2400
14971TIP3    H166328   2.765   6.102  15.084 -0.9415 -0.1554  0.5810
14971TIP3    H266329   2.892   6.067  15.158  0.1130 -0.9464 -1.5158
14972TIP3   OH266330   0.998   2.883  14.232 -0.1670  0.2456  0.0627
14972TIP3    H166331   0.946   2.934  14.169  1.9014  1.4257 -0.7876
14972TIP3    H266332   1.047   2.949  14.281  1.0929 -0.8277  0.3133
14973TIP3   OH266333   5.301   6.600  12.380 -0.3634 -0.0309  0.7320
14973TIP3    H166334   5.326   6.594  12.473  1.1046  0.7002  0.4142
14973TIP3    H266335   5.245   6.524  12.366  0.9575 -1.2613  1.7543
14974TIP3   OH266336   1.325   2.992  15.026 -0.1725 -0.5644  0.4768
14974TIP3    H166337   1.337   2.897  15.020 -1.1106 -0.8211  2.1123
14974TIP3    H266338   1.231   3.005  15.020 -0.0039  0.3490 -0.4086
14975TIP3   OH266339   4.589   5.959  13.752 -0.2146  0.2562 -0.2456
14975TIP3    H166340   4.644   5.917  13.686 -0.3041  0.9055 -0.7429
14975TIP3    H266341   4.585   6.051  13.725 -0.0519  0.5820  0.8019
14976TIP3   OH266342   0.046   5.383  14.741  0.4761 -0.6024 -0.1018
14976TIP3    H166343  -0.012   5.381  14.665  1.1661  0.9318 -0.7047
14976TIP3    H266344   0.028   5.467  14.783  0.5962 -1.1373  1.0520
14977TIP3   OH266345   0.411   4.052   2.821  0.0364 -0.8241 -0.1332
14977TIP3    H166346   0.336   4.006   2.859 -0.5615  1.0117  1.0282
14977TIP3    H266347   0.487   4.014   2.866 -0.5665  0.4154  2.0813
14978TIP3   OH266348   1.969   1.934   5.819  0.0799  0.2616  0.0552
14978TIP3    H166349   1.993   1.850   5.860 -2.2328 -1.2529 -1.4542
14978TIP3    H266350   1.881   1.953   5.852  0.0390  1.4109 -0.6570
14979TIP3   OH266351   3.397   3.195  13.948  0.4809 -0.6304  0.5372
14979TIP3    H166352   3.366   3.234  14.030 -0.1830  0.7308 -0.3265
14979TIP3    H266353   3.492   3.199  13.954  0.4720  2.3209 -0.0031
14980TIP3   OH266354   1.474   6.581   5.541 -0.5796 -0.6172  0.2223
14980TIP3    H166355   1.555   6.586   5.592  0.2638  0.4865 -1.1750
14980TIP3    H266356   1.413   6.533   5.598  0.9775 -1.3018  1.3813
14981TIP3   OH266357   1.712   2.869   3.632  0.2695  0.0031 -0.2998
14981TIP3    H166358   1.749   2.957   3.641 -1.0804  0.4548  1.4657
14981TIP3    H266359   1.697   2.840   3.722  0.3982 -1.9212 -0.8596
14982TIP3   OH266360   2.782   4.060  12.207 -0.2202 -0.2584  0.1905
14982TIP3    H166361   2.844   4.027  12.272  1.4720  2.9412  0.4319
14982TIP3    H266362   2.713   4.103  12.258  0.6803  1.5344  0.0056
14983TIP3   OH266363   3.348   0.621  11.432  0.1119 -0.0435 -0.6617
14983TIP3    H166364   3.318   0.641  11.521 -0.1092 -0.9782 -0.5183
14983TIP3    H266365   3.271   0.584  11.389  0.5175 -0.6107 -0.9079
14984TIP3   OH266366   4.983   3.353   5.376  0.4548  0.2465 -0.7824
14984TIP3    H166367   4.931   3.278   5.405  0.3724  0.5120 -0.2297
14984TIP3    H266368   4.928   3.395   5.310 -0.8672  1.5342  1.0252
14985TIP3   OH266369   5.128   0.519   0.224  0.2617 -0.1522  0.5822
14985TIP3    H166370   5.161   0.433   0.248  0.9583  0.3231  1.3700
14985TIP3    H266371   5.148   0.575   0.299 -2.3977  0.1731  1.1621
14986TIP3   OH266372   6.449   4.618   2.077 -0.3860  0.8141 -0.6933
14986TIP3    H166373   6.450   4.562   1.999 -0.4732  1.1938 -0.9764
14986TIP3    H266374   6.450   4.558   2.151 -0.1438  0.4476 -0.9903
14987TIP3   OH266375   3.719   6.540  11.761  0.0592  0.2129  0.0255
14987TIP3    H166376   3.655   6.470  11.777 -0.7884  1.3942  2.3487
14987TIP3    H266377   3.747   6.567  11.849  1.3377  1.9236 -0.8464
14988TIP3   OH266378   5.094   2.664  10.462  0.1606  0.2856  0.1236
14988TIP3    H166379   5.013   2.679  10.414  0.2495  2.6326  0.5556
14988TIP3    H266380   5.157   2.724  10.422  1.3296 -0.5795  0.6115
14989TIP3   OH266381   5.061   6.525   3.964 -0.1368 -0.0127 -0.0239
14989TIP3    H166382   5.062   6.557   3.874 -0.2260  1.0101  0.3273
14989TIP3    H266383   4.970   6.533   3.991 -0.2653 -1.0844 -0.0962
14990TIP3   OH266384   6.309   3.989   3.838  0.1516 -0.6479  0.1659
14990TIP3    H166385   6.388   3.963   3.790  0.0840  0.8417 -0.8379
14990TIP3    H266386   6.270   3.907   3.867  1.3022 -1.4868 -0.5663
14991TIP3   OH266387   5.089   2.814  11.429  0.2708  0.1493 -0.5088
14991TIP3    H166388   5.095   2.896  11.380  1.0885 -0.3271 -1.2295
14991TIP3    H266389   5.171   2.810  11.479 -0.7540  0.8696  1.3485
14992TIP3   OH266390   0.443   4.651  12.167 -0.1404  0.1914 -0.2001
14992TIP3    H166391   0.426   4.563  12.198 -1.0439  0.0779 -0.9768
14992TIP3    H266392   0.360   4.697  12.178  0.5450  1.2128  1.0069
14993TIP3   OH266393   2.393   5.105  10.512 -0.2580  0.1034 -0.0341
14993TIP3    H166394   2.393   5.046  10.437  0.9203  0.6545 -0.4911
14993TIP3    H266395   2.476   5.088  10.557 -2.1642 -2.4066  2.9768
14994TIP3   OH266396   4.290   2.752  12.255  0.4395 -0.6146  0.4467
14994TIP3    H166397   4.385   2.741  12.257  0.4804 -0.3017  0.3457
14994TIP3    H266398   4.255   2.663  12.256  0.7392 -0.7366  0.1783
14995TIP3   OH266399   5.785   4.552  10.662  0.4396  0.3782  0.0395
14995TIP3    H166400   5.836   4.514  10.590 -0.4888  0.6426 -0.7735
14995TIP3    H266401   5.713   4.491  10.676 -1.0362  1.7354 -1.2496
14996TIP3   OH266402   0.327   6.754  14.633 -0.8713 -0.1718  0.1954
14996TIP3    H166403   0.347   6.816  14.703  1.2047 -2.6671  1.9896
14996TIP3    H266404   0.378   6.786  14.558 -0.3335  0.6513  0.8949
14997TIP3   OH266405   2.320   2.959   0.197  0.3227  0.0918  0.3177
14997TIP3    H166406   2.334   2.899   0.125 -0.6119 -1.7248  1.5719
14997TIP3    H266407   2.407   2.976   0.233  0.7648  0.8330 -1.0530
14998TIP3   OH266408   6.058   1.186  15.558 -0.0895 -0.6637  0.3344
14998TIP3    H166409   5.997   1.227  15.498  0.7129  1.3905  0.8532
14998TIP3    H266410   6.091   1.110  15.511 -0.4175  0.1813 -1.3235
14999TIP3   OH266411   4.540   3.975  15.001  0.4041  0.1711 -0.4881
14999TIP3    H166412   4.447   3.988  15.021  0.6114  0.6486  0.1712
14999TIP3    H266413   4.579   4.062  15.012  0.7129  0.2623 -2.0056
15000TIP3   OH266414   4.329   1.668  12.411  0.2088 -0.0473 -0.0832
15000TIP3    H166415   4.363   1.584  12.443  1.2327 -0.1487 -1.3207
15000TIP3    H266416   4.235   1.655  12.406  0.2996 -0.9425  0.2522
15001TIP3   OH266417   6.335   3.808   4.155 -0.3040  0.3305 -0.2257
15001TIP3    H166418   6.289   3.743   4.209  0.7922  0.0970  0.4461
15001TIP3    H266419   6.367   3.873   4.217  2.8419 -1.0474 -0.2534
15002TIP3   OH266420   6.101   4.444  16.599  0.2661  0.1221 -0.3995
15002TIP3    H166421   6.052   4.511  16.646 -2.3439 -0.6231 -1.8666
15002TIP3    H266422   6.166   4.493  16.549  0.6415  1.2207  1.0860
15003TIP3   OH266423   6.196   0.077   0.228 -0.4745  0.2722 -0.2487
15003TIP3    H166424   6.158   0.155   0.186  0.9320  0.9148 -0.4203
15003TIP3    H266425   6.131   0.009   0.215 -1.1900  1.0967 -1.2663
15004TIP3   OH266426   0.322   3.289  15.188  0.4385  0.1227  0.2553
15004TIP3    H166427   0.341   3.303  15.280 -1.2963  1.8321  0.3916
15004TIP3    H266428   0.231   3.259  15.186  1.2448 -2.5392 -0.7513
15005TIP3   OH266429   5.638   3.658  16.484  0.3836  0.0595 -0.0936
15005TIP3    H166430   5.644   3.634  16.392 -0.2864 -0.9001  0.0938
15005TIP3    H266431   5.565   3.606  16.517  0.7394  0.2402  1.0203
15006TIP3   OH266432   0.497   2.460   0.375  0.1119  0.1318 -0.5073
15006TIP3    H166433   0.478   2.424   0.288 -0.3881  1.4813 -0.9816
15006TIP3    H266434   0.589   2.486   0.371  0.6899 -1.6629  0.0744
15007TIP3   OH266435   4.562   5.567  13.217 -0.3321 -0.0195 -0.1701
15007TIP3    H166436   4.491   5.538  13.161 -1.0208  1.9762 -0.4137
15007TIP3    H266437   4.642   5.549  13.167 -0.8397  0.1865 -1.0752
15008TIP3   OH266438   5.990   1.266   4.577 -0.2626  0.8159 -0.1928
15008TIP3    H166439   6.037   1.194   4.620  1.0365  1.3843 -0.6122
15008TIP3    H266440   6.046   1.343   4.591 -1.7711  1.8213  0.5046
15009TIP3   OH266441   0.384   3.043   2.027  0.5997  0.4667 -0.7392
15009TIP3    H166442   0.400   3.124   2.074 -1.0963  0.7203 -0.5464
15009TIP3    H266443   0.326   3.068   1.955 -0.4065 -0.6445 -0.3447
15010TIP3   OH266444   3.844   4.213   3.075  0.7115  0.4366 -0.4355
15010TIP3    H166445   3.757   4.181   3.053  0.6560  0.4212 -0.1926
15010TIP3    H266446   3.830   4.275   3.147  1.0513 -0.6290  0.5695
15011TIP3   OH266447   5.030   4.554  15.970  0.5901  0.6512  0.1839
15011TIP3    H166448   4.987   4.472  15.994  2.2466  0.4829  3.0784
15011TIP3    H266449   5.021   4.559  15.875 -1.8370 -1.5330  0.1938
15012TIP3   OH266450   4.240   6.589   3.438 -0.0886 -0.0331  0.2300
15012TIP3    H166451   4.241   6.671   3.389  0.6743  0.3167  0.7935
15012TIP3    H266452   4.310   6.537   3.399 -0.9953 -0.6922 -0.5528
15013TIP3   OH266453   6.565   5.396  12.479  0.3124  0.1828  0.3436
15013TIP3    H166454   6.604   5.423  12.563 -1.1916 -1.3483  1.6164
15013TIP3    H266455   6.498   5.333  12.504 -1.8533  1.4717 -1.8661
15014TIP3   OH266456   5.915   2.497  15.573  0.2405 -0.1373  0.2615
15014TIP3    H166457   5.965   2.533  15.500 -1.0146  0.6569 -0.2321
15014TIP3    H266458   5.887   2.410  15.542  0.0551  0.0324 -0.0541
15015TIP3   OH266459   6.221   3.014   0.899 -0.3316  0.9641 -0.2824
15015TIP3    H166460   6.262   2.995   0.984 -0.3632  1.5568 -0.1330
15015TIP3    H266461   6.191   3.104   0.906 -1.7869  0.5154 -0.3493
15016TIP3   OH266462   0.142   4.262   1.515 -0.9420 -0.8421  0.2137
15016TIP3    H166463   0.122   4.176   1.478 -1.2117 -0.2032 -1.1790
15016TIP3    H266464   0.057   4.301   1.533 -0.8178 -0.9168  0.9727
15017TIP3   OH266465   5.413   0.271  15.522 -0.2825 -0.6305  0.5175
15017TIP3    H166466   5.401   0.273  15.427  3.0131  0.3544 -0.0304
15017TIP3    H266467   5.442   0.182  15.541 -1.3180 -0.9395  0.6863
15018TIP3   OH266468   4.977   5.072   3.970  0.8128 -0.1730 -0.2126
15018TIP3    H166469   4.963   5.025   4.053 -1.9287  0.7556 -0.0748
15018TIP3    H266470   5.024   5.152   3.996 -1.8833  1.1672  0.8814
15019TIP3   OH266471   5.914   4.213  15.693 -0.0152  0.6657  0.4479
15019TIP3    H166472   5.886   4.193  15.604 -0.3626 -0.4210  0.7884
15019TIP3    H266473   5.988   4.272  15.682  1.4100 -1.2112 -0.6524
15020TIP3   OH266474   1.052   5.079   0.789  0.1140 -0.2930 -0.4768
15020TIP3    H166475   1.096   5.050   0.709  1.7450 -0.0135  0.2607
15020TIP3    H266476   1.005   5.002   0.821  0.9447 -0.9279 -0.7597
15021TIP3   OH266477   3.934   0.419   0.379  0.2157 -0.2679 -0.1638
15021TIP3    H166478   3.845   0.384   0.372 -0.4989  1.4506 -0.2514
15021TIP3    H266479   3.976   0.395   0.297  0.2100 -2.0016  0.2960
15022TIP3   OH266480   2.442   6.745  13.147 -0.2824  0.0031 -0.3862
15022TIP3    H166481   2.455   6.839  13.158  0.2775 -0.3544  2.9361
15022TIP3    H266482   2.347   6.733  13.152 -0.3010  0.3188  0.0591
15023TIP3   OH266483   4.688   6.472   0.406  0.2158  0.1146 -0.1173
15023TIP3    H166484   4.729   6.479   0.493  0.0087 -0.7475  0.0571
15023TIP3    H266485   4.604   6.430   0.422  0.6295 -1.0404 -0.8546
15024TIP3   OH266486   0.966   0.509  13.882  0.0198 -0.6308 -0.0994
15024TIP3    H166487   0.883   0.467  13.902  0.0257 -0.0742  1.2143
15024TIP3    H266488   0.948   0.603  13.888  0.4140 -0.4722 -1.2389
15025TIP3   OH266489   4.366   2.025   4.189  0.7779 -0.5378 -0.3493
15025TIP3    H166490   4.417   1.998   4.265  1.9333 -2.2061 -1.6416
15025TIP3    H266491   4.276   2.003   4.211  1.1953 -1.7234  0.2300
15026TIP3   OH266492   0.795   6.777   2.164 -0.0732 -0.3184  0.2545
15026TIP3    H166493   0.855   6.736   2.227 -1.1392 -2.7903 -0.2164
15026TIP3    H266494   0.832   6.755   2.079 -0.3493  0.2922 -0.0278
15027TIP3   OH266495   4.512   4.788   5.841  0.4515  0.2938  0.1877
15027TIP3    H166496   4.461   4.862   5.872 -2.7113 -1.4756 -0.3455
15027TIP3    H266497   4.573   4.825   5.778 -2.8242  2.2586 -2.1363
15028TIP3   OH266498   0.003   1.509  13.250  0.2331 -0.3555  1.0148
15028TIP3    H166499  -0.075   1.526  13.197  0.8949 -2.3960 -0.7609
15028TIP3    H266500  -0.029   1.462  13.327 -0.2866 -1.4931  0.1256
15029TIP3   OH266501   0.556   1.388   5.754 -0.2009 -0.1728 -0.0776
15029TIP3    H166502   0.620   1.334   5.708  0.3613 -0.2392  0.7628
15029TIP3    H266503   0.572   1.476   5.722 -1.9284 -0.5887 -2.3840
15030TIP3   OH266504   4.596   2.907  12.385 -0.1270 -0.2848 -0.0059
15030TIP3    H166505   4.651   2.834  12.357  1.3677  0.4651  0.8829
15030TIP3    H266506   4.625   2.982  12.334 -0.7009  0.0042  0.0775
15031TIP3   OH266507   5.192   0.667   5.571 -0.0627  0.1137 -0.7996
15031TIP3    H166508   5.104   0.633   5.554 -0.5042  1.8202 -2.1321
15031TIP3    H266509   5.238   0.657   5.488  0.1926  1.5275 -0.8466
15032TIP3   OH266510   1.089   6.374  13.473  0.6218  0.3790  0.2480
15032TIP3    H166511   1.149   6.447  13.464 -0.2232  0.9925 -0.5409
15032TIP3    H266512   1.056   6.358  13.385 -2.5241  1.9377  0.9963
15033TIP3   OH266513   2.425   5.928  12.478 -0.4532 -0.0099 -0.6106
15033TIP3    H166514   2.438   5.837  12.507 -0.0416 -0.2709 -1.5918
15033TIP3    H266515   2.512   5.959  12.455 -0.0024  1.7727  2.8150
15034TIP3   OH266516   2.320   1.520   2.503 -0.0816  0.1380  0.1131
15034TIP3    H166517   2.360   1.496   2.587 -1.0285  0.5083  0.6937
15034TIP3    H266518   2.309   1.437   2.457 -1.8089 -0.4126  1.4077
15035TIP3   OH266519   6.050   3.724  11.220  0.5481  0.0091  0.0581
15035TIP3    H166520   6.040   3.808  11.174 -0.5786  1.0606  2.0662
15035TIP3    H266521   5.988   3.665  11.177  0.6437  0.4872 -0.7570
15036TIP3   OH266522   2.435   6.192   1.023  0.3361 -0.5054 -0.4285
15036TIP3    H166523   2.460   6.121   1.082 -2.4580 -0.8802  0.4426
15036TIP3    H266524   2.386   6.149   0.953  0.2939  0.3800 -0.9564
15037TIP3   OH266525   4.150   2.790   2.392 -0.2424  0.5979  0.7607
15037TIP3    H166526   4.189   2.704   2.378 -0.4441  0.4656  1.0089
15037TIP3    H266527   4.133   2.794   2.486 -0.8373  0.6468  0.6571
15038TIP3   OH266528   0.342   6.326  15.011  0.0503  0.2051  0.2002
15038TIP3    H166529   0.283   6.287  14.946  0.5387  0.1272 -0.2019
15038TIP3    H266530   0.297   6.406  15.039 -1.0868 -0.7741  1.2359
15039TIP3   OH266531   3.725   1.568   3.732 -0.0140  0.1361 -0.0811
15039TIP3    H166532   3.720   1.630   3.659  1.6763 -0.2044 -0.5076
15039TIP3    H266533   3.653   1.595   3.790 -1.4081  0.4090 -1.8382
15040TIP3   OH266534   0.898   5.820   4.056 -0.1132 -0.6951  0.0408
15040TIP3    H166535   0.856   5.736   4.036  1.0576 -0.6279 -3.3406
15040TIP3    H266536   0.963   5.800   4.123 -2.0509 -1.7712  1.6896
15041TIP3   OH266537   5.354   4.734  16.822 -0.0263 -0.5971 -0.1264
15041TIP3    H166538   5.290   4.698  16.884 -0.2993  0.2784  0.1147
15041TIP3    H266539   5.318   4.714  16.736 -1.1421  0.7114 -0.0051
15042TIP3   OH266540   5.329   3.842   1.604  0.2214  0.0548 -0.2591
15042TIP3    H166541   5.267   3.863   1.674  0.3089 -1.8701  0.4679
15042TIP3    H266542   5.391   3.915   1.605 -1.1371  1.2547  0.0298
15043TIP3   OH266543   5.050   5.867   1.559 -0.0014 -0.3652  0.7840
15043TIP3    H166544   5.092   5.903   1.481 -0.9186  0.0496  0.4534
15043TIP3    H266545   4.957   5.861   1.535 -0.2735 -0.3893  1.7827
15044TIP3   OH266546   2.833   3.640   2.995  0.1138 -0.2737  0.5452
15044TIP3    H166547   2.753   3.682   3.026  0.0538 -0.4772  0.6612
15044TIP3    H266548   2.903   3.700   3.022 -0.1276  0.9326 -1.2875
15045TIP3   OH266549   4.101   3.722  15.936 -1.0223 -0.0317 -0.1836
15045TIP3    H166550   4.110   3.628  15.956 -1.4204  0.4495  2.7621
15045TIP3    H266551   4.170   3.739  15.872 -1.6412 -2.5154 -1.6667
15046TIP3   OH266552   6.111   1.588   2.871 -0.2492  0.4204  0.8153
15046TIP3    H166553   6.072   1.500   2.869  0.4664  0.1015  0.3422
15046TIP3    H266554   6.189   1.578   2.926  0.3850  0.5139 -0.0465
15047TIP3   OH266555   2.546   1.132  13.196 -0.4443  0.0184 -0.3578
15047TIP3    H166556   2.481   1.090  13.140 -0.1651 -0.0600 -0.6313
15047TIP3    H266557   2.498   1.159  13.274 -0.7493 -0.2618 -0.4483
15048TIP3   OH266558   3.507   0.234   4.015 -0.0238  0.6418 -0.1642
15048TIP3    H166559   3.602   0.235   4.026  0.0285 -1.8857  0.2906
15048TIP3    H266560   3.486   0.143   3.994 -2.4417  0.9301  0.6388
15049TIP3   OH266561   0.190   4.032  10.696 -0.3392 -0.0576  0.0873
15049TIP3    H166562   0.103   3.998  10.721 -0.6083  0.4380 -0.1762
15049TIP3    H266563   0.184   4.126  10.709  0.7639 -0.1778  1.9055
15050TIP3   OH266564   3.218   6.025  11.599 -0.2966  0.5970 -0.0541
15050TIP3    H166565   3.296   6.058  11.643 -0.3579 -0.5598  0.9651
15050TIP3    H266566   3.175   5.970  11.664 -1.9323  1.1530 -0.6320
15051TIP3   OH266567   4.649   6.610  14.098 -0.4977  0.0832 -0.0893
15051TIP3    H166568   4.649   6.525  14.144 -1.5016  1.6582  3.1253
15051TIP3    H266569   4.698   6.668  14.156  1.5599  1.4289 -2.9790
15052TIP3   OH266570   1.513   6.608   5.894  0.5873 -0.2043 -0.7756
15052TIP3    H166571   1.439   6.623   5.953  1.8091 -0.2374  0.8456
15052TIP3    H266572   1.562   6.690   5.895  2.1474 -1.0808  0.5622
15053TIP3   OH266573   2.496   0.402   4.967  0.8818  0.6107 -0.0590
15053TIP3    H166574   2.478   0.386   4.874 -0.0393 -0.9375  0.3459
15053TIP3    H266575   2.554   0.329   4.993  1.1151  1.0185  0.5925
15054TIP3   OH266576   5.253   3.378   5.340 -0.1994  0.1869 -0.1450
15054TIP3    H166577   5.232   3.468   5.313  0.2427  0.4049  0.2348
15054TIP3    H266578   5.172   3.346   5.380  0.3315  1.2204  1.8474
15055TIP3   OH266579   1.397   6.381  15.990 -0.2172 -0.0440  0.3713
15055TIP3    H166580   1.431   6.320  15.924  0.6733 -0.2067  0.9642
15055TIP3    H266581   1.429   6.346  16.073  0.8786  1.5819  0.6814
15056TIP3   OH266582   1.633   0.160  16.407  0.2005  0.2246  0.2202
15056TIP3    H166583   1.648   0.076  16.365  0.5367  0.6905 -0.6185
15056TIP3    H266584   1.671   0.224  16.347  1.1785  0.8808  1.4950
15057TIP3   OH266585   4.213   1.470  10.914  0.8745  0.1448 -0.1717
15057TIP3    H166586   4.188   1.559  10.892  0.6114 -0.5279 -2.9714
15057TIP3    H266587   4.133   1.431  10.950  0.2786  0.3769 -1.2086
15058TIP3   OH266588   3.166   0.144  13.097 -0.2409  0.1325 -0.0255
15058TIP3    H166589   3.089   0.147  13.040  0.0247  0.2917 -0.3819
15058TIP3    H266590   3.141   0.086  13.169 -0.5859 -0.0557 -0.2951
15059TIP3   OH266591   0.901   0.333  16.219  0.2888  0.2307 -0.0264
15059TIP3    H166592   0.873   0.317  16.309 -1.8742  1.4361 -0.4000
15059TIP3    H266593   0.959   0.408  16.225 -0.4742  0.8098  0.3236
15060TIP3   OH266594   1.431   6.695  15.250  0.5441 -0.2512  0.0240
15060TIP3    H166595   1.446   6.642  15.172  1.7468  0.3580 -0.1958
15060TIP3    H266596   1.352   6.660  15.290 -0.1452 -0.4976 -1.5303
15061TIP3   OH266597   5.126   4.922   1.665  0.0836  0.1563  0.3781
15061TIP3    H166598   5.167   4.900   1.749 -0.6742 -0.4952  0.5823
15061TIP3    H266599   5.094   4.839   1.631 -0.1219  0.5033 -0.2971
15062TIP3   OH266600   4.350   0.489  13.771  0.7284 -0.2626 -0.0777
15062TIP3    H166601   4.426   0.434  13.755  0.9101 -0.1798  0.4898
15062TIP3    H266602   4.332   0.479  13.865 -0.7111 -1.2630 -0.4159
15063TIP3   OH266603   3.789   3.522   5.529 -0.4056  0.2207  0.3357
15063TIP3    H166604   3.758   3.432   5.519 -0.4723  0.1661  1.0131
15063TIP3    H266605   3.773   3.562   5.443  0.7029 -0.7285 -0.3388
15064TIP3   OH266606   5.050   2.356   3.623 -0.0414 -0.5090  0.3849
15064TIP3    H166607   5.113   2.292   3.587  0.6219 -0.1848  0.9409
15064TIP3    H266608   5.071   2.360   3.716 -0.8552 -0.3409  0.5693
15065TIP3   OH266609   4.387   2.447  11.510  0.4904  0.2161  0.0816
15065TIP3    H166610   4.451   2.410  11.571  2.0958 -0.3177 -1.8275
15065TIP3    H266611   4.309   2.463  11.564  1.9516  0.1922  2.3360
15066TIP3   OH266612   5.786   6.470   3.390 -0.4839  0.4111 -0.8247
15066TIP3    H166613   5.721   6.405   3.413 -1.0615  0.9043 -1.0325
15066TIP3    H266614   5.765   6.494   3.300 -0.1689  0.7480 -0.8116
15067TIP3   OH266615   4.741   5.825  14.529 -0.0055  0.1231  0.3291
15067TIP3    H166616   4.718   5.732  14.530  1.0541 -0.1869 -1.2529
15067TIP3    H266617   4.812   5.833  14.593 -0.4937 -0.0382  0.8932
15068TIP3   OH266618   2.556   3.463  15.728 -0.5315 -0.0609  0.6942
15068TIP3    H166619   2.484   3.476  15.789 -1.4791 -0.2254 -0.3476
15068TIP3    H266620   2.527   3.391  15.672 -0.5895  1.3343 -1.1889
15069TIP3   OH266621   4.066   6.698  12.655  0.1777 -0.7133 -0.0391
15069TIP3    H166622   4.097   6.671  12.742  0.4495  1.0201  0.4492
15069TIP3    H266623   4.021   6.781  12.671 -0.8957 -0.9873 -1.3957
15070TIP3   OH266624   5.241   5.595   5.188 -0.4465 -0.2210  0.1476
15070TIP3    H166625   5.175   5.664   5.184  0.9135  1.0732 -1.4863
15070TIP3    H266626   5.318   5.638   5.225  0.9644 -0.3138 -2.4647
15071TIP3   OH266627   3.309   4.804   3.342  0.2752  0.3674  0.1298
15071TIP3    H166628   3.380   4.793   3.279 -0.9708  2.1869 -1.7255
15071TIP3    H266629   3.235   4.837   3.291 -1.8845 -1.1466  2.0072
15072TIP3   OH266630   3.916   4.313   4.642  0.8677  0.3894 -0.0780
15072TIP3    H166631   3.841   4.318   4.702  0.0739  0.3468 -1.0396
15072TIP3    H266632   3.939   4.221   4.641  1.3546  0.4915  0.7071
15073TIP3   OH266633   6.164   5.464  10.734  0.1672  0.5033  0.3960
15073TIP3    H166634   6.109   5.430  10.663  2.1848  2.4297 -2.3416
15073TIP3    H266635   6.102   5.502  10.796 -1.7352 -1.7962  0.0595
15074TIP3   OH266636   5.799   2.208  16.240  0.3630  0.0930  0.0652
15074TIP3    H166637   5.716   2.225  16.284  0.2206 -3.7578  1.7269
15074TIP3    H266638   5.858   2.275  16.273 -1.4257  1.3860  0.8230
15075TIP3   OH266639   1.540   0.768   4.540 -0.0832  0.8717 -0.1564
15075TIP3    H166640   1.445   0.759   4.531 -0.1006  0.9405 -0.0459
15075TIP3    H266641   1.553   0.786   4.633  0.1296 -0.2755  0.0416
15076TIP3   OH266642   1.109   3.455   1.619 -0.0829  0.4150  0.5440
15076TIP3    H166643   1.142   3.517   1.554  0.8779  1.1208  1.6644
15076TIP3    H266644   1.172   3.382   1.616 -1.9141 -1.2401 -1.7061
15077TIP3   OH266645   6.326   6.096   5.157  0.5040 -0.0688  0.3733
15077TIP3    H166646   6.263   6.132   5.095  0.6035 -0.4187  0.0621
15077TIP3    H266647   6.275   6.078   5.236  0.2986  0.0396  0.2650
15078TIP3   OH266648   0.819   2.587  16.971 -0.2674  0.4943 -0.8066
15078TIP3    H166649   0.810   2.653  17.039 -1.3430  0.2938 -0.7432
15078TIP3    H266650   0.900   2.540  16.994  0.3019  1.5262 -0.6440
15079TIP3   OH266651   2.103   3.599  12.752  0.4358  0.1608 -0.5272
15079TIP3    H166652   2.136   3.590  12.662  0.2291 -0.0415 -0.5848
15079TIP3    H266653   2.051   3.520  12.766  0.6266  0.0960 -0.1597
15080TIP3   OH266654   5.701   1.390   0.580  0.0167 -0.1615  0.1769
15080TIP3    H166655   5.703   1.380   0.676 -0.9966 -0.2411  0.2002
15080TIP3    H266656   5.786   1.358   0.551 -0.1072 -1.2443  0.9501
15081TIP3   OH266657   1.983   2.879   4.811  0.8202  0.0656  0.2267
15081TIP3    H166658   1.915   2.819   4.782 -1.1646  1.7884  1.0975
15081TIP3    H266659   2.059   2.856   4.758 -0.1584 -2.4546 -0.2201
15082TIP3   OH266660   3.653   1.377   2.794  0.3913 -0.4325 -0.3785
15082TIP3    H166661   3.601   1.418   2.862  0.9834 -2.3353  1.3036
15082TIP3    H266662   3.695   1.450   2.748 -0.1822  0.9128  1.1595
15083TIP3   OH266663   5.439   3.076  11.907  0.2605  0.3282  0.3219
15083TIP3    H166664   5.464   2.985  11.893 -1.9680 -0.2741 -0.2209
15083TIP3    H266665   5.430   3.113  11.819  0.5626  0.9092  0.5253
15084TIP3   OH266666   0.238   1.093  12.722  0.1087 -0.0854 -0.2495
15084TIP3    H166667   0.316   1.039  12.732 -0.3461 -0.6837  0.1953
15084TIP3    H266668   0.197   1.061  12.642  0.9965  1.1340 -1.2348
15085TIP3   OH266669   3.282   1.918   4.151  0.3791 -0.7317  0.4348
15085TIP3    H166670   3.362   1.969   4.158  0.1371 -0.3810  0.7155
15085TIP3    H266671   3.232   1.942   4.230 -1.9916  2.5178 -1.7823
15086TIP3   OH266672   3.793   1.907  16.298 -0.2013  0.0213 -0.1137
15086TIP3    H166673   3.794   1.813  16.315 -1.1560  0.0125 -0.0398
15086TIP3    H266674   3.738   1.917  16.220  0.9772  0.4088 -0.9180
15087TIP3   OH266675   0.394   2.821   3.314 -0.2343 -0.0486 -0.6009
15087TIP3    H166676   0.478   2.784   3.284 -0.2613 -2.7638  2.1095
15087TIP3    H266677   0.328   2.763   3.276 -0.7033  0.5385 -0.6856
15088TIP3   OH266678   5.271   6.432   3.355  0.4949 -0.3206  0.0323
15088TIP3    H166679   5.273   6.391   3.268  0.2437  0.5172 -0.3761
15088TIP3    H266680   5.274   6.358   3.416  0.8807 -0.9120 -0.6848
15089TIP3   OH266681   4.742   3.798   5.615  0.2915  0.1463  0.1968
15089TIP3    H166682   4.824   3.758   5.642  0.0863 -1.1698 -0.9973
15089TIP3    H266683   4.756   3.820   5.522 -1.3146 -1.9865 -0.6488
15090TIP3   OH266684   4.252   5.377   4.038  0.0251  0.0344 -0.2871
15090TIP3    H166685   4.301   5.296   4.026  1.1392  0.7740 -0.8647
15090TIP3    H266686   4.222   5.401   3.951 -1.7584 -0.6112  0.1008
15091TIP3   OH266687   3.956   2.999  15.027 -0.2804 -0.0966  0.0058
15091TIP3    H166688   3.976   2.910  14.998  1.5484  0.1766  0.3147
15091TIP3    H266689   3.947   2.992  15.122 -0.8159 -0.0634 -0.0404
15092TIP3   OH266690   1.497   2.943   4.516  0.4242  0.1316 -0.3493
15092TIP3    H166691   1.419   2.991   4.544 -0.7207 -1.7263 -0.1747
15092TIP3    H266692   1.512   2.973   4.426 -0.8461  0.1164 -0.5841
15093TIP3   OH266693   0.853   4.110  14.844 -0.2721 -0.0736  0.1034
15093TIP3    H166694   0.871   4.155  14.926 -0.7377 -0.2152  0.2871
15093TIP3    H266695   0.786   4.045  14.866 -0.7678  0.2263 -0.4976
15094TIP3   OH266696   4.936   4.219   1.255  0.1776  0.7586 -0.1921
15094TIP3    H166697   4.922   4.184   1.167 -1.2068  0.0834  0.2728
15094TIP3    H266698   4.997   4.158   1.295 -1.0573 -0.3230  0.1034
15095TIP3   OH266699   0.769   5.374  11.979  0.5966  0.0093  0.3712
15095TIP3    H166700   0.801   5.462  11.998  1.0993 -0.6145  2.8018
15095TIP3    H266701   0.726   5.346  12.061  3.1211 -3.1038  0.8261
15096TIP3   OH266702   2.323   4.581   1.433 -0.2807 -0.7308  0.1314
15096TIP3    H166703   2.389   4.642   1.465  0.2364 -1.2265  0.0140
15096TIP3    H266704   2.360   4.544   1.353 -1.0441 -0.4120 -0.3895
15097TIP3   OH266705   1.399   4.090   4.563 -0.2696  0.4430  0.7337
15097TIP3    H166706   1.335   4.064   4.630 -0.9227  0.2687  0.0546
15097TIP3    H266707   1.441   4.168   4.599  1.0557 -0.9464  2.3914
15098TIP3   OH266708   1.879   3.565   0.904 -0.1758 -0.4331  0.0474
15098TIP3    H166709   1.902   3.473   0.889 -3.8382 -1.5312  0.2691
15098TIP3    H266710   1.822   3.564   0.980 -0.4567  2.0407 -0.0484
15099TIP3   OH266711   5.607   3.830  13.036  0.0154 -0.1141  0.5774
15099TIP3    H166712   5.682   3.769  13.038 -0.8139 -1.4853 -2.6878
15099TIP3    H266713   5.533   3.777  13.065 -0.5182 -0.4220 -1.2206
15100TIP3   OH266714   6.640   3.951   4.168  0.3566 -0.5170  1.2297
15100TIP3    H166715   6.593   3.990   4.241  1.5980  0.6803  1.4296
15100TIP3    H266716   6.655   4.024   4.108 -0.4918 -1.4374 -0.1846
15101TIP3   OH266717   2.125   6.163  16.094 -0.2488  0.1857 -0.0556
15101TIP3    H166718   2.171   6.225  16.152 -0.9650  2.7970 -2.0867
15101TIP3    H266719   2.160   6.180  16.007 -2.9968  0.3023 -1.2588
15102TIP3   OH266720   0.209   2.433  16.655  0.1194  0.2564 -0.2841
15102TIP3    H166721   0.163   2.427  16.738  1.8461  1.1696  0.7878
15102TIP3    H266722   0.179   2.515  16.616 -0.9483 -0.3378 -0.7737
15103TIP3   OH266723   0.594   1.121  15.263  0.6360 -0.5352  0.0817
15103TIP3    H166724   0.541   1.148  15.338  0.3151 -0.5951 -0.1226
15103TIP3    H266725   0.556   1.038  15.235  3.2282 -2.6602  2.3557
15104TIP3   OH266726   5.984   2.909  11.823  0.0607  0.0737 -0.1133
15104TIP3    H166727   5.899   2.952  11.811 -0.1845 -0.5586 -0.7627
15104TIP3    H266728   5.998   2.862  11.741  0.8380 -0.1798  0.1593
15105TIP3   OH266729   0.731   1.537   2.337  0.5837  0.3781  0.8950
15105TIP3    H166730   0.757   1.448   2.315 -1.4778  0.1461 -1.0246
15105TIP3    H266731   0.813   1.587   2.335  1.3954 -0.9026 -1.2191
15106TIP3   OH266732   2.441   4.194   3.034 -0.2680 -0.3504 -0.3906
15106TIP3    H166733   2.438   4.252   3.111  2.8135  0.7042 -0.9372
15106TIP3    H266734   2.423   4.252   2.960  1.6282 -0.2644 -0.8333
15107TIP3   OH266735   6.161   1.952  16.255  0.8335 -0.5526  0.3819
15107TIP3    H166736   6.071   1.973  16.280  1.2495  1.1825  0.5352
15107TIP3    H266737   6.192   2.030  16.208  0.9213 -2.6005 -3.4328
15108TIP3   OH266738   6.082   2.115  17.088 -0.9650  0.1378  0.1800
15108TIP3    H166739   6.126   2.095  17.006 -0.0990  1.2925  0.3394
15108TIP3    H266740   6.030   2.037  17.108  1.6364 -1.6583  0.4278
15109TIP3   OH266741   0.049   6.237   1.187 -0.2693  0.2291  0.6764
15109TIP3    H166742  -0.030   6.184   1.183  1.1914 -2.0915  0.6324
15109TIP3    H266743   0.083   6.224   1.276  1.3341 -0.8878 -0.0413
15110TIP3   OH266744   4.927   1.544  14.921  0.2180  0.4446  0.3156
15110TIP3    H166745   4.895   1.619  14.872 -1.0023 -0.3274 -0.1100
15110TIP3    H266746   4.978   1.494  14.858 -2.2519 -1.1271 -0.5967
15111TIP3   OH266747   5.748   3.403   4.726 -0.7585  0.0964 -0.6435
15111TIP3    H166748   5.687   3.476   4.719 -1.1877 -0.1747  0.1243
15111TIP3    H266749   5.692   3.327   4.746 -0.2964 -0.3911 -1.1733
15112TIP3   OH266750   0.076   5.064   6.518  0.1339 -0.3528  0.0178
15112TIP3    H166751   0.155   5.090   6.567 -0.5944 -1.5510  1.9487
15112TIP3    H266752   0.110   5.020   6.440  1.3546  1.0301 -0.2770
15113TIP3   OH266753   3.707   2.810  16.663 -0.1463 -0.6707  0.0582
15113TIP3    H166754   3.785   2.850  16.625 -0.4808  1.0629  1.0766
15113TIP3    H266755   3.731   2.790  16.754 -1.3548  1.6409  0.9897
15114TIP3   OH266756   0.240   3.330  13.684 -0.3030  0.2104  0.3744
15114TIP3    H166757   0.182   3.270  13.732 -0.4919 -0.7786 -1.0350
15114TIP3    H266758   0.181   3.390  13.639 -0.2041 -0.0598 -0.1233
15115TIP3   OH266759   0.515   0.119  11.319 -0.1998 -0.2171 -0.2367
15115TIP3    H166760   0.610   0.134  11.311 -0.4193  0.5809 -1.4951
15115TIP3    H266761   0.507   0.025  11.336  0.8049 -0.3193 -0.2547
15116TIP3   OH266762   2.588   4.245  13.743  0.4356 -0.2262  0.1626
15116TIP3    H166763   2.539   4.237  13.661  0.8559  0.7769 -0.2022
15116TIP3    H266764   2.581   4.338  13.766 -1.1510 -0.7833  2.2201
15117TIP3   OH266765   3.415   3.330  15.217  0.2344  0.8610  0.3854
15117TIP3    H166766   3.458   3.320  15.302  1.8985 -0.8354 -0.5975
15117TIP3    H266767   3.486   3.346  15.155 -0.6800 -0.3255 -1.0334
15118TIP3   OH266768   5.456   6.159  14.696  0.2851 -0.5102  0.0538
15118TIP3    H166769   5.435   6.066  14.683  0.6548 -0.6153  0.2010
15118TIP3    H266770   5.393   6.205  14.640  0.8734 -0.8966 -0.9475
15119TIP3   OH266771   3.806   6.117   3.642  0.5119 -0.5764 -0.0629
15119TIP3    H166772   3.883   6.140   3.590 -0.3429  2.3438 -0.2106
15119TIP3    H266773   3.733   6.155   3.594 -0.4591  1.2275  2.6244
15120TIP3   OH266774   6.199   1.196   0.384  0.2081 -1.1043  0.5167
15120TIP3    H166775   6.231   1.120   0.336  0.5722 -0.8069  0.2860
15120TIP3    H266776   6.237   1.271   0.339 -1.1650 -0.7148 -0.0616
15121TIP3   OH266777   1.859   1.306  15.239  0.3717 -0.5052  0.1634
15121TIP3    H166778   1.896   1.325  15.153 -1.3622  0.1846 -0.4882
15121TIP3    H266779   1.934   1.298  15.297  1.5492 -0.2946 -1.2833
15122TIP3   OH266780   0.737   0.171   5.032 -0.1071  0.5304  0.6518
15122TIP3    H166781   0.767   0.081   5.043  0.3001  0.6143  0.2562
15122TIP3    H266782   0.660   0.165   4.976  1.3355  0.6177 -1.4646
15123TIP3   OH266783   5.879   5.101  10.499 -0.6031  0.4374  0.3229
15123TIP3    H166784   5.887   5.104  10.595 -0.4671  0.0333  0.3241
15123TIP3    H266785   5.955   5.051  10.470 -0.0854  1.4319 -0.0810
15124TIP3   OH266786   5.125   2.347  16.553 -0.3344 -0.1253  0.1654
15124TIP3    H166787   5.188   2.282  16.522 -0.8621 -0.9805  0.8605
15124TIP3    H266788   5.044   2.327  16.506 -0.5763 -0.1565  0.5923
15125TIP3   OH266789   3.129   0.362   3.529  0.4777  0.3623  0.2119
15125TIP3    H166790   3.084   0.292   3.482 -1.7946  1.9753 -0.1675
15125TIP3    H266791   3.219   0.331   3.538 -0.3913 -2.5017 -0.0681
15126TIP3   OH266792   5.972   3.120   0.429 -1.0273 -0.2273 -0.4076
15126TIP3    H166793   6.051   3.090   0.384 -1.0963  0.1320 -0.7716
15126TIP3    H266794   6.005   3.157   0.511 -0.7474  0.4855 -0.8289
15127TIP3   OH266795   2.352   1.785  15.068  0.4862  0.0913 -0.0726
15127TIP3    H166796   2.426   1.806  15.124 -0.0571  0.2721  0.5907
15127TIP3    H266797   2.276   1.817  15.116 -0.0648 -0.4977 -0.5351
15128TIP3   OH266798   5.794   2.892  14.026 -0.1587 -0.2669 -0.0643
15128TIP3    H166799   5.883   2.923  14.041 -0.4661  0.3270  0.5548
15128TIP3    H266800   5.805   2.819  13.965  0.5998  0.8553 -1.3291
15129TIP3   OH266801   3.629   5.954   5.235  0.1685  0.6174  0.2648
15129TIP3    H166802   3.609   6.010   5.160  2.3732 -0.9797 -1.6848
15129TIP3    H266803   3.708   5.992   5.273  1.3636 -0.7622 -0.7390
15130TIP3   OH266804   3.245   5.492   1.751 -0.0352 -0.2900 -0.1375
15130TIP3    H166805   3.179   5.462   1.814  1.0911  0.3331  1.4028
15130TIP3    H266806   3.196   5.546   1.689 -0.9409  0.4789  1.1996
15131TIP3   OH266807   5.344   4.373   2.656  0.2070 -0.1892  0.3441
15131TIP3    H166808   5.377   4.336   2.738  1.5199  2.1846  0.9732
15131TIP3    H266809   5.274   4.432   2.683  0.6084  0.5644 -0.2277
15132TIP3   OH266810   4.955   2.848  15.813  0.3244  0.4965  0.4905
15132TIP3    H166811   4.931   2.834  15.905  0.1238  0.7511  0.4795
15132TIP3    H266812   5.001   2.932  15.813 -0.8224  1.1473  0.1733
15133TIP3   OH266813   0.468   5.345  10.845 -0.1486  0.0436  0.1502
15133TIP3    H166814   0.384   5.341  10.798 -0.0163 -1.4191 -0.0030
15133TIP3    H266815   0.512   5.264  10.822 -0.2419 -0.9739  3.0955
15134TIP3   OH266816   5.829   4.496  13.092  0.1680 -0.1486  0.2488
15134TIP3    H166817   5.745   4.536  13.069 -0.1382 -0.6100  0.5615
15134TIP3    H266818   5.853   4.445  13.015  0.2127  0.0589  0.1228
15135TIP3   OH266819   3.510   3.505  13.681  0.2069 -0.0377 -0.0322
15135TIP3    H166820   3.484   3.413  13.683 -0.4236  0.0987 -1.1289
15135TIP3    H266821   3.442   3.550  13.732  0.6263 -0.1930  0.6780
15136TIP3   OH266822   3.575   0.880   5.274 -0.1230 -0.1618  0.5160
15136TIP3    H166823   3.520   0.863   5.197  0.6893  4.2213 -1.3183
15136TIP3    H266824   3.513   0.912   5.340 -0.3307  0.8528 -0.1361
15137TIP3   OH266825   1.798   4.859  11.682  0.1280  0.0337 -0.1905
15137TIP3    H166826   1.761   4.938  11.642 -1.5731 -0.4860  0.2646
15137TIP3    H266827   1.722   4.808  11.710  1.2059 -1.2682  0.5178
15138TIP3   OH266828   1.679   3.455   0.646 -0.7020  0.8596  0.0220
15138TIP3    H166829   1.648   3.497   0.566  1.6132  0.8056 -0.9589
15138TIP3    H266830   1.671   3.523   0.713 -0.9637  1.4935 -0.6429
15139TIP3   OH266831   4.138   5.996  13.711  0.2868 -0.4309  0.1352
15139TIP3    H166832   4.043   6.006  13.720  0.0660 -0.3063 -1.8011
15139TIP3    H266833   4.171   6.086  13.713  0.2885 -0.4317  0.1363
15140TIP3   OH266834   5.685   1.971  14.924  0.0297 -0.5273 -0.6866
15140TIP3    H166835   5.708   1.886  14.961  0.0484 -0.3103 -0.1907
15140TIP3    H266836   5.758   2.028  14.948 -0.4012 -0.1553 -0.2305
15141TIP3   OH266837   4.606   4.561   6.576 -0.3218  0.3412  0.1504
15141TIP3    H166838   4.603   4.577   6.482  1.3743  0.0277  0.0102
15141TIP3    H266839   4.693   4.524   6.591 -1.1951 -1.2627  1.5958
15142TIP3   OH266840   2.238   6.396   0.991  0.5942 -0.3955  0.4304
15142TIP3    H166841   2.155   6.355   0.966 -0.8182  1.8433  1.2092
15142TIP3    H266842   2.301   6.323   0.991 -0.7711 -1.7713 -2.5766
15143TIP3   OH266843   6.787   1.774  13.000  0.3043 -0.6102  0.3626
15143TIP3    H166844   6.774   1.785  13.095 -0.1049  0.8021  0.1557
15143TIP3    H266845   6.878   1.747  12.991  0.2425 -1.1440  1.1712
15144TIP3   OH266846   5.113   4.351   2.983 -0.4230  0.9970 -0.5903
15144TIP3    H166847   5.019   4.347   2.967 -0.2329  0.0473 -1.5518
15144TIP3    H266848   5.143   4.423   2.929 -0.2048 -0.4664 -2.5370
15145TIP3   OH266849   4.260   1.541   4.294 -0.0718 -0.3961 -0.6861
15145TIP3    H166850   4.267   1.591   4.213  0.5773  0.4279 -0.1359
15145TIP3    H266851   4.327   1.472   4.285  0.9925  0.5544 -0.2662
15146TIP3   OH266852   6.619   1.828   6.087 -0.6045  0.7622  0.2552
15146TIP3    H166853   6.576   1.866   6.164 -0.3827 -1.2123  1.4223
15146TIP3    H266854   6.612   1.896   6.020 -0.7138  2.6058  2.0318
15147TIP3   OH266855   2.481   1.477   4.554  0.2220  0.2211 -0.3739
15147TIP3    H166856   2.500   1.522   4.472 -1.7927  0.1792 -0.9044
15147TIP3    H266857   2.443   1.394   4.527 -1.0927  0.4916  0.5885
15148TIP3   OH266858   0.703   3.548  11.122 -0.1340 -0.0659 -0.4527
15148TIP3    H166859   0.796   3.543  11.145  0.2880 -0.4311 -2.0776
15148TIP3    H266860   0.669   3.461  11.142  0.5209 -0.7856 -2.2797
15149TIP3   OH266861   0.080   0.585   2.318 -0.0971  0.3077  0.4858
15149TIP3    H166862   0.118   0.555   2.236 -0.5309 -1.2758  0.8354
15149TIP3    H266863   0.128   0.666   2.338  1.0018 -0.0460 -0.5790
15150TIP3   OH266864   5.973   5.354   5.468 -0.1480  0.7191  0.6645
15150TIP3    H166865   6.042   5.325   5.528  0.3160 -2.6968 -1.2535
15150TIP3    H266866   5.895   5.362   5.523  0.9786  1.0709  2.2633
15151TIP3   OH266867   4.858   1.710  14.695  0.0553  0.5659 -0.1898
15151TIP3    H166868   4.765   1.705  14.718  0.4203 -0.5364  1.2145
15151TIP3    H266869   4.859   1.742  14.605 -1.6352  1.5202  0.0845
15152TIP3   OH266870   3.538   2.033  14.894  0.7611  0.2859 -0.1985
15152TIP3    H166871   3.557   2.025  14.988 -0.3306 -1.0832 -0.0607
15152TIP3    H266872   3.489   1.954  14.873 -1.5220  1.8824 -1.3115
15153TIP3   OH266873   3.996   5.644  14.666 -0.2111 -0.2832 -0.5482
15153TIP3    H166874   4.030   5.733  14.666 -0.0155 -0.3146  1.7272
15153TIP3    H266875   4.065   5.592  14.625  0.3943  0.3469 -0.3368
15154TIP3   OH266876   5.937   5.913   1.272 -0.2193 -0.1322  0.0631
15154TIP3    H166877   5.957   6.005   1.254  1.9560 -0.3666  0.9281
15154TIP3    H266878   5.858   5.916   1.327 -0.0567  1.2369  0.2650
15155TIP3   OH266879   0.272   1.953   1.810  0.8691 -0.1040 -0.2226
15155TIP3    H166880   0.346   1.947   1.870 -0.1032  0.4717  1.0879
15155TIP3    H266881   0.203   1.996   1.861  1.0517  3.6663 -2.6936
15156TIP3   OH266882   4.562   0.792   5.305  0.9818 -0.2489  0.4198
15156TIP3    H166883   4.604   0.876   5.324  1.7766 -0.4365 -0.4638
15156TIP3    H266884   4.481   0.815   5.259  1.5837  0.0178 -0.5318
15157TIP3   OH266885   5.472   6.068   5.311 -0.2053 -0.8191 -0.5703
15157TIP3    H166886   5.538   6.115   5.259 -0.6752 -1.3117 -1.6442
15157TIP3    H266887   5.421   6.137   5.353 -0.3105 -0.3741 -1.4015
15158TIP3   OH266888   0.782   2.077  15.235  0.1779 -0.1757 -0.6818
15158TIP3    H166889   0.731   2.023  15.174  0.0116 -0.6447 -0.1318
15158TIP3    H266890   0.754   2.167  15.218 -1.0640 -0.4489 -0.1697
15159TIP3   OH266891   4.562   0.737  11.895 -0.2878  0.2642 -0.4854
15159TIP3    H166892   4.492   0.799  11.875  0.2656  1.0438 -0.0847
15159TIP3    H266893   4.526   0.680  11.963  0.2432  2.1936  1.5135
15160TIP3   OH266894   4.842   5.836  10.556  0.1771  0.0600 -0.3124
15160TIP3    H166895   4.905   5.839  10.628  1.0865  0.3822 -1.0901
15160TIP3    H266896   4.830   5.743  10.538  0.1602 -0.0125  0.0705
15161TIP3   OH266897   5.449   5.840  15.106 -0.0844  0.0464  0.3601
15161TIP3    H166898   5.437   5.799  15.020  3.1280 -0.7645  0.1854
15161TIP3    H266899   5.431   5.933  15.090  0.7675 -0.0293 -1.3255
15162TIP3   OH266900   3.110   4.416  16.668 -0.0845 -0.4983  0.3303
15162TIP3    H166901   3.097   4.456  16.754  0.2519  0.8564 -0.2321
15162TIP3    H266902   3.032   4.361  16.656  0.1005 -1.1140  1.6945
15163TIP3   OH266903   1.229   4.100   4.762 -0.5045  0.2683 -0.1953
15163TIP3    H166904   1.194   4.050   4.836 -0.3247 -0.4925 -0.6132
15163TIP3    H266905   1.275   4.173   4.802 -0.4400 -0.1196  0.4497
15164TIP3   OH266906   2.998   5.931   0.259  0.1645  0.7146 -0.4497
15164TIP3    H166907   2.942   5.986   0.204 -1.5850 -0.8066 -0.2910
15164TIP3    H266908   3.078   5.983   0.272 -0.6083  2.3629 -1.8902
15165TIP3   OH266909   2.294   6.183  13.721  0.4148 -0.1719  0.0036
15165TIP3    H166910   2.363   6.150  13.779 -1.0499 -0.4589  1.6901
15165TIP3    H266911   2.291   6.122  13.648  0.5187 -1.4119  1.0038
15166TIP3   OH266912   0.160   3.275   4.400  0.2943 -0.2382 -0.6584
15166TIP3    H166913   0.132   3.365   4.413  0.4425  0.2287 -2.9868
15166TIP3    H266914   0.096   3.238   4.339  0.9230 -1.3006 -0.7069
15167TIP3   OH266915   2.080   5.675   5.114 -0.4580 -0.3177 -0.4731
15167TIP3    H166916   2.164   5.683   5.160 -0.6500 -1.4842  0.1191
15167TIP3    H266917   2.049   5.587   5.137 -1.9825  0.2119 -0.4372
15168TIP3   OH266918   3.109   6.487   2.162  0.0329  0.7832  0.0322
15168TIP3    H166919   3.146   6.482   2.250 -1.0763  0.6745  0.5097
15168TIP3    H266920   3.179   6.455   2.105  0.7788  0.8820  0.8615
15169TIP3   OH266921   3.073   6.153  15.054 -0.2517 -0.0075  0.5157
15169TIP3    H166922   3.123   6.233  15.069  0.3902  0.2334 -2.3160
15169TIP3    H266923   3.073   6.142  14.959  0.7177 -3.9963  0.7656
15170TIP3   OH266924   5.118   6.427  11.247 -0.6494  0.4317 -0.2259
15170TIP3    H166925   5.189   6.491  11.242 -1.3890  1.1825 -1.4242
15170TIP3    H266926   5.080   6.441  11.334  0.5312  0.1373  0.3617
15171TIP3   OH266927   0.150   5.035  11.168 -0.5582 -0.1548  0.3113
15171TIP3    H166928   0.182   4.988  11.091 -0.4901 -1.9964  1.4117
15171TIP3    H266929   0.064   4.998  11.186 -1.9203  2.3541 -0.5836
15172TIP3   OH266930   3.009   4.937   0.963 -0.2357  0.1945  0.7622
15172TIP3    H166931   2.952   5.006   0.926 -2.1925 -1.3257  0.7709
15172TIP3    H266932   2.948   4.870   0.994  1.5662 -2.8579 -1.7097
15173TIP3   OH266933   5.348   4.581   4.284  0.6955 -0.4999 -0.8788
15173TIP3    H166934   5.350   4.511   4.349  0.3944 -0.6266 -1.0089
15173TIP3    H266935   5.423   4.636   4.307 -1.1104  1.1920  1.4938
15174TIP3   OH266936   1.191   2.985  16.945  0.1348  0.3830 -0.3920
15174TIP3    H166937   1.162   2.996  16.854  1.2818  0.0066 -0.8192
15174TIP3    H266938   1.278   2.946  16.938  0.8151  1.5912  0.8428
15175TIP3   OH266939   1.483   6.388   0.197 -0.4550 -0.5058  0.3201
15175TIP3    H166940   1.436   6.382   0.280  1.8058 -1.5340  1.6268
15175TIP3    H266941   1.507   6.297   0.176  0.1338 -0.1186 -0.7672
15176TIP3   OH266942   3.061   1.357   3.468  0.2186  0.3674 -0.1639
15176TIP3    H166943   3.116   1.352   3.546 -0.5655  1.5361  0.5114
15176TIP3    H266944   3.121   1.379   3.397  0.9616 -0.8387  0.0641
15177TIP3   OH266945   3.297   4.350   1.440  0.2182  0.0673  0.2011
15177TIP3    H166946   3.255   4.294   1.375 -0.8952  0.5710  0.4590
15177TIP3    H266947   3.287   4.302   1.523 -0.8706  0.6765  0.4482
15178TIP3   OH266948   1.576   1.838   3.434 -0.1274 -0.2327 -0.4297
15178TIP3    H166949   1.542   1.899   3.368  0.4698  0.8489  0.2213
15178TIP3    H266950   1.572   1.752   3.392 -0.7166  0.2903 -1.4940
15179TIP3   OH266951   4.366   3.018  14.537 -0.4291 -0.4280  0.4746
15179TIP3    H166952   4.458   3.004  14.513 -0.7735 -2.6668  0.2264
15179TIP3    H266953   4.364   3.003  14.631 -0.4654  0.1203  0.5631
15180TIP3   OH266954   5.933   1.651   3.942 -0.2990 -0.7775  0.3405
15180TIP3    H166955   5.860   1.660   3.881 -0.5104 -0.5710  0.6199
15180TIP3    H266956   5.916   1.570   3.990 -0.1360 -0.9364  0.1304
15181TIP3   OH266957   4.187   3.032  12.024  0.3620 -1.0119  0.4530
15181TIP3    H166958   4.153   2.945  12.003 -0.3834 -0.3016 -1.5445
15181TIP3    H266959   4.206   3.028  12.117 -1.2905 -2.7878  0.7957
15182TIP3   OH266960   0.078   3.684  14.177  0.6595 -0.8460 -0.1379
15182TIP3    H166961   0.020   3.633  14.234  0.8123 -1.0287 -0.1491
15182TIP3    H266962   0.089   3.767  14.224  2.6635 -1.8350  1.2500
15183TIP3   OH266963   5.405   5.507  11.352  0.4605  0.4053 -0.4569
15183TIP3    H166964   5.319   5.465  11.356  0.3961  0.5964  0.2530
15183TIP3    H266965   5.406   5.551  11.267  0.1395 -0.1924 -0.7800
15184TIP3   OH266966   6.245   3.153  13.600  0.0283 -0.0376 -0.2658
15184TIP3    H166967   6.278   3.227  13.549 -0.2021  1.1363  1.2220
15184TIP3    H266968   6.184   3.108  13.542  1.1351  0.1758 -1.6281
15185TIP3   OH266969   4.401   2.714   3.842 -0.3793 -0.6482 -0.3478
15185TIP3    H166970   4.326   2.665   3.876  0.3483 -1.3837  0.2567
15185TIP3    H266971   4.445   2.748   3.920  0.1167 -0.5280 -0.6754
15186TIP3   OH266972   1.800   1.801   4.524 -0.0990  0.3155  0.4094
15186TIP3    H166973   1.855   1.724   4.539 -0.5200 -0.0495  0.1146
15186TIP3    H266974   1.821   1.861   4.595 -0.8665 -0.6931  1.5173
15187TIP3   OH266975   2.622   1.785   0.747 -0.3584  0.5875 -0.7658
15187TIP3    H166976   2.575   1.867   0.761  0.6851  1.1206 -0.2918
15187TIP3    H266977   2.668   1.769   0.830  1.2557  0.7299 -1.5938
15188TIP3   OH266978   4.200   3.316   4.383  0.5118 -0.3481 -0.1030
15188TIP3    H166979   4.184   3.361   4.466  1.6149  0.1271 -0.1290
15188TIP3    H266980   4.235   3.384   4.325  1.8944 -1.1345 -0.2456
15189TIP3   OH266981   1.741   0.809   0.244  0.5388 -0.3387 -0.2082
15189TIP3    H166982   1.824   0.825   0.289  0.8073  3.0914 -1.6113
15189TIP3    H266983   1.756   0.731   0.191  2.6816 -0.1534  0.0705
15190TIP3   OH266984   0.457   1.652  15.801 -0.1392  0.1051  0.4236
15190TIP3    H166985   0.456   1.731  15.856 -0.3154  0.2013  0.2848
15190TIP3    H266986   0.504   1.587  15.853  2.1967  1.0032 -0.4229
15191TIP3   OH266987   0.622   2.543  14.388  0.5491 -0.2080 -0.1821
15191TIP3    H166988   0.664   2.559  14.304 -0.0578 -0.5197 -0.5525
15191TIP3    H266989   0.532   2.573  14.376  0.5234 -0.0062  0.4449
15192TIP3   OH266990   3.662   0.899   3.348 -0.0260 -0.4196  0.2175
15192TIP3    H166991   3.612   0.863   3.274 -1.1071  0.8872  0.2802
15192TIP3    H266992   3.752   0.901   3.318 -0.1516 -1.7205 -0.3362
15193TIP3   OH266993   5.433   2.662  13.271 -0.6415  0.2327  0.0258
15193TIP3    H166994   5.487   2.591  13.304 -0.0130  0.9276  0.5176
15193TIP3    H266995   5.485   2.741  13.285 -1.3558  0.8034 -0.4423
15194TIP3   OH266996   0.275   6.631  14.017 -0.5614 -0.2585 -0.7209
15194TIP3    H166997   0.299   6.707  13.965  0.5086  0.7688  1.1696
15194TIP3    H266998   0.347   6.569  14.004  1.4246  1.2856  1.9189
15195TIP3   OH266999   6.535   0.251   4.428 -0.3256 -0.1812  0.0717
15195TIP3    H167000   6.511   0.193   4.355 -0.4370 -0.3567  0.2473
15195TIP3    H267001   6.620   0.218   4.457 -1.1517 -1.3478  1.2798
15196TIP3   OH267002   6.380   3.608  13.841 -0.2283 -0.3167 -0.0148
15196TIP3    H167003   6.420   3.688  13.875  0.7864 -1.2128  0.9657
15196TIP3    H267004   6.413   3.602  13.751 -1.8798  1.3645 -0.8027
15197TIP3   OH267005   2.096   5.013   2.973 -0.2889  0.2559 -0.0566
15197TIP3    H167006   2.146   4.955   2.915  0.1767  0.5420  0.0579
15197TIP3    H267007   2.055   5.076   2.914 -0.8545 -0.2291 -0.1887
15198TIP3   OH267008   6.015   1.994  11.646 -0.7256  0.0917 -0.0709
15198TIP3    H167009   6.056   1.976  11.561 -2.2705 -0.8078 -0.6523
15198TIP3    H267010   6.073   1.951  11.710 -0.0348  0.0185 -0.7318
15199TIP3   OH267011   2.650   5.321  12.429 -0.0272 -0.2409  0.4604
15199TIP3    H167012   2.652   5.227  12.413  1.8247 -0.5055  1.9232
15199TIP3    H267013   2.705   5.358  12.360 -0.8103 -0.1979 -0.1567
15200TIP3   OH267014   5.607   1.433   1.700  0.5815  0.3964  0.3667
15200TIP3    H167015   5.613   1.528   1.689  0.7039  0.3342 -0.1374
15200TIP3    H267016   5.669   1.398   1.636 -0.6225 -0.0672 -0.5906
15201TIP3   OH267017   0.517   5.683  13.642 -0.0655  0.7025 -0.4357
15201TIP3    H167018   0.567   5.712  13.718  1.5018  0.2902 -1.2670
15201TIP3    H267019   0.555   5.731  13.568  2.9571 -3.4062 -1.9713
15202TIP3   OH267020   0.037   2.421   5.780  0.0629  0.5322  0.0352
15202TIP3    H167021   0.082   2.346   5.741  0.4075  1.0781 -0.6460
15202TIP3    H267022  -0.020   2.383   5.846 -0.0316 -0.3603 -0.5441
15203TIP3   OH267023   4.698   4.954  11.051 -0.0427  0.0360  0.2172
15203TIP3    H167024   4.640   4.927  11.122 -1.6844 -2.1246 -1.7763
15203TIP3    H267025   4.654   5.029  11.011 -0.2925 -0.1550  0.1295
15204TIP3   OH267026   3.811   5.270  12.233 -0.3219  0.2133  0.2943
15204TIP3    H167027   3.816   5.289  12.326  0.2365  0.0751  0.2954
15204TIP3    H267028   3.737   5.209  12.225 -2.2866  2.4457  0.2641
15205TIP3   OH267029   1.913   5.502  14.109  0.4298 -0.1090  0.5020
15205TIP3    H167030   1.979   5.523  14.043 -0.9546  0.5526 -0.7270
15205TIP3    H267031   1.834   5.483  14.058 -0.8786  1.1246  1.9725
15206TIP3   OH267032   3.739   5.201  17.067 -0.2369 -0.2415  0.4219
15206TIP3    H167033   3.649   5.170  17.058  0.1220 -1.6063  1.2771
15206TIP3    H267034   3.735   5.267  17.136 -0.7468  0.5408 -0.3272
15207TIP3   OH267035   0.812   2.261  16.131  0.1974  0.1335 -0.0944
15207TIP3    H167036   0.871   2.248  16.206  0.1026  2.4039  0.4402
15207TIP3    H267037   0.848   2.204  16.063  2.3819  0.5775  0.5859
15208TIP3   OH267038   4.711   5.169  16.060 -0.0389 -0.2832 -0.3353
15208TIP3    H167039   4.792   5.124  16.085 -1.1740 -1.2811  1.8440
15208TIP3    H267040   4.728   5.261  16.081  0.7351 -0.3807 -0.4869
15209TIP3   OH267041   0.720   4.365   6.053  0.8724 -0.1488  0.3759
15209TIP3    H167042   0.645   4.311   6.076  0.6373 -0.0115 -0.0512
15209TIP3    H267043   0.796   4.309   6.068  0.7858  0.1671  2.1669
15210TIP3   OH267044   2.539   2.985   4.203  0.0214  0.5077  0.3449
15210TIP3    H167045   2.632   2.964   4.196 -0.2185 -0.4362 -0.1091
15210TIP3    H267046   2.523   2.989   4.298  0.4533  0.3671  0.4263
15211TIP3   OH267047   1.384   5.553  12.967 -0.0958  0.3705  0.4371
15211TIP3    H167048   1.314   5.495  12.937  0.4921  0.9779 -2.3705
15211TIP3    H267049   1.456   5.494  12.988 -0.6961 -0.1152  1.1983
15212TIP3   OH267050   4.292   4.644   5.367  0.0851  0.0064 -0.0096
15212TIP3    H167051   4.314   4.644   5.460  0.9874 -0.7401 -0.2007
15212TIP3    H267052   4.363   4.694   5.326 -0.5245  0.6792 -0.2529
15213TIP3   OH267053   6.006   5.910   5.529  0.0175 -0.6406  0.3547
15213TIP3    H167054   5.958   5.840   5.485  0.5634 -0.4739 -0.5245
15213TIP3    H267055   5.971   5.911   5.618 -2.5291  0.2951 -0.5522
15214TIP3   OH267056   0.777   4.296  16.142 -0.0553 -0.3133  0.4019
15214TIP3    H167057   0.728   4.357  16.197 -0.3012 -0.4888  0.3806
15214TIP3    H267058   0.719   4.279  16.068  0.3661  0.0938 -0.0266
15215TIP3   OH267059   4.368   1.751   2.842  0.0042 -0.3951 -0.2562
15215TIP3    H167060   4.319   1.671   2.855  1.1652 -0.7693  2.5144
15215TIP3    H267061   4.427   1.756   2.917  1.7729  1.7614 -1.6457
15216TIP3   OH267062   4.846   4.814  14.633 -0.1359 -0.7441 -0.3869
15216TIP3    H167063   4.853   4.910  14.638 -1.8394 -0.6025 -0.0361
15216TIP3    H267064   4.859   4.794  14.540 -1.6914  0.0574 -0.8147
15217TIP3   OH267065   1.547   5.228   4.075  0.0454  0.2166 -0.0365
15217TIP3    H167066   1.547   5.322   4.056  0.8193  0.0984 -0.7065
15217TIP3    H267067   1.458   5.200   4.056 -0.3957  0.9509  0.9027
15218TIP3   OH267068   5.586   5.873   4.543 -0.5831  0.0965 -0.6516
15218TIP3    H167069   5.659   5.872   4.605  0.1268  2.5835 -1.3528
15218TIP3    H267070   5.616   5.819   4.470 -0.6134 -1.1626  0.2203
15219TIP3   OH267071   0.875   1.748  13.411 -0.0406  0.5988 -0.2437
15219TIP3    H167072   0.796   1.800  13.398 -0.8719 -0.6312 -0.3648
15219TIP3    H267073   0.887   1.702  13.327 -0.2411 -0.5715  0.3541
15220TIP3   OH267074   1.589   1.931   3.925 -0.3168  0.1380 -0.2467
15220TIP3    H167075   1.500   1.964   3.916 -0.7929 -1.3039 -0.9836
15220TIP3    H267076   1.629   1.944   3.839 -0.4596 -1.0326 -0.4990
15221TIP3   OH267077   6.654   1.400  11.117 -0.2572 -0.3632 -0.0285
15221TIP3    H167078   6.563   1.430  11.124  0.3400  1.3736  1.0620
15221TIP3    H267079   6.657   1.350  11.036 -1.7244  1.4178 -1.2678
15222TIP3   OH267080   3.131   0.258  11.008  0.5214 -0.0281  0.1554
15222TIP3    H167081   3.225   0.265  11.025  0.2577  0.8056  1.3947
15222TIP3    H267082   3.124   0.259  10.912  1.7398  0.2370  0.0487
15223TIP3   OH267083   5.505   4.547   5.410  0.1562  0.4457  0.2625
15223TIP3    H167084   5.456   4.587   5.481 -0.0996  2.4110 -0.9630
15223TIP3    H267085   5.467   4.584   5.330  0.1070 -2.0308 -0.9840
15224TIP3   OH267086   1.014   2.545  15.481 -0.1743 -0.3118 -0.2213
15224TIP3    H167087   0.977   2.479  15.422  0.1151 -0.9437  0.2904
15224TIP3    H267088   1.051   2.611  15.423 -0.3167 -0.6851 -0.7456
15225TIP3   OH267089   1.125   5.902   5.965 -0.6058  0.4405  0.1799
15225TIP3    H167090   1.053   5.916   6.026 -0.4813  1.4084  0.1254
15225TIP3    H267091   1.140   5.988   5.925  0.9412  0.4134  0.6081
15226TIP3   OH267092   4.346   3.354   2.073 -0.0172  0.5134  0.5744
15226TIP3    H167093   4.333   3.421   2.139 -1.1038  2.1806 -1.2196
15226TIP3    H267094   4.324   3.397   1.990  1.5741 -1.3739 -0.9381
15227TIP3   OH267095   1.559   3.118  16.260 -0.3595 -0.2905  0.3453
15227TIP3    H167096   1.510   3.045  16.297 -0.5664  0.0850  0.8141
15227TIP3    H267097   1.638   3.123  16.314 -0.1506 -0.4280  0.0540
15228TIP3   OH267098   0.125   0.860   2.347  0.5203  0.0320 -0.5782
15228TIP3    H167099   0.049   0.903   2.387  0.1611 -1.8228  0.8476
15228TIP3    H267100   0.198   0.887   2.402  1.4715  3.5864 -3.1651
15229TIP3   OH267101   1.248   0.054   5.903 -0.2447  0.1324  1.0438
15229TIP3    H167102   1.243   0.143   5.941 -0.8082 -0.0796  1.4935
15229TIP3    H267103   1.244  -0.004   5.979  1.4290 -0.2731  0.8508
15230TIP3   OH267104   1.277   3.296  17.051 -0.0902 -0.4733  0.7341
15230TIP3    H167105   1.196   3.247  17.067 -0.0437 -0.4894  0.9311
15230TIP3    H267106   1.330   3.280  17.130  0.5943 -1.4262  0.1025
15231TIP3   OH267107   5.354   4.006   5.665  0.1696 -0.2062 -0.5177
15231TIP3    H167108   5.427   4.059   5.630  0.5807  0.7794  1.6446
15231TIP3    H267109   5.321   4.057   5.739 -2.5549 -0.7914 -1.2098
15232TIP3   OH267110   0.699   3.510   4.947  0.0212  0.6955 -0.0748
15232TIP3    H167111   0.612   3.470   4.949  0.7666 -0.9634  0.1780
15232TIP3    H267112   0.744   3.467   4.875  1.4315 -0.2249  1.3105
15233TIP3   OH267113   1.019   3.098   4.270 -0.6035 -0.2117  0.0850
15233TIP3    H167114   0.939   3.137   4.237 -0.4417 -0.6719 -0.8617
15233TIP3    H267115   1.063   3.170   4.317 -1.2376  0.2128  0.0384
15234TIP3   OH267116   0.604   1.901  10.639 -0.2221 -0.4312 -0.6159
15234TIP3    H167117   0.532   1.844  10.610 -0.6945 -0.6457  0.8811
15234TIP3    H267118   0.678   1.841  10.651 -0.8183 -0.8525  1.3082
15235TIP3   OH267119   0.391   5.199  11.136 -0.5044  0.4558  0.3760
15235TIP3    H167120   0.344   5.118  11.156 -1.7619  0.8479 -0.8120
15235TIP3    H267121   0.417   5.189  11.044  1.0068  0.6247  0.7579
15236TIP3   OH267122   0.735   1.129  14.412 -0.0526 -0.0972 -0.2964
15236TIP3    H167123   0.738   1.224  14.413  1.2310 -0.0943 -1.6816
15236TIP3    H267124   0.769   1.104  14.327  0.0015 -1.8144  0.1834
15237TIP3   OH267125   1.121   1.222   2.910 -0.4007 -0.3211 -0.6231
15237TIP3    H167126   1.167   1.141   2.934 -1.0998 -1.2706 -2.3442
15237TIP3    H267127   1.041   1.220   2.963  0.1411 -0.1118  0.2365
15238TIP3   OH267128   2.642   1.230  15.109  0.2775  0.3903 -0.7335
15238TIP3    H167129   2.721   1.194  15.069 -0.4968 -1.1888 -0.9206
15238TIP3    H267130   2.630   1.178  15.189 -0.6391  0.5291 -0.7719
15239TIP3   OH267131   0.818   1.371  11.051 -0.3567 -0.3666  0.4309
15239TIP3    H167132   0.841   1.285  11.015  0.5817 -0.8438  2.0693
15239TIP3    H267133   0.726   1.361  11.078 -1.2283  0.1301 -2.0310
15240TIP3   OH267134   0.753   0.531  15.368  0.0365 -0.3016 -0.5143
15240TIP3    H167135   0.797   0.613  15.348 -0.7010  0.2429  0.0540
15240TIP3    H267136   0.732   0.537  15.461  0.5707 -1.4255 -0.3001
15241TIP3   OH267137   3.503   4.078   1.738  0.2137  0.2204 -0.3743
15241TIP3    H167138   3.408   4.075   1.736 -0.0184  0.1997  3.2381
15241TIP3    H267139   3.531   3.990   1.711 -1.0747 -1.0680  2.1464
15242TIP3   OH267140   5.461   5.052   1.947 -0.2219  0.3334 -0.0063
15242TIP3    H167141   5.461   5.005   1.863  0.2962  0.1850  0.0734
15242TIP3    H267142   5.381   5.105   1.944 -0.6241 -0.2701 -0.2537
15243TIP3   OH267143   1.343   3.710   2.388  0.6725 -0.0475  0.3911
15243TIP3    H167144   1.286   3.741   2.458  1.6752 -0.5253  1.4574
15243TIP3    H267145   1.327   3.616   2.383  0.8484 -0.0710  0.2137
15244TIP3   OH267146   1.653   2.269   1.826  0.0439 -0.3897  0.5595
15244TIP3    H167147   1.607   2.250   1.744 -0.7743  1.6895  0.4643
15244TIP3    H267148   1.715   2.198   1.836 -0.3395 -1.0774 -1.5018
15245TIP3   OH267149   5.613   0.451  15.378  0.0059  0.6848 -0.6027
15245TIP3    H167150   5.642   0.472  15.466  0.9792  0.6711 -0.9035
15245TIP3    H267151   5.600   0.356  15.379 -1.4776  0.8750 -0.0661
15246TIP3   OH267152   3.585   2.382   5.345 -0.3666  0.0853 -0.4153
15246TIP3    H167153   3.538   2.341   5.418  1.7530 -2.7369 -0.4667
15246TIP3    H267154   3.535   2.461   5.326 -2.3019 -0.2566  2.5739
15247TIP3   OH267155   4.656   2.409  16.015  0.1967 -0.2302 -0.3909
15247TIP3    H167156   4.647   2.475  15.947  0.0926 -1.7093 -1.8939
15247TIP3    H267157   4.747   2.380  16.008 -0.1080 -1.1547 -0.6553
15248TIP3   OH267158   0.313   2.275   5.885  0.4320 -0.0394 -0.0191
15248TIP3    H167159   0.329   2.290   5.978  2.0014  0.1209 -0.2901
15248TIP3    H267160   0.279   2.186   5.881  1.2033 -0.3781  0.6402
15249TIP3   OH267161   4.709   2.494  12.404 -0.2526  0.1717  0.0904
15249TIP3    H167162   4.722   2.453  12.490  0.1297 -0.2106 -0.1440
15249TIP3    H267163   4.744   2.582  12.413  0.6243 -0.1622  0.0743
15250TIP3   OH267164   1.950   1.153   5.174 -0.2185 -0.0137  0.3795
15250TIP3    H167165   1.900   1.211   5.116  1.0015  0.7885  0.1033
15250TIP3    H267166   1.885   1.121   5.237 -1.3248  0.0413 -0.6888
15251TIP3   OH267167   1.724   6.521  14.703 -0.0069  0.2446 -0.7937
15251TIP3    H167168   1.780   6.500  14.628 -0.0654  0.6789 -0.9651
15251TIP3    H267169   1.685   6.605  14.680 -0.9640 -0.1925 -0.7993
15252TIP3   OH267170   4.508   4.875  11.248 -0.0959 -0.0339  0.1876
15252TIP3    H167171   4.429   4.922  11.276 -1.4463 -0.9423 -1.8625
15252TIP3    H267172   4.506   4.793  11.297 -1.2188 -0.6479 -0.8329
15253TIP3   OH267173   4.868   0.110   5.384 -0.1677 -0.3057  0.0497
15253TIP3    H167174   4.858   0.185   5.325  1.2075 -0.1228  0.0058
15253TIP3    H267175   4.821   0.135   5.463 -2.1683 -0.6081 -0.9726
15254TIP3   OH267176   6.108   6.152  11.370 -0.2146 -0.0509  0.7148
15254TIP3    H167177   6.173   6.203  11.418  1.4225 -1.6143  0.2747
15254TIP3    H267178   6.159   6.103  11.306 -1.7374 -1.8647  0.8087
15255TIP3   OH267179   6.652   4.191  13.779  0.5523 -0.0382  0.4464
15255TIP3    H167180   6.622   4.237  13.858  0.5754 -2.2683  1.8569
15255TIP3    H267181   6.598   4.111  13.777 -0.7946  0.7902 -2.9215
15256TIP3   OH267182   0.164   1.211   2.350  0.1367  0.2635 -0.3835
15256TIP3    H167183   0.201   1.140   2.402 -0.2139 -1.0126 -1.8057
15256TIP3    H267184   0.234   1.234   2.289  0.2679  1.2096  0.1042
15257TIP3   OH267185   3.101   3.706  16.009 -0.5191 -0.7366 -0.3514
15257TIP3    H167186   3.108   3.640  16.078 -1.7759  0.8970  1.4376
15257TIP3    H267187   3.029   3.676  15.954 -0.4663 -1.3261 -0.1087
15258TIP3   OH267188   1.217   2.533  15.682 -0.3470  0.0016  0.5631
15258TIP3    H167189   1.284   2.479  15.642  0.2041 -0.6000  2.2089
15258TIP3    H267190   1.149   2.541  15.615  0.3943 -1.1739 -0.3692
15259TIP3   OH267191   3.124   0.942  16.510 -0.0053  0.4088  0.2033
15259TIP3    H167192   3.201   0.886  16.507 -0.8291 -0.8949  1.7673
15259TIP3    H267193   3.080   0.927  16.426  0.5466 -0.1493  0.0044
15260TIP3   OH267194   1.520   4.028   2.489  0.3302 -0.5069 -0.3240
15260TIP3    H167195   1.605   4.070   2.505 -0.3157  0.4879  0.6897
15260TIP3    H267196   1.539   3.935   2.485  1.7374 -0.1950 -2.0544
15261TIP3   OH267197   0.457   2.107   3.425 -0.3267  0.1359  0.1855
15261TIP3    H167198   0.370   2.140   3.448 -0.4039 -1.7074  3.0459
15261TIP3    H267199   0.442   2.016   3.400  0.6393  0.1821 -0.5930
15262TIP3   OH267200   5.073   2.582  11.267 -0.2739  0.8364  0.6614
15262TIP3    H167201   5.101   2.616  11.183 -0.2438 -1.3203 -0.2627
15262TIP3    H267202   5.105   2.646  11.331  3.1928  0.6057 -0.6388
15263TIP3   OH267203   5.132   5.897   6.393  0.0570  0.0527  0.4286
15263TIP3    H167204   5.171   5.837   6.457  1.3186 -0.6953 -0.9792
15263TIP3    H267205   5.178   5.980   6.405 -0.4569  0.2406  1.1814
15264TIP3   OH267206   1.304   4.972  13.362 -0.5254  0.1428  0.4924
15264TIP3    H167207   1.277   4.952  13.272  0.2473 -0.7748  0.4361
15264TIP3    H267208   1.274   5.061  13.378  1.3029  1.2190 -1.5061
15265TIP3   OH267209   5.941   2.732  17.161  0.1133 -0.2162 -0.4265
15265TIP3    H167210   5.874   2.796  17.135  0.4293  0.0939 -0.4958
15265TIP3    H267211   5.894   2.650  17.173 -0.2994  0.0346 -0.3358
15266TIP3   OH267212   4.398   3.623  15.626 -0.0608 -0.4484  0.3836
15266TIP3    H167213   4.404   3.662  15.713 -0.5249 -0.9150  0.6250
15266TIP3    H267214   4.307   3.594  15.618  0.0171 -0.5518 -0.1946
15267TIP3   OH267215   4.484   5.617  11.749  0.4360 -0.1714  0.4846
15267TIP3    H167216   4.554   5.663  11.794  0.0955 -0.5841  1.4486
15267TIP3    H267217   4.510   5.525  11.751  0.5876 -0.1656 -0.4908
15268TIP3   OH267218   0.345   2.496  16.374  0.6201 -0.0587 -0.2412
15268TIP3    H167219   0.319   2.557  16.305 -0.4939 -0.0479  0.1655
15268TIP3    H267220   0.311   2.535  16.455  1.9643 -0.0380  0.3397
15269TIP3   OH267221   4.168   0.394  15.610 -0.2526 -0.1158 -0.6380
15269TIP3    H167222   4.129   0.349  15.684 -0.8470  2.7381  0.9489
15269TIP3    H267223   4.102   0.459  15.584  1.6421  1.8938 -0.7589
15270TIP3   OH267224   2.030   4.853   4.543 -0.2584  0.2212  0.0890
15270TIP3    H167225   1.977   4.788   4.589  1.1422 -1.1476 -0.1193
15270TIP3    H267226   2.107   4.864   4.598  0.2355  0.5277 -0.6476
15271TIP3   OH267227   6.747   6.272  12.646 -0.1429  0.3865 -0.4991
15271TIP3    H167228   6.734   6.348  12.703 -3.2171 -1.6699  1.9233
15271TIP3    H267229   6.743   6.307  12.557  1.6414  3.3567  0.4526
15272TIP3   OH267230   1.009   5.557  12.841 -0.3814 -0.5943 -0.1265
15272TIP3    H167231   1.081   5.498  12.865 -0.8898 -0.9209  0.6545
15272TIP3    H267232   0.947   5.550  12.914 -0.6087  0.6682 -0.1709
15273TIP3   OH267233   4.282   4.389  15.181  0.5001  0.2251  0.1236
15273TIP3    H167234   4.266   4.445  15.105  2.4092 -0.4110 -0.7965
15273TIP3    H267235   4.369   4.414  15.211  1.8377 -2.8122 -0.8707
15274TIP3   OH267236   1.783   6.504  10.618  0.3370  0.1109 -0.2091
15274TIP3    H167237   1.842   6.507  10.543 -1.0556 -0.9119 -1.4228
15274TIP3    H267238   1.803   6.421  10.661  1.8282  1.1516  1.2097
15275TIP3   OH267239   2.859   4.326  13.028 -0.2665  0.9329 -0.2650
15275TIP3    H167240   2.781   4.338  13.081  0.4912  2.3221  0.6118
15275TIP3    H267241   2.918   4.396  13.056  0.6168  1.0047 -2.1400
15276TIP3   OH267242   4.686   4.437  11.683 -0.0616  0.0526 -0.0474
15276TIP3    H167243   4.746   4.507  11.710 -0.4752 -0.4470  2.4586
15276TIP3    H267244   4.735   4.356  11.699  0.2551 -0.3158 -2.5230
15277TIP3   OH267245   3.589   3.321   0.253  0.1484  0.3045 -0.4831
15277TIP3    H167246   3.675   3.279   0.258 -0.6053 -1.4895 -1.6303
15277TIP3    H267247   3.531   3.254   0.217 -2.0627  0.9923  1.4922
15278TIP3   OH267248   2.778   5.224   5.004  0.8355  0.3439  0.0968
15278TIP3    H167249   2.838   5.196   4.935  0.6644  1.8837 -0.7179
15278TIP3    H267250   2.818   5.191   5.085  2.7836  1.2928 -0.4157
15279TIP3   OH267251   1.105   6.724   0.149  0.0024  0.0914  0.1920
15279TIP3    H167252   1.195   6.705   0.124  0.1236 -0.1092  0.7616
15279TIP3    H267253   1.105   6.719   0.244 -0.4807  0.6738  0.2291
15280TIP3   OH267254   3.162   5.913   6.515  0.0364  0.1138  0.1767
15280TIP3    H167255   3.209   5.829   6.514 -0.2347 -0.0340 -0.2593
15280TIP3    H267256   3.221   5.973   6.469 -0.4622 -0.2213 -0.9368
15281TIP3   OH267257   4.986   5.875  12.043  0.5909  0.0316 -0.4030
15281TIP3    H167258   4.980   5.888  12.138  0.6619 -0.6832 -0.2978
15281TIP3    H267259   4.993   5.780  12.032  1.7819  0.1800 -1.0579
15282TIP3   OH267260   6.700   2.923   4.298 -0.1374  0.4991 -0.9085
15282TIP3    H167261   6.777   2.883   4.339 -0.8260 -0.1213 -0.1739
15282TIP3    H267262   6.698   2.887   4.210  0.2655  0.3166 -0.8450
15283TIP3   OH267263   1.429   0.556   4.949 -0.0635  0.5073  0.2010
15283TIP3    H167264   1.347   0.604   4.962 -0.1702  0.5572 -0.6151
15283TIP3    H267265   1.411   0.468   4.983 -0.6630  0.3347 -0.5370
15284TIP3   OH267266   3.739   2.079   5.549  0.0618 -0.0547 -0.7249
15284TIP3    H167267   3.731   2.060   5.455  0.1909  0.1885 -0.7864
15284TIP3    H267268   3.819   2.130   5.556 -0.6046  1.0057 -0.6432
15285TIP3   OH267269   2.428   0.675  15.890 -0.2224  0.1202  0.5238
15285TIP3    H167270   2.436   0.765  15.920 -1.8348  0.5609 -0.2608
15285TIP3    H267271   2.437   0.622  15.969  0.8347  0.9355  0.9751
15286TIP3   OH267272   5.396   5.194  13.413  0.0605  0.4846  0.1453
15286TIP3    H167273   5.378   5.219  13.322 -0.5773 -0.1440  0.0856
15286TIP3    H267274   5.312   5.159  13.445  0.1159  1.2732  1.1725
15287TIP3   OH267275   0.768   1.786  16.581 -0.1132 -0.9226  0.5640
15287TIP3    H167276   0.811   1.769  16.498 -0.8775 -2.8813  0.4980
15287TIP3    H267277   0.676   1.764  16.565 -0.6908  0.7325  1.3683
15288TIP3   OH267278   3.297   1.770   0.534 -0.2448  0.6204  0.0026
15288TIP3    H167279   3.366   1.830   0.505 -0.0633  0.6543  0.5003
15288TIP3    H267280   3.251   1.746   0.454 -0.6442  1.8219 -0.1533
15289TIP3   OH267281   4.533   6.340   2.580 -0.6605 -0.5114 -0.2924
15289TIP3    H167282   4.593   6.305   2.645 -0.8312 -1.2417 -0.5133
15289TIP3    H267283   4.557   6.432   2.572 -0.3502 -0.5145  0.4756
15290TIP3   OH267284   2.031   0.405   5.413 -0.3368  0.2638  0.1152
15290TIP3    H167285   2.050   0.319   5.375 -1.2360  0.0945  0.0266
15290TIP3    H267286   2.117   0.440   5.437  0.0916 -0.3924 -0.4181
15291TIP3   OH267287   6.676   2.905  10.900  0.0987 -0.1615  0.6361
15291TIP3    H167288   6.621   2.847  10.953  1.6792 -1.4407  0.9621
15291TIP3    H267289   6.683   2.860  10.815 -0.2353  0.5365  0.2310
15292TIP3   OH267290   0.812   6.010  14.612 -0.3380  0.1871 -0.1215
15292TIP3    H167291   0.851   6.055  14.687 -1.3494 -0.3931  0.7846
15292TIP3    H267292   0.773   6.080  14.560 -0.3329  0.5338  0.3287
15293TIP3   OH267293   2.388   6.192  17.030  0.0466  0.1253  0.2781
15293TIP3    H167294   2.454   6.148  16.978 -0.0080 -0.3689  0.6237
15293TIP3    H267295   2.305   6.155  17.000 -0.0086  0.0915  0.4697
15294TIP3   OH267296   0.068   5.939   4.715  0.4042 -0.6575  0.1098
15294TIP3    H167297   0.090   6.030   4.735 -1.0144 -0.2017 -0.2834
15294TIP3    H267298   0.056   5.897   4.800  2.4247 -0.8597  0.3308
15295TIP3   OH267299   2.688   1.821  13.295  0.2815  0.3167 -0.1126
15295TIP3    H167300   2.719   1.833  13.205  1.7962 -1.4105  0.1310
15295TIP3    H267301   2.593   1.811  13.286  0.2713  1.2339 -1.3740
15296TIP3   OH267302   6.644   6.136  14.067  0.0063  0.3919  0.2702
15296TIP3    H167303   6.613   6.061  14.016 -2.2437  0.6878  1.0979
15296TIP3    H267304   6.645   6.208  14.005 -0.8356  0.3306  0.1770
15297TIP3   OH267305   5.009   4.342  13.140  0.2985 -0.1920 -0.2439
15297TIP3    H167306   5.040   4.253  13.155  2.0436  0.4479  0.2879
15297TIP3    H267307   4.940   4.333  13.075 -1.9477 -2.2455  2.2054
15298TIP3   OH267308   1.146   1.633   0.879 -0.1718  0.2313  0.1164
15298TIP3    H167309   1.182   1.565   0.823  0.9329  0.9740 -0.1198
15298TIP3    H267310   1.175   1.715   0.839  0.8229  0.7829  1.8569
15299TIP3   OH267311   3.697   5.493   4.855 -0.1789 -0.2932 -0.9053
15299TIP3    H167312   3.690   5.588   4.862  0.1313 -0.3506  0.4717
15299TIP3    H267313   3.791   5.475   4.864 -0.3396 -0.7923 -0.1606
15300TIP3   OH267314   0.508   0.255   3.165 -0.1050  0.0861 -0.3397
15300TIP3    H167315   0.581   0.260   3.227 -0.2694 -0.7793 -0.0587
15300TIP3    H267316   0.494   0.161   3.152 -0.7948  0.2468 -0.8404
15301TIP3   OH267317   2.926   6.443  14.883 -0.5488 -0.9030 -0.2101
15301TIP3    H167318   2.859   6.486  14.831 -1.4218 -0.5126  1.1854
15301TIP3    H267319   3.004   6.497  14.871 -0.8175 -0.6472 -0.8486
15302TIP3   OH267320   5.515   5.040  16.376  0.0295 -0.6475  0.5139
15302TIP3    H167321   5.439   5.055  16.433 -0.2628 -0.7175  0.1450
15302TIP3    H267322   5.590   5.041  16.435 -0.1834  0.1884  0.7876
15303TIP3   OH267323   3.056   4.052  12.316 -0.2953 -0.3504 -0.3199
15303TIP3    H167324   3.069   4.036  12.223  0.8244 -0.9500 -0.0834
15303TIP3    H267325   3.138   4.092  12.346 -0.1630 -1.2505  0.6163
15304TIP3   OH267326   0.112   2.183   5.638 -0.0650 -0.0503  0.3968
15304TIP3    H167327   0.086   2.097   5.671 -0.6607  0.0494  0.2058
15304TIP3    H267328   0.207   2.177   5.626 -0.1161 -0.7045  0.3010
15305TIP3   OH267329   3.891   6.316  13.153  0.4213 -0.3769  0.2577
15305TIP3    H167330   3.890   6.397  13.102  1.6947 -1.0790 -0.9597
15305TIP3    H267331   3.799   6.296  13.169  0.0888  1.1738  0.3703
15306TIP3   OH267332   0.653   2.815   6.901 -0.2336 -0.4627 -0.4106
15306TIP3    H167333   0.692   2.757   6.836 -2.0847 -0.7762 -1.3000
15306TIP3    H267334   0.560   2.815   6.881 -0.7903 -0.0614  1.8612
15307TIP3   OH267335   2.612   2.055  14.709  0.3001 -0.5979 -0.7109
15307TIP3    H167336   2.600   1.992  14.638 -1.6543 -1.8774  0.6571
15307TIP3    H267337   2.528   2.101  14.714 -0.0733 -1.4187  1.5405
15308TIP3   OH267338   0.041   2.870   6.512  0.3718  0.6162 -0.0262
15308TIP3    H167339   0.092   2.789   6.513 -0.2306  0.1239  3.3865
15308TIP3    H267340   0.101   2.936   6.547  0.2751  1.2892 -1.0699
15309TIP3   OH267341   2.036   3.439   1.475 -0.1263 -0.0468 -0.9565
15309TIP3    H167342   1.966   3.405   1.531 -0.4151 -0.2885 -1.4559
15309TIP3    H267343   2.036   3.533   1.491 -0.3341 -0.0884 -0.6981
15310TIP3   OH267344   5.381   6.787   1.382 -0.1221 -0.6976 -0.6128
15310TIP3    H167345   5.428   6.826   1.456  0.5698 -0.3289 -1.2340
15310TIP3    H267346   5.324   6.721   1.422 -0.6425  0.3128  0.3678
15311TIP3   OH267347   1.585   6.156  16.143 -0.4221 -0.5446  0.3351
15311TIP3    H167348   1.533   6.077  16.135  0.4404 -1.1627  0.6975
15311TIP3    H267349   1.609   6.161  16.235 -0.2305 -0.0117  0.2635
15312TIP3   OH267350   3.583   2.837  12.992 -0.0955 -0.8654 -0.1945
15312TIP3    H167351   3.636   2.845  12.913 -0.7218 -1.7928 -0.7276
15312TIP3    H267352   3.497   2.870  12.966 -0.0025 -0.1132  0.4325
15313TIP3   OH267353   4.427   5.382  14.387  0.2634  0.0432 -0.2090
15313TIP3    H167354   4.461   5.312  14.331  0.3882  0.8028 -1.1067
15313TIP3    H267355   4.478   5.459  14.362 -1.5822  1.0476 -1.0473
15314TIP3   OH267356   1.112   3.725   4.562 -0.7422 -0.6624  0.5165
15314TIP3    H167357   1.093   3.676   4.482 -0.1964 -1.4171  0.8407
15314TIP3    H267358   1.178   3.673   4.607  0.5686  0.8480  0.4221
15315TIP3   OH267359   2.701   0.639  12.182  0.6478  0.1223 -0.1980
15315TIP3    H167360   2.659   0.622  12.267 -0.2546  2.0171 -0.2295
15315TIP3    H267361   2.726   0.552  12.151 -0.1570 -0.7444  1.4120
15316TIP3   OH267362   1.420   5.919  11.848  0.4917  0.1012 -0.1828
15316TIP3    H167363   1.363   5.881  11.781  0.7502  0.2366 -0.4804
15316TIP3    H267364   1.415   5.857  11.921 -0.4262  0.3627 -0.0048
15317TIP3   OH267365   6.682   4.009  15.874  0.1625  0.5750 -0.6649
15317TIP3    H167366   6.649   4.084  15.923 -0.1415  0.4940 -0.7453
15317TIP3    H267367   6.771   3.997  15.907  1.0481  2.3645 -2.2373
15318TIP3   OH267368   1.518   0.348  13.664 -0.4827  0.4897  0.5476
15318TIP3    H167369   1.468   0.336  13.745 -1.5079  1.2463  0.0542
15318TIP3    H267370   1.452   0.354  13.595  0.4216 -1.6447 -0.5919
15319TIP3   OH267371   0.649   1.234  12.327 -0.0342  0.1252 -0.3279
15319TIP3    H167372   0.615   1.205  12.242  1.6060 -1.4740 -0.5018
15319TIP3    H267373   0.607   1.319  12.341 -0.5353  0.3493 -2.6187
15320TIP3   OH267374   4.795   0.236   4.841  0.2397  0.4711 -0.3244
15320TIP3    H167375   4.723   0.191   4.886  0.9436 -0.2323  0.1216
15320TIP3    H267376   4.840   0.166   4.792  0.7649  0.8634 -0.4071
15321TIP3   OH267377   5.537   4.326  15.884 -0.9769  0.0197  0.0123
15321TIP3    H167378   5.465   4.384  15.857 -0.8751 -0.0293 -0.3712
15321TIP3    H267379   5.615   4.366  15.846 -0.9498 -0.5583 -0.5564
15322TIP3   OH267380   0.218   3.025   6.637  0.7332 -0.4056  0.1085
15322TIP3    H167381   0.246   3.070   6.716  1.5230  1.9896 -1.4250
15322TIP3    H267382   0.268   3.066   6.567  0.5474 -2.8687 -1.6017
15323TIP3   OH267383   3.763   1.088  16.997  0.5726  0.0145 -0.2425
15323TIP3    H167384   3.746   1.046  17.082 -0.1582  0.3060 -0.2371
15323TIP3    H267385   3.806   1.170  17.020  0.4189  0.0714 -0.1582
15324TIP3   OH267386   4.632   0.169  12.779 -0.2682  0.5661  0.1165
15324TIP3    H167387   4.646   0.195  12.870  1.1608  0.9319 -0.1720
15324TIP3    H267388   4.701   0.214  12.730  0.0149 -0.8869 -0.9178
15325TIP3   OH267389   6.147   2.593   6.047 -0.0119  0.4283 -0.9288
15325TIP3    H167390   6.206   2.545   6.105 -0.8723  1.3761  0.8122
15325TIP3    H267391   6.059   2.567   6.075 -0.4824  2.2649 -0.5645
15326TIP3   OH267392   2.663   5.723  15.741  0.8032 -0.2781  0.2648
15326TIP3    H167393   2.699   5.652  15.795  0.4236 -0.7904 -0.1373
15326TIP3    H267394   2.569   5.720  15.756  0.7413 -0.1313 -0.0743
15327TIP3   OH267395   6.352   1.755   4.230 -0.2972 -0.2455  0.0274
15327TIP3    H167396   6.331   1.661   4.232  0.8073 -0.5065 -0.0927
15327TIP3    H267397   6.445   1.759   4.251 -0.0993  0.7588 -0.9791
15328TIP3   OH267398   2.795   3.610  16.881 -0.0814  0.4150 -0.1475
15328TIP3    H167399   2.884   3.635  16.857 -0.4771  0.1540 -2.1118
15328TIP3    H267400   2.792   3.515  16.866 -1.1424  0.6773 -1.8467
15329TIP3   OH267401   5.812   3.683   4.591 -0.0162 -0.0382 -0.2794
15329TIP3    H167402   5.758   3.715   4.519 -2.0268 -0.7771  0.8290
15329TIP3    H267403   5.752   3.630   4.644  1.8042 -0.8584  1.0464
15330TIP3   OH267404   0.431   2.938  11.636 -0.1250  0.3359 -0.0966
15330TIP3    H167405   0.425   2.998  11.711 -1.0450  1.1066 -0.7480
15330TIP3    H267406   0.344   2.942  11.596  0.4035  0.0890 -1.3157
15331TIP3   OH267407   5.573   1.012   4.543 -0.5026  0.3377  0.4342
15331TIP3    H167408   5.659   0.998   4.584 -0.6725  0.8813  0.9900
15331TIP3    H267409   5.572   0.952   4.469 -0.9611 -2.1304  2.3237
15332TIP3   OH267410   1.394   1.624   1.659 -0.8037 -0.3430  0.8915
15332TIP3    H167411   1.329   1.690   1.683 -0.1099  0.2645  1.1412
15332TIP3    H267412   1.370   1.599   1.570 -0.8587  0.5331  0.6467
15333TIP3   OH267413   4.468   6.236  11.597 -0.1959 -0.5945 -0.5609
15333TIP3    H167414   4.520   6.237  11.677 -1.1679 -0.1550  0.0902
15333TIP3    H267415   4.459   6.328  11.573  0.3390 -0.7391 -1.3615
15334TIP3   OH267416   0.732   5.129   1.447 -0.0348  0.2589  0.1258
15334TIP3    H167417   0.793   5.200   1.424  2.4636 -2.7920 -3.9876
15334TIP3    H267418   0.661   5.137   1.384 -0.4989 -0.0540  0.6050
15335TIP3   OH267419   1.143   3.293  12.283 -0.2461 -0.1293 -0.1782
15335TIP3    H167420   1.208   3.263  12.347 -0.4060 -1.5450 -0.6498
15335TIP3    H267421   1.181   3.373  12.247  0.1753  0.3104  1.1649
15336TIP3   OH267422   2.833   0.867  14.445 -0.2783 -0.4911 -0.5037
15336TIP3    H167423   2.784   0.949  14.440  0.4336 -0.1013 -1.2535
15336TIP3    H267424   2.900   0.874  14.378  1.8797 -0.3090  1.5399
15337TIP3   OH267425   4.187   1.159   0.275 -0.0451  0.1943  0.1249
15337TIP3    H167426   4.144   1.120   0.352  0.3065  1.6775  1.1212
15337TIP3    H267427   4.281   1.148   0.292  0.2206  3.8147  1.8608
15338TIP3   OH267428   1.160   2.214  12.004  0.2314  0.4053 -0.2855
15338TIP3    H167429   1.177   2.307  11.993 -1.4535  1.0530  1.7513
15338TIP3    H267430   1.080   2.198  11.954 -1.1677  0.8136  1.7007
15339TIP3   OH267431   4.970   0.518   5.563 -0.3029  0.7335 -0.5440
15339TIP3    H167432   4.993   0.540   5.654  0.0802  2.1122 -0.9550
15339TIP3    H267433   4.945   0.426   5.567  2.8064 -0.2138  0.4118
15340TIP3   OH267434   6.270   1.482  16.133  0.0642 -0.7145 -0.6160
15340TIP3    H167435   6.300   1.406  16.083 -0.7201 -1.1571 -0.4169
15340TIP3    H267436   6.341   1.498  16.196  0.7038 -0.6277 -1.3314
15341TIP3   OH267437   0.246   0.785  13.694 -0.1707 -0.5531  0.3987
15341TIP3    H167438   0.337   0.758  13.683 -0.2335 -0.6548  0.1106
15341TIP3    H267439   0.196   0.719  13.646 -0.2266  0.9745 -1.8186
15342TIP3   OH267440   5.304   2.321   5.037 -0.0684  0.0674  0.4672
15342TIP3    H167441   5.215   2.330   5.072  0.3721  1.9443  1.2326
15342TIP3    H267442   5.361   2.348   5.109  1.0398  0.4705 -0.5315
15343TIP3   OH267443   3.488   4.238  14.411 -0.2912 -0.2862  0.0542
15343TIP3    H167444   3.453   4.324  14.433  0.1427 -0.2291  0.5326
15343TIP3    H267445   3.458   4.181  14.482 -0.3033 -0.4658 -0.0930
15344TIP3   OH267446   1.733   0.230  14.917  0.1042  0.0265  1.1403
15344TIP3    H167447   1.649   0.232  14.869 -0.5541 -1.6675  2.1124
15344TIP3    H267448   1.787   0.168  14.868 -0.2722 -1.0701  2.0535
15345TIP3   OH267449   1.629   5.623   1.258 -0.1834  0.2049 -0.0179
15345TIP3    H167450   1.706   5.619   1.315 -0.7387  1.3313  0.8620
15345TIP3    H267451   1.584   5.540   1.271  1.9519 -1.4221 -2.1863
15346TIP3   OH267452   5.772   2.190   4.618 -0.3918 -0.3427 -0.1623
15346TIP3    H167453   5.847   2.187   4.559 -0.4487  1.5060 -0.4044
15346TIP3    H267454   5.790   2.264   4.676 -0.7509 -1.5797  1.6063
15347TIP3   OH267455   3.593   5.934  11.611 -0.7455  0.3517  0.2836
15347TIP3    H167456   3.642   5.936  11.529 -0.3783 -0.0007  0.4945
15347TIP3    H267457   3.578   5.842  11.629  0.3016  0.3538  1.2771
15348TIP3   OH267458   6.520   1.152   5.355  0.0163  0.7708  0.1743
15348TIP3    H167459   6.486   1.232   5.316 -0.8742  0.9901  1.3577
15348TIP3    H267460   6.446   1.090   5.353  0.2211  0.4993  0.6798
15349TIP3   OH267461   6.181   4.107   0.411 -0.3581  0.0570  0.8690
15349TIP3    H167462   6.152   4.120   0.321  1.1377  0.3545  0.4114
15349TIP3    H267463   6.199   4.195   0.444 -0.2013 -0.1077  1.2267
15350TIP3   OH267464   1.223   6.727   0.384 -0.6693  0.3156  0.1741
15350TIP3    H167465   1.179   6.671   0.449 -1.4708 -0.8011 -1.2689
15350TIP3    H267466   1.316   6.709   0.397 -0.8786 -0.8690  0.1969
15351TIP3   OH267467   1.757   4.594  13.884 -0.4792  0.1394 -0.3221
15351TIP3    H167468   1.772   4.614  13.792  1.9981  1.4634  0.2510
15351TIP3    H267469   1.683   4.648  13.909 -0.4927  0.5926 -1.3035
15352TIP3   OH267470   1.499   6.592  12.732  0.2829  0.0557 -0.3387
15352TIP3    H167471   1.440   6.655  12.773  0.8202  0.1585  0.3004
15352TIP3    H267472   1.447   6.550  12.664 -0.0667  1.2509 -0.8331
15353TIP3   OH267473   3.543   2.929  12.646 -0.0668 -0.2159  0.3971
15353TIP3    H167474   3.611   2.868  12.674 -1.1144 -1.2245  0.8579
15353TIP3    H267475   3.572   3.014  12.677  0.5540 -0.7662  1.3902
15354TIP3   OH267476   4.569   3.716  13.189  0.5986  0.0207  0.1687
15354TIP3    H167477   4.503   3.757  13.245  1.2945  1.0086  0.2878
15354TIP3    H267478   4.519   3.680  13.115 -0.1970 -0.2983  0.8418
15355TIP3   OH267479   5.921   1.360   4.335 -0.1900 -0.6495  0.1477
15355TIP3    H167480   5.853   1.425   4.353  0.0135 -0.3777 -0.0578
15355TIP3    H267481   5.942   1.323   4.420  0.8872  0.7469  0.5192
15356TIP3   OH267482   2.319   2.043  12.351 -0.1953 -0.3671 -0.1513
15356TIP3    H167483   2.267   2.065  12.273  0.5154  1.7663 -0.0945
15356TIP3    H267484   2.254   2.035  12.421 -0.6696 -0.1472 -0.5554
15357TIP3   OH267485   2.532   0.908  11.859 -0.8582 -0.6117 -0.3031
15357TIP3    H167486   2.490   0.954  11.932  0.1714 -0.1242 -0.0037
15357TIP3    H267487   2.471   0.918  11.786 -0.3572  1.9090 -0.4644
15358TIP3   OH267488   4.741   3.660   3.751 -0.1295 -0.1861  0.3217
15358TIP3    H167489   4.766   3.692   3.664 -0.4836 -0.6941  0.0263
15358TIP3    H267490   4.661   3.610   3.736  2.3231 -4.5137  0.0507
15359TIP3   OH267491   3.688   1.085   1.825  0.3886  0.2156  0.1365
15359TIP3    H167492   3.687   1.112   1.733  1.5696  0.9171  0.3232
15359TIP3    H267493   3.596   1.065   1.844  0.1216  0.0678 -1.1836
15360TIP3   OH267494   2.868   4.097  11.247 -0.1662  0.2932  0.2111
15360TIP3    H167495   2.809   4.163  11.283 -1.1612 -0.1950 -0.4848
15360TIP3    H267496   2.912   4.142  11.174 -1.9221 -0.1880 -1.2167
15361TIP3   OH267497   1.465   1.873  13.856  0.1993  0.1346  0.4458
15361TIP3    H167498   1.400   1.807  13.832  0.4202  0.2378 -0.4896
15361TIP3    H267499   1.426   1.921  13.928  0.2293 -1.3264  1.4937
15362TIP3   OH267500   3.592   1.272  14.260  0.5771  0.3085  0.3578
15362TIP3    H167501   3.570   1.188  14.221  0.8529  0.5567 -0.3471
15362TIP3    H267502   3.535   1.279  14.337 -0.1830 -0.0649 -0.1584
15363TIP3   OH267503   1.063   5.078   3.510  0.7579 -0.3860  0.1398
15363TIP3    H167504   1.145   5.043   3.476 -0.1677 -1.3640 -1.2074
15363TIP3    H267505   1.018   5.114   3.434 -2.0777 -4.0563 -0.2327
15364TIP3   OH267506   2.637   1.587  15.996 -0.9484 -0.5441 -0.2226
15364TIP3    H167507   2.570   1.619  15.936 -0.5266  0.9156  0.0506
15364TIP3    H267508   2.593   1.518  16.046 -1.5098 -1.3192 -1.6949
15365TIP3   OH267509   4.384   4.272  11.031  0.0735 -0.1303 -0.5832
15365TIP3    H167510   4.408   4.357  10.994 -0.2998 -0.4093 -1.5236
15365TIP3    H267511   4.464   4.238  11.069  0.0293  1.0182  0.5859
15366TIP3   OH267512   1.703   5.279  11.730 -0.2314  0.7792 -0.0212
15366TIP3    H167513   1.761   5.244  11.662 -0.3956 -2.3770  1.2501
15366TIP3    H267514   1.616   5.245  11.708 -0.4884  0.6296  1.1186
15367TIP3   OH267515   1.068   1.262  14.602  0.1142  0.4655  0.1383
15367TIP3    H167516   1.136   1.325  14.629 -0.0895 -0.2940  2.6214
15367TIP3    H267517   1.113   1.204  14.541  1.5188  0.4278  1.1612
15368TIP3   OH267518   4.791   0.826   4.876  0.3054 -0.0643  0.0189
15368TIP3    H167519   4.852   0.755   4.853 -0.5010 -0.7106 -0.1741
15368TIP3    H267520   4.763   0.806   4.965 -1.9812 -1.5344 -0.9532
15369TIP3   OH267521   6.656   2.504  11.028  0.2850 -0.0507 -0.4858
15369TIP3    H167522   6.662   2.507  10.932  0.8875  0.8557 -0.4321
15369TIP3    H267523   6.746   2.497  11.058  0.0964 -0.3801  0.0251
15370TIP3   OH267524   2.965   1.777  11.234  0.3089  0.0147 -0.0358
15370TIP3    H167525   3.042   1.769  11.177  0.0944  0.7682 -0.4586
15370TIP3    H267526   2.906   1.834  11.184 -1.1951 -1.8234 -0.4159
15371TIP3   OH267527   6.075   0.457  16.577  0.3677  0.0342  0.2941
15371TIP3    H167528   6.029   0.512  16.514 -0.5197 -0.6525  0.3160
15371TIP3    H267529   6.145   0.416  16.526  1.1398  1.2858  0.3176
15372TIP3   OH267530   4.608   1.673   5.438  0.5185 -0.7030 -0.3896
15372TIP3    H167531   4.551   1.742   5.471  1.4923  0.7410 -1.5947
15372TIP3    H267532   4.554   1.626   5.374 -0.1251 -1.0099  0.3736
15373TIP3   OH267533   2.237   6.449   3.708 -0.3007  0.5730 -0.2890
15373TIP3    H167534   2.257   6.364   3.747  0.6476  0.8040 -0.2580
15373TIP3    H267535   2.152   6.436   3.665 -0.5178 -0.1752  0.3436
15374TIP3   OH267536   6.437   6.411  13.073  0.9929  0.2300  0.1716
15374TIP3    H167537   6.417   6.357  12.996 -0.1178  0.4068  0.3245
15374TIP3    H267538   6.481   6.489  13.036  0.5769  0.2586 -0.2746
15375TIP3   OH267539   3.525   5.185  16.343 -0.3100 -0.8579  0.2431
15375TIP3    H167540   3.476   5.123  16.290 -1.1728  0.2446 -0.2832
15375TIP3    H267541   3.613   5.186  16.304 -1.1767  0.6480 -1.8598
15376TIP3   OH267542   4.571   1.772   0.125 -0.2998  0.2833  0.0704
15376TIP3    H167543   4.494   1.830   0.126 -0.5648 -0.0525 -0.5898
15376TIP3    H267544   4.614   1.789   0.209 -0.3561  1.4583 -0.1207
15377TIP3   OH267545   6.702   4.748  12.167 -0.2205  0.3922 -0.2094
15377TIP3    H167546   6.768   4.700  12.116 -0.1772  0.7679 -0.5084
15377TIP3    H267547   6.618   4.719  12.131 -0.1660  1.3063 -1.0786
15378TIP3   OH267548   4.091   1.851  14.115 -0.3701 -0.0437  0.1417
15378TIP3    H167549   4.098   1.904  14.036 -0.4589 -0.7774 -0.3759
15378TIP3    H267550   3.997   1.836  14.126 -0.2885 -1.0474 -0.3878
15379TIP3   OH267551   4.491   1.070   5.567 -0.2934 -0.3172 -0.8721
15379TIP3    H167552   4.585   1.073   5.587 -0.2628 -0.0415 -1.0522
15379TIP3    H267553   4.485   1.102   5.477 -0.6922  0.9070 -0.4232
15380TIP3   OH267554   1.700   2.996  15.018  0.1899 -0.0413 -0.0216
15380TIP3    H167555   1.739   2.991  15.106 -1.9026 -0.9603  0.9307
15380TIP3    H267556   1.686   2.905  14.993  0.2510  0.2326 -1.0893
15381TIP3   OH267557   3.982   3.987  14.877 -0.4808 -0.1768 -0.1109
15381TIP3    H167558   4.036   4.056  14.915 -1.4664  1.4937 -1.5842
15381TIP3    H267559   4.033   3.907  14.887  1.2824  0.9798  0.4698
15382TIP3   OH267560   2.377   0.166   4.764  0.1873 -0.4666  0.3712
15382TIP3    H167561   2.456   0.121   4.794  0.7863  0.5810  0.4169
15382TIP3    H267562   2.409   0.231   4.702 -0.5847  0.3387  0.8013
15383TIP3   OH267563   1.090   3.020   6.181  0.0374  0.1774  0.5060
15383TIP3    H167564   1.150   2.977   6.120 -0.3909  1.0347 -0.5601
15383TIP3    H267565   1.133   3.013   6.266  0.8635 -0.6645  0.0389
15384TIP3   OH267566   0.880   5.127  11.953 -0.2116 -0.0083 -0.1699
15384TIP3    H167567   0.845   5.210  11.921  1.1319  0.4808 -0.4593
15384TIP3    H267568   0.816   5.096  12.016 -0.2501  1.7664  0.7187
15385TIP3   OH267569   3.171   4.023  15.273 -0.4820  0.1932 -0.3573
15385TIP3    H167570   3.243   4.031  15.335 -1.3722  1.0482  0.5945
15385TIP3    H267571   3.200   3.955  15.212 -0.7384 -2.9553  2.6719
15386TIP3   OH267572   5.057   2.586  16.224  0.3392  0.5501  0.1236
15386TIP3    H167573   5.111   2.548  16.154 -1.7101 -0.9893 -0.7138
15386TIP3    H267574   4.995   2.517  16.246 -1.8261  2.5008  0.4625
15387TIP3   OH267575   0.807   0.706   5.337  0.2403  0.1542  0.5083
15387TIP3    H167576   0.900   0.703   5.359 -0.0513  2.0289  2.2425
15387TIP3    H267577   0.794   0.792   5.298 -0.7522 -0.1771  0.0737
15388TIP3   OH267578   3.971   0.329  17.089  0.1330  0.0044  0.1751
15388TIP3    H167579   3.986   0.320  17.183 -1.0420  0.7130  0.4567
15388TIP3    H267580   3.916   0.408  17.081  2.0893  1.3155 -1.3023
15389TIP3   OH267581   0.447   4.398  16.241 -0.1501 -0.1226  0.1131
15389TIP3    H167582   0.532   4.439  16.259  0.6936 -1.2936 -0.9931
15389TIP3    H267583   0.433   4.337  16.313  2.0267 -2.9872 -1.6536
15390TIP3   OH267584   2.028   2.381  12.153  0.4328  0.6629 -0.1950
15390TIP3    H167585   1.967   2.319  12.192  0.9791  0.7672  0.8505
15390TIP3    H267586   1.973   2.455  12.125 -0.3445 -0.5875 -2.2085
15391TIP3   OH267587   5.488   1.695   3.420 -0.0501 -0.5976 -0.1080
15391TIP3    H167588   5.432   1.678   3.344 -0.4689  2.0500 -0.4942
15391TIP3    H267589   5.440   1.657   3.494 -1.3981 -0.1586 -0.7225
15392TIP3   OH267590   0.331   1.263   1.235 -0.0814 -0.0514 -0.1729
15392TIP3    H167591   0.359   1.328   1.299 -0.7192 -0.0276  0.0938
15392TIP3    H267592   0.409   1.243   1.185 -0.1710  2.0583 -1.2715
15393TIP3   OH267593   1.549   4.064   5.897  0.4435 -0.7060 -0.3064
15393TIP3    H167594   1.466   4.019   5.914 -0.9019  2.0831  1.3736
15393TIP3    H267595   1.594   4.065   5.981 -0.3365  2.2444  0.2195
15394TIP3   OH267596   2.541   3.979   2.865 -0.0863  0.7056 -0.7222
15394TIP3    H167597   2.513   4.041   2.932  0.8786  0.6450 -0.2570
15394TIP3    H267598   2.470   3.915   2.860 -0.5340  1.1664 -0.3517
15395TIP3   OH267599   1.284   1.518   0.650 -0.1659 -0.1325 -0.2402
15395TIP3    H167600   1.258   1.432   0.618  0.0080  0.1872 -1.2931
15395TIP3    H267601   1.310   1.566   0.571  1.7030  0.2297  0.5440
15396TIP3   OH267602   0.947   3.533  15.096  0.5039  0.0044 -0.1153
15396TIP3    H167603   0.968   3.535  15.189 -1.3558 -3.4360  0.5333
15396TIP3    H267604   1.026   3.500  15.054  0.1352 -2.2089  0.8211
15397TIP3   OH267605   6.097   1.393   2.563  0.6449 -0.3104 -0.1619
15397TIP3    H167606   6.082   1.320   2.503  0.3807  1.2996 -2.1791
15397TIP3    H267607   6.190   1.389   2.583  1.1844  0.1946 -2.2850
15398TIP3   OH267608   4.062   0.804  12.047  0.3898 -0.7695 -0.0343
15398TIP3    H167609   3.994   0.792  12.113  0.4405 -0.8024  0.0121
15398TIP3    H267610   4.143   0.811  12.098  0.2845  0.4607 -0.0197
15399TIP3   OH267611   0.067   2.392   5.433  0.0147 -0.2812 -0.4693
15399TIP3    H167612  -0.018   2.418   5.470  1.2416  1.6239  1.2082
15399TIP3    H267613   0.095   2.319   5.487 -0.2448 -0.4925 -0.6138
15400TIP3   OH267614   3.228   1.277   4.585 -1.0072 -0.1936 -0.0382
15400TIP3    H167615   3.193   1.335   4.518 -0.3525  0.8770  0.5180
15400TIP3    H267616   3.154   1.260   4.643 -0.8441  1.4242  0.6995
15401TIP3   OH267617   0.327   4.999   4.094 -0.4972  0.5927  0.3551
15401TIP3    H167618   0.310   5.068   4.158 -2.3192 -0.4095  1.0191
15401TIP3    H267619   0.246   4.947   4.092  1.2319 -2.3533  0.9040
15402TIP3   OH267620   3.843   4.651   0.285 -0.0116 -0.2265 -0.0597
15402TIP3    H167621   3.927   4.692   0.307  0.0747 -0.4378  0.0110
15402TIP3    H267622   3.787   4.671   0.360  0.1661 -0.6164  0.1805
15403TIP3   OH267623   6.738   0.520  15.893 -0.0044  0.3312 -0.2102
15403TIP3    H167624   6.807   0.586  15.885  1.1543 -0.8872 -0.5964
15403TIP3    H267625   6.715   0.522  15.986 -0.1013  1.3629 -0.2350
15404TIP3   OH267626   3.203   4.997   2.708 -0.1847  0.2776 -0.4782
15404TIP3    H167627   3.132   4.983   2.646 -1.3632 -0.1845  0.9002
15404TIP3    H267628   3.209   5.092   2.716 -1.1707  0.3309 -0.1017
15405TIP3   OH267629   0.841   6.114   0.639  0.3476  0.4532 -0.0167
15405TIP3    H167630   0.900   6.042   0.613  0.1995 -0.2487  1.5138
15405TIP3    H267631   0.896   6.171   0.693 -0.1366  0.2593  0.6866
15406TIP3   OH267632   3.283   4.307  11.190  0.3265 -0.3112  0.0328
15406TIP3    H167633   3.272   4.242  11.258  1.4985  1.3137  1.8901
15406TIP3    H267634   3.223   4.280  11.120 -2.1447 -1.1896  2.3282
15407TIP3   OH267635   2.198   2.544  11.951  0.3905  0.0730  0.3269
15407TIP3    H167636   2.197   2.557  12.045  1.5069 -1.7258  0.6401
15407TIP3    H267637   2.179   2.450  11.939  2.8732 -0.3536 -1.0221
15408TIP3   OH267638   6.000   4.946  14.943 -0.1277  0.4075  0.3302
15408TIP3    H167639   5.996   4.982  14.854  2.0860 -0.8609 -0.3597
15408TIP3    H267640   6.089   4.911  14.951 -1.2514 -2.4199  1.8822
15409TIP3   OH267641   6.354   5.743  14.562 -0.0923 -0.3054  0.0925
15409TIP3    H167642   6.431   5.784  14.522 -0.1330  0.0594  0.3886
15409TIP3    H267643   6.389   5.687  14.631  0.0124 -1.2934 -0.7426
15410TIP3   OH267644   4.091   5.433   1.397 -0.5809  0.5406 -0.1405
15410TIP3    H167645   4.004   5.396   1.407  0.0124 -0.4895  1.8170
15410TIP3    H267646   4.128   5.431   1.486  1.3729  1.0979 -0.8889
15411TIP3   OH267647   1.140   4.762   5.803 -0.0830 -0.1041 -0.1944
15411TIP3    H167648   1.113   4.776   5.894  1.2728 -0.3016  0.2615
15411TIP3    H267649   1.064   4.787   5.752 -0.8267  0.1567  0.9911
15412TIP3   OH267650   6.073   0.312   0.130 -0.2889 -0.0466 -0.2332
15412TIP3    H167651   6.090   0.325   0.037 -1.3262  0.9000 -0.3043
15412TIP3    H267652   5.984   0.344   0.143 -0.6544 -1.3870  0.8377
15413TIP3   OH267653   1.388   0.347   1.231  0.0229  0.0893  0.3258
15413TIP3    H167654   1.457   0.406   1.261  1.3982 -0.3093 -1.7810
15413TIP3    H267655   1.434   0.265   1.214 -1.2471 -0.5951  0.1452
15414TIP3   OH267656   2.764   3.382  11.934 -0.8174 -0.1431  0.4885
15414TIP3    H167657   2.802   3.398  12.021 -1.6994  0.6374  0.7508
15414TIP3    H267658   2.762   3.287  11.926  1.3777 -0.2446  0.3575
15415TIP3   OH267659   2.895   5.108   2.007  0.4840 -0.1437 -0.6816
15415TIP3    H167660   2.931   5.177   2.063  0.3606 -0.2262 -0.4998
15415TIP3    H267661   2.825   5.069   2.059  0.5029 -0.3564 -0.8145
15416TIP3   OH267662   2.242   1.377   2.137 -0.0679  0.1207  0.3950
15416TIP3    H167663   2.254   1.325   2.058 -0.1464  0.7260 -0.0250
15416TIP3    H267664   2.270   1.320   2.208 -0.6244 -0.6632 -0.0060
15417TIP3   OH267665   2.114   6.613   4.541  0.0977  0.5583  0.3500
15417TIP3    H167666   2.183   6.575   4.487 -1.3755 -0.9591 -0.5495
15417TIP3    H267667   2.151   6.696   4.572  1.7895  0.4459 -1.2080
15418TIP3   OH267668   5.154   6.492  16.792 -0.2066  0.2325  0.2073
15418TIP3    H167669   5.198   6.559  16.739  0.1679  0.1327  0.3904
15418TIP3    H267670   5.061   6.509  16.779 -0.1146  0.7580  0.2125
15419TIP3   OH267671   2.283   1.267  11.015  0.2026  0.3405 -0.0257
15419TIP3    H167672   2.349   1.202  10.992  0.0659  0.4826 -0.8409
15419TIP3    H267673   2.271   1.319  10.936  1.3756  2.3302  1.0405
15420TIP3   OH267674   6.721   2.732  12.285  0.9354 -0.0219  0.3543
15420TIP3    H167675   6.693   2.691  12.367  0.1555 -2.1289 -0.8754
15420TIP3    H267676   6.784   2.798  12.311 -0.3215  0.3327  2.7526
15421TIP3   OH267677   1.727   2.746   2.056 -0.5336  0.0365 -0.2646
15421TIP3    H167678   1.729   2.800   1.977 -0.0839 -0.8735 -0.8887
15421TIP3    H267679   1.714   2.808   2.128 -0.5258  0.9137 -1.0125
15422TIP3   OH267680   4.081   3.772   6.428  0.1624  0.1830  0.2788
15422TIP3    H167681   3.992   3.768   6.394  0.5427 -1.9100 -0.6853
15422TIP3    H267682   4.073   3.749   6.520 -0.1875 -2.0602 -0.2365
15423TIP3   OH267683   4.979   1.314   4.493 -0.6605  0.3093  0.1058
15423TIP3    H167684   5.055   1.291   4.439 -1.2655 -1.1109 -0.1867
15423TIP3    H267685   4.963   1.236   4.546 -0.8141  1.2555  1.5030
15424TIP3   OH267686   0.815   2.254   6.053  0.3784  0.1175  0.5156
15424TIP3    H167687   0.763   2.241   6.132 -0.6550  1.9183  0.1776
15424TIP3    H267688   0.763   2.314   5.999  1.5530 -0.2218 -1.0603
15425TIP3   OH267689   2.898   6.439   5.701  0.0219 -0.2461 -0.5278
15425TIP3    H167690   2.910   6.410   5.792  1.0274  1.0804 -0.2048
15425TIP3    H267691   2.952   6.379   5.650  1.8536  0.7718  0.1009
15426TIP3   OH267692   5.050   6.512   5.593 -0.4641 -0.3156  0.1179
15426TIP3    H167693   4.998   6.484   5.668 -1.3469  1.8261  0.3898
15426TIP3    H267694   5.001   6.481   5.517 -0.5737 -0.8605  0.4093
15427TIP3   OH267695   2.803   1.092  14.245  0.0066 -0.3107 -0.3559
15427TIP3    H167696   2.712   1.086  14.217 -0.1645 -2.4221  0.5161
15427TIP3    H267697   2.812   1.181  14.279 -2.1448 -0.5078  0.9059
15428TIP3   OH267698   3.528   1.972   3.370  0.0465 -0.4689  0.1015
15428TIP3    H167699   3.608   2.012   3.404 -0.3125 -0.2089  0.6496
15428TIP3    H267700   3.543   1.967   3.275 -0.4932  2.3798 -0.2052
15429TIP3   OH267701   3.460   1.032  14.240 -0.0980 -0.6605 -0.0306
15429TIP3    H167702   3.422   1.002  14.323  1.3915  0.9087  1.2961
15429TIP3    H267703   3.537   0.978  14.228  1.5036  1.1676  1.3647
15430TIP3   OH267704   5.211   5.211  11.854  0.2526  0.6666 -0.0522
15430TIP3    H167705   5.123   5.221  11.891  0.5231 -0.2218  0.8547
15430TIP3    H267706   5.270   5.210  11.929  0.8005 -1.2757 -0.4391
15431TIP3   OH267707   2.211   5.170  16.396  0.0284 -0.1503 -0.3372
15431TIP3    H167708   2.239   5.080  16.412  0.7493 -0.1537 -1.4634
15431TIP3    H267709   2.257   5.195  16.315 -1.0880  0.8210 -0.6973
15432TIP3   OH267710   1.075   0.661  14.912 -0.4099 -0.4147 -0.2831
15432TIP3    H167711   0.991   0.673  14.868 -0.2316 -0.1710 -0.5605
15432TIP3    H267712   1.089   0.566  14.911 -1.0008 -0.5171  0.3718
15433TIP3   OH267713   0.229   4.061   5.313 -0.6537  0.0972 -0.3118
15433TIP3    H167714   0.180   4.076   5.232 -0.8603  0.3873 -0.1355
15433TIP3    H267715   0.318   4.089   5.292 -0.9439  1.2206 -0.1167
15434TIP3   OH267716   6.558   2.499   0.304  0.3739  0.2850 -0.3798
15434TIP3    H167717   6.537   2.569   0.242 -0.0291 -0.2167 -0.8185
15434TIP3    H267718   6.568   2.421   0.250  0.4362 -0.0765  0.1459
15435TIP3   OH267719   0.321   5.427   4.721  0.6149  0.4393 -0.1771
15435TIP3    H167720   0.262   5.485   4.769  2.7010  1.9682  0.6969
15435TIP3    H267721   0.397   5.481   4.702  2.1455 -1.6941 -0.4320
15436TIP3   OH267722   3.298   0.141   1.338  0.3568  0.2750  0.0405
15436TIP3    H167723   3.219   0.192   1.354 -0.7813 -1.7024  1.0419
15436TIP3    H267724   3.287   0.105   1.250 -0.0535 -0.2945  0.3187
15437TIP3   OH267725   0.557   5.703   1.268 -0.2866 -0.5551 -0.2006
15437TIP3    H167726   0.537   5.797   1.273  0.6095 -0.2972 -1.0397
15437TIP3    H267727   0.484   5.666   1.219  0.4801  0.1422 -1.9993
15438TIP3   OH267728   4.731   5.171   0.143  0.0591 -0.2130 -0.1017
15438TIP3    H167729   4.744   5.177   0.049 -2.7172  1.2550 -0.4695
15438TIP3    H267730   4.672   5.096   0.154  0.0140 -0.1013  0.4387
15439TIP3   OH267731   0.881   5.624  11.826  1.0515  0.2117  0.2253
15439TIP3    H167732   0.860   5.595  11.915  1.4493  0.1482  0.3000
15439TIP3    H267733   0.891   5.719  11.834 -1.6211  0.6199 -0.2802
15440TIP3   OH267734   1.519   5.413   5.260 -0.2181 -0.0746  0.6345
15440TIP3    H167735   1.571   5.343   5.301 -2.1769 -1.0412  1.6329
15440TIP3    H267736   1.522   5.485   5.322 -0.7694 -0.4627  1.1277
15441TIP3   OH267737   0.410   6.672  12.686  0.4420 -0.1647 -0.3680
15441TIP3    H167738   0.451   6.703  12.766  1.1902 -2.5118  0.2393
15441TIP3    H267739   0.453   6.720  12.616  0.2710  1.4085  0.5499
15442TIP3   OH267740   0.267   3.954   0.389  0.1441 -0.2417  0.3020
15442TIP3    H167741   0.233   4.020   0.328  2.5375  1.3462  0.5639
15442TIP3    H267742   0.253   3.993   0.476  0.5640 -0.5967  0.5313
15443TIP3   OH267743   6.211   4.033  13.038  0.4868  0.1594 -0.2825
15443TIP3    H167744   6.220   4.020  12.943 -0.9239  0.7712 -0.5223
15443TIP3    H267745   6.256   4.115  13.056  3.2448 -1.3128  0.0886
15444TIP3   OH267746   5.288   0.619   2.954  0.0118 -0.6449  0.5653
15444TIP3    H167747   5.275   0.712   2.937  0.9011 -0.1803  2.1461
15444TIP3    H267748   5.244   0.574   2.882 -2.4863  0.9327  1.0018
15445TIP3   OH267749   1.639   5.530  16.281 -0.7833 -0.2066  0.0868
15445TIP3    H167750   1.691   5.539  16.361 -0.2718 -0.8169 -0.1701
15445TIP3    H267751   1.704   5.515  16.212 -1.0987  1.7075 -0.6980
15446TIP3   OH267752   5.191   4.250  11.907  0.9342 -0.0391  0.1548
15446TIP3    H167753   5.120   4.187  11.919  0.2332  0.9363  1.3947
15446TIP3    H267754   5.253   4.206  11.849  0.1657 -1.5957  0.4678
15447TIP3   OH267755   1.056   4.340  15.350  0.3325  0.0830 -0.1201
15447TIP3    H167756   0.988   4.283  15.387 -0.2720  1.2148  0.5728
15447TIP3    H267757   1.137   4.308  15.390  0.1385 -0.8768 -0.4569
15448TIP3   OH267758   3.040   4.911  15.616 -0.3583 -0.0397 -0.2600
15448TIP3    H167759   3.076   4.915  15.528  0.4675  0.6147  0.0874
15448TIP3    H267760   3.116   4.890  15.672 -0.6017  0.8577  0.4330
15449TIP3   OH267761   4.192   1.170  16.308  0.8473  0.2267  0.1743
15449TIP3    H167762   4.153   1.212  16.384 -0.7097 -3.5157  1.6759
15449TIP3    H267763   4.118   1.134  16.259  2.0258 -0.5770 -1.0999
15450TIP3   OH267764   0.758   2.781   2.015 -0.3081 -0.4193 -0.5310
15450TIP3    H167765   0.769   2.712   1.950 -1.1345 -1.3504  0.2980
15450TIP3    H267766   0.774   2.739   2.099  0.3625  0.6813 -0.0867
15451TIP3   OH267767   1.156   2.856  11.477  0.1975  0.8332 -0.0009
15451TIP3    H167768   1.075   2.810  11.496 -0.1424  1.5012  0.1898
15451TIP3    H267769   1.132   2.949  11.473  1.2209  1.2211  1.7376
15452TIP3   OH267770   1.178   6.392  15.048  0.6237  0.4399  0.6743
15452TIP3    H167771   1.100   6.375  15.101  2.5753  0.3802  3.7978
15452TIP3    H267772   1.197   6.308  15.006 -2.0151  0.9600 -1.8008
15453TIP3   OH267773   2.645   5.697  15.459  0.3931 -0.4180  0.0712
15453TIP3    H167774   2.632   5.701  15.554 -0.5188 -0.0094 -0.0620
15453TIP3    H267775   2.606   5.613  15.434  0.7093 -0.5637  0.0717
15454TIP3   OH267776   4.631   4.154  11.649 -0.1654 -0.8028  0.0077
15454TIP3    H167777   4.684   4.084  11.688  1.5855  0.1444 -0.5762
15454TIP3    H267778   4.603   4.119  11.565  0.5566 -0.8719 -0.2061
15455TIP3   OH267779   6.014   1.940  13.712 -0.0891 -0.4893  0.4468
15455TIP3    H167780   6.059   1.998  13.773 -2.3868  0.3210  1.4654
15455TIP3    H267781   5.949   1.996  13.669  0.1307 -1.5002 -1.3188
15456TIP3   OH267782   1.230   1.693   2.980  0.0549 -0.1716  0.5067
15456TIP3    H167783   1.149   1.647   3.000  0.0167  0.0187  0.7913
15456TIP3    H267784   1.256   1.660   2.894  0.6501 -1.5848  1.2049
15457TIP3   OH267785   0.134   0.993  11.946 -0.4715 -0.6077  0.9539
15457TIP3    H167786   0.228   0.993  11.960 -0.4780 -0.4903  0.9922
15457TIP3    H267787   0.106   1.082  11.965 -0.2512  0.0132 -1.4138
15458TIP3   OH267788   0.233   5.281   1.202 -0.2578  0.2021 -0.3414
15458TIP3    H167789   0.234   5.228   1.123  0.6503 -0.1232 -0.1188
15458TIP3    H267790   0.202   5.367   1.173 -1.4259 -0.3364 -0.7606
15459TIP3   OH267791   1.418   4.812  12.476  0.8889  0.3067 -0.0595
15459TIP3    H167792   1.483   4.752  12.439  0.9328  1.5621 -2.2211
15459TIP3    H267793   1.406   4.879  12.408 -0.6346  1.6360  1.4208
15460TIP3   OH267794   2.200   0.481  11.369 -0.0211 -0.0705 -0.4977
15460TIP3    H167795   2.160   0.397  11.392 -2.2258  0.2949 -2.5875
15460TIP3    H267796   2.169   0.499  11.280  1.2849  2.4355 -0.5386
15461TIP3   OH267797   1.001   5.120  17.051  0.2609 -0.2357 -0.7205
15461TIP3    H167798   1.097   5.123  17.053  0.2947  3.3718 -1.5789
15461TIP3    H267799   0.974   5.194  17.106 -1.9905 -0.4732 -1.4238
15462TIP3   OH267800   4.078   4.695   2.377  0.4035 -0.0621  0.1423
15462TIP3    H167801   4.164   4.677   2.414 -0.0793 -0.1084  1.2681
15462TIP3    H267802   4.036   4.609   2.372  0.1433  0.0567  0.2932
15463TIP3   OH267803   6.771   3.695   1.446 -0.0824  0.0662 -0.5132
15463TIP3    H167804   6.731   3.609   1.453  0.5853 -0.1867  0.3613
15463TIP3    H267805   6.856   3.686   1.488  0.1523  1.0552 -0.7422
15464TIP3   OH267806   6.342   4.769  12.436  0.1518  0.3081 -0.9637
15464TIP3    H167807   6.425   4.802  12.403  0.9227 -0.4172  0.1799
15464TIP3    H267808   6.315   4.833  12.502  0.6928 -0.3333 -0.0998
15465TIP3   OH267809   1.232   6.511  15.323 -0.1972 -0.1283 -0.0474
15465TIP3    H167810   1.277   6.472  15.398  1.3556 -0.7725 -1.2472
15465TIP3    H267811   1.222   6.439  15.261 -2.4280  0.1421 -0.0689
15466TIP3   OH267812   4.609   1.096  13.989  0.4262  0.3536 -0.3227
15466TIP3    H167813   4.644   1.185  13.991 -0.3287  0.7151 -1.8859
15466TIP3    H267814   4.630   1.064  13.902  0.0096 -0.7276 -0.0428
15467TIP3   OH267815   6.105   3.275  12.449 -0.0766  0.0472 -0.4030
15467TIP3    H167816   6.046   3.298  12.377  1.1017  0.0349 -1.4013
15467TIP3    H267817   6.047   3.243  12.518 -1.5522  2.8239 -0.1776
15468TIP3   OH267818   5.959   4.368   5.139  0.0274 -0.2605 -0.0768
15468TIP3    H167819   5.933   4.435   5.076  2.0116  0.4445 -0.2052
15468TIP3    H267820   5.893   4.300   5.129 -0.8355  0.7222 -1.4917
15469TIP3   OH267821   1.451   1.228  17.020 -0.1910 -0.2855  0.4965
15469TIP3    H167822   1.446   1.265  16.932 -1.3997  0.6065  0.9122
15469TIP3    H267823   1.469   1.135  17.006  2.0872  0.2591 -0.5997
15470TIP3   OH267824   6.524   1.460   3.224  0.3498 -0.6702  0.0281
15470TIP3    H167825   6.481   1.536   3.185 -1.1267 -1.3317  0.3207
15470TIP3    H267826   6.600   1.497   3.269  0.2351  0.5038 -0.6769
15471TIP3   OH267827   1.734   0.517  12.623 -0.6231  0.0800  0.1142
15471TIP3    H167828   1.826   0.494  12.637 -0.6047 -0.8043 -1.2629
15471TIP3    H267829   1.698   0.443  12.573 -1.4730  1.4958 -1.4614
15472TIP3   OH267830   0.051   1.015   1.781  0.4657 -0.5517  0.3670
15472TIP3    H167831   0.002   1.032   1.861 -2.4122 -0.2337 -1.3390
15472TIP3    H267832   0.077   1.101   1.749  0.3298 -0.5712  0.2039
15473TIP3   OH267833   1.447   1.494   0.888 -0.0230  0.6251  0.0762
15473TIP3    H167834   1.507   1.437   0.840 -0.0738  1.0812 -0.5434
15473TIP3    H267835   1.372   1.438   0.908 -0.4869  0.6833 -1.3432
15474TIP3   OH267836   2.029   6.703   0.295  0.6299 -0.7892  0.1845
15474TIP3    H167837   2.080   6.727   0.373 -0.5791 -1.2575  1.1540
15474TIP3    H267838   2.028   6.783   0.242 -1.5678  0.7692  2.3698
15475TIP3   OH267839   4.651   4.344   3.862 -0.0600 -0.0777 -0.2848
15475TIP3    H167840   4.565   4.349   3.904 -0.8968 -1.3450 -1.7016
15475TIP3    H267841   4.631   4.336   3.768  1.4672 -2.6930 -0.4984
15476TIP3   OH267842   5.882   4.892  10.976 -0.4588  0.6852 -0.0447
15476TIP3    H167843   5.897   4.861  11.066 -0.8615 -1.0037 -0.5288
15476TIP3    H267844   5.966   4.877  10.932 -0.2162  1.6503  0.0554
15477TIP3   OH267845   5.126   3.734   1.112  0.2619 -0.6036  0.4377
15477TIP3    H167846   5.040   3.706   1.142 -0.5048  0.1719 -0.9522
15477TIP3    H267847   5.169   3.768   1.190 -1.3275  0.5272  0.8701
15478TIP3   OH267848   5.240   5.970  11.098  0.3306 -1.0045  0.1676
15478TIP3    H167849   5.188   6.043  11.065 -1.4939 -1.9545  0.8041
15478TIP3    H267850   5.263   5.919  11.020  3.5426  1.3100 -0.5904
15479TIP3   OH267851   5.385   4.905  15.035  0.2768  0.2259  0.0932
15479TIP3    H167852   5.404   4.840  14.967  0.6803 -0.5006  0.8805
15479TIP3    H267853   5.444   4.978  15.016  0.4277  0.0057 -0.2965
15480TIP3   OH267854   5.796   0.229  13.045 -0.1801  0.1677 -0.3628
15480TIP3    H167855   5.856   0.280  13.099  0.1208  1.8726 -2.1897
15480TIP3    H267856   5.724   0.289  13.025 -1.7271 -1.3342  0.4461
15481TIP3   OH267857   0.637   6.709   1.636 -0.3086 -0.1802  0.6275
15481TIP3    H167858   0.681   6.668   1.711 -1.4815 -1.9767  0.3933
15481TIP3    H267859   0.557   6.658   1.625 -0.8674  0.9797 -0.9512
15482TIP3   OH267860   0.843   0.393   2.047  0.0992  0.7409  0.1162
15482TIP3    H167861   0.781   0.375   2.118 -0.2084 -2.2483 -0.7452
15482TIP3    H267862   0.929   0.390   2.089 -0.1741  1.4335  0.7426
15483TIP3   OH267863   4.887   6.104  11.147 -0.0761 -0.0471  0.2684
15483TIP3    H167864   4.937   6.034  11.189  0.7169 -0.6099 -1.5132
15483TIP3    H267865   4.817   6.059  11.100 -1.9965  0.6906  2.2376
15484TIP3   OH267866   1.506   3.227   5.649  0.0680  0.9047 -0.5878
15484TIP3    H167867   1.486   3.153   5.706  0.2757  0.0409 -1.5964
15484TIP3    H267868   1.480   3.305   5.699  1.4468  0.2745  1.1997
15485TIP3   OH267869   6.692   5.364   0.113  0.0221 -0.3155 -0.0704
15485TIP3    H167870   6.645   5.301   0.060  1.1852 -2.0880  0.8960
15485TIP3    H267871   6.762   5.396   0.056 -0.2617 -0.2827 -0.4007
15486TIP3   OH267872   6.407   4.907  14.414  0.5092 -0.2685 -0.2744
15486TIP3    H167873   6.403   4.866  14.500  1.9774 -0.1882 -0.1330
15486TIP3    H267874   6.496   4.888  14.383  0.8215  1.7415 -0.7338
15487TIP3   OH267875   3.167   3.477  16.587  0.1432 -0.2228 -0.5247
15487TIP3    H167876   3.208   3.441  16.666  1.0961  1.9651  0.0766
15487TIP3    H267877   3.095   3.417  16.567  1.0206 -1.8401  0.9207
15488TIP3   OH267878   0.756   2.371   5.410  0.4163 -0.4437 -0.4763
15488TIP3    H167879   0.706   2.442   5.369 -3.5261 -2.9906 -0.6459
15488TIP3    H267880   0.797   2.411   5.486  0.2436  2.4381 -1.7797
15489TIP3   OH267881   2.864   1.517   0.250 -0.2290  0.1390  0.3852
15489TIP3    H167882   2.817   1.434   0.241 -0.4814  0.4227 -1.2117
15489TIP3    H267883   2.831   1.555   0.331  1.7973 -2.4896  2.6154
15490TIP3   OH267884   3.790   5.166   5.411 -0.8176  0.5511 -0.5133
15490TIP3    H167885   3.824   5.171   5.501 -2.1624 -2.7567  0.3441
15490TIP3    H267886   3.717   5.227   5.410 -1.6947 -0.3890  1.1782
15491TIP3   OH267887   5.958   1.160   3.643  0.0500  0.3181 -0.4488
15491TIP3    H167888   5.914   1.233   3.687 -0.4879  0.6426 -1.4942
15491TIP3    H267889   6.051   1.183   3.645  0.0223  0.3973  0.3673
15492TIP3   OH267890   4.780   1.083  11.570 -0.7817 -0.5986 -0.0797
15492TIP3    H167891   4.778   1.148  11.500 -0.1055 -1.0866 -0.5724
15492TIP3    H267892   4.693   1.085  11.608 -0.5616  1.1501  0.4326
15493TIP3   OH267893   2.287   4.098   5.588 -0.0193 -0.4434  0.1767
15493TIP3    H167894   2.287   4.129   5.679 -0.6341 -1.4441  0.5291
15493TIP3    H267895   2.197   4.109   5.558  0.3810  0.8222 -0.6714
15494TIP3   OH267896   1.681   2.909  15.616 -0.1232  0.7208 -0.1529
15494TIP3    H167897   1.736   2.975  15.576  0.4958  0.4585  0.2444
15494TIP3    H267898   1.599   2.954  15.637  0.3966  1.4341  0.3728
15495TIP3   OH267899   4.858   1.887   5.419  0.1185  0.2882  0.0441
15495TIP3    H167900   4.776   1.838   5.416  0.1178  0.2254  0.8249
15495TIP3    H267901   4.878   1.893   5.512 -0.1893  2.3055  0.0144
15496TIP3   OH267902   3.187   1.932  14.630  0.4929  0.0539  0.5142
15496TIP3    H167903   3.145   1.979  14.558  2.1214  0.5801 -0.1507
15496TIP3    H267904   3.177   1.840  14.607  1.2971  0.2192 -0.6040
15497TIP3   OH267905   0.111   4.476  15.752 -0.0038 -0.3135  0.6261
15497TIP3    H167906   0.199   4.454  15.723  0.5075  1.5468  0.6275
15497TIP3    H267907   0.124   4.530  15.830 -1.1177  0.2288  0.4575
15498TIP3   OH267908   5.285   0.532  11.822 -0.0685 -0.1743 -0.0304
15498TIP3    H167909   5.256   0.614  11.862 -0.5910  0.1760 -1.1029
15498TIP3    H267910   5.251   0.464  11.881 -0.3269  0.3493  0.4330
15499TIP3   OH267911   5.631   0.480   2.032 -0.0292 -0.2904 -0.4101
15499TIP3    H167912   5.540   0.475   2.062 -0.7276 -0.0969 -2.4001
15499TIP3    H267913   5.626   0.481   1.937  2.1321 -1.2689 -0.5967
15500TIP3   OH267914   4.675   2.628  16.260  0.0239  0.7343 -0.0612
15500TIP3    H167915   4.732   2.688  16.212  1.4952 -0.1204  0.5648
15500TIP3    H267916   4.681   2.546  16.211  0.7527  0.1369  0.9872
15501TIP3   OH267917   0.419   2.947   2.526 -0.5372  0.0620  0.0018
15501TIP3    H167918   0.410   2.977   2.617  0.4586  1.4046 -0.3072
15501TIP3    H267919   0.460   2.861   2.534  0.7470  0.7151  0.8183
15502TIP3   OH267920   6.298   0.731   2.074 -0.6889  0.5618  0.3112
15502TIP3    H167921   6.250   0.814   2.080 -0.2536  0.7159  2.0979
15502TIP3    H267922   6.380   0.754   2.031  0.2525  1.4987  2.4631
15503TIP3   OH267923   4.396   5.160   0.369 -0.0850  0.0756  0.5060
15503TIP3    H167924   4.446   5.099   0.314 -0.2154 -0.8038  1.3314
15503TIP3    H267925   4.359   5.223   0.307 -0.6205 -1.1586 -0.4751
15504TIP3   OH267926   1.186   5.201  13.434  0.0099  0.4570  0.3463
15504TIP3    H167927   1.168   5.292  13.456 -3.2338  0.5636 -2.0050
15504TIP3    H267928   1.137   5.151  13.500 -3.6345  0.6897 -1.8810
15505TIP3   OH267929   0.927   5.568  13.682  0.1274 -1.0887 -1.2403
15505TIP3    H167930   0.858   5.510  13.650 -0.5466 -1.3710  0.6239
15505TIP3    H267931   0.888   5.655  13.680 -1.1942 -1.4776  1.8723
15506TIP3   OH267932   2.261   4.600  16.429 -0.0671  0.1365 -0.2466
15506TIP3    H167933   2.302   4.555  16.503  0.7001  1.9877  0.5395
15506TIP3    H267934   2.167   4.594  16.446  0.1151  1.1394  1.3135
15507TIP3   OH267935   4.383   0.280   4.116 -0.9565  0.8233  0.4246
15507TIP3    H167936   4.446   0.238   4.175  0.7108  1.6322 -0.6988
15507TIP3    H267937   4.336   0.208   4.075 -1.4806  0.2222  2.0040
15508TIP3   OH267938   5.959   0.243   1.453 -0.0879 -0.0368  0.0781
15508TIP3    H167939   6.040   0.253   1.402 -1.1116 -0.7509 -1.7717
15508TIP3    H267940   5.970   0.159   1.499 -1.0227 -1.8471 -2.7484
15509TIP3   OH267941   0.027   3.818  15.127  0.3320  0.0575 -0.1178
15509TIP3    H167942   0.026   3.795  15.220 -0.2578  1.9894  0.3968
15509TIP3    H267943   0.065   3.905  15.124 -0.6906  0.4892 -1.5757
15510TIP3   OH267944   0.009   1.839  12.058 -0.2019 -0.1958  0.4938
15510TIP3    H167945   0.105   1.836  12.059  0.0205  2.7740  2.7331
15510TIP3    H267946  -0.017   1.788  12.134 -0.2102  0.7474  1.1456
15511TIP3   OH267947   5.886   4.960   3.064  0.2225 -0.2862 -0.6041
15511TIP3    H167948   5.890   4.962   3.160 -0.2063  1.7571 -0.5820
15511TIP3    H267949   5.835   5.038   3.041  0.7652 -0.4614 -2.5205
15512TIP3   OH267950   5.987   5.096  16.760 -0.6889 -0.2161  0.0407
15512TIP3    H167951   6.012   5.081  16.852 -0.5627  1.2868  0.2669
15512TIP3    H267952   6.042   5.036  16.710  0.3453  0.0395  0.8436
15513TIP3   OH267953   5.206   0.591   2.650 -0.4420  0.7406 -0.2124
15513TIP3    H167954   5.194   0.634   2.566 -0.0891  1.6193  0.1776
15513TIP3    H267955   5.118   0.569   2.679 -0.5253 -0.1794 -1.1110
15514TIP3   OH267956   3.200   5.243  11.196 -0.0289 -0.1743  0.9526
15514TIP3    H167957   3.167   5.254  11.285 -0.1448  1.9428  0.7080
15514TIP3    H267958   3.274   5.304  11.191 -0.6615  0.5157 -0.6857
15515TIP3   OH267959   4.349   4.254  12.262 -0.4321  0.5899 -0.4373
15515TIP3    H167960   4.291   4.323  12.233 -0.8109  0.2538 -0.4864
15515TIP3    H267961   4.422   4.256  12.200 -0.3902  1.0090 -0.3766
15516TIP3   OH267962   2.853   5.445  14.092 -0.8586 -0.4968 -0.0657
15516TIP3    H167963   2.906   5.486  14.023 -0.3983 -2.9813 -1.3078
15516TIP3    H267964   2.872   5.351  14.084 -2.1635 -1.0463  2.3252
15517TIP3   OH267965   3.531   5.391  14.630 -0.5019  0.8002  0.0773
15517TIP3    H167966   3.616   5.347  14.640  0.1960  1.6045 -1.8186
15517TIP3    H267967   3.470   5.319  14.612 -0.0363  0.2972  0.4569
15518TIP3   OH267968   6.109   4.242  15.300 -0.3202  0.0785 -0.4130
15518TIP3    H167969   6.145   4.220  15.386 -2.1642 -0.7551  0.2093
15518TIP3    H267970   6.167   4.200  15.237 -0.0560 -0.9844  0.5154
15519TIP3   OH267971   5.732   3.667   2.078 -0.4102 -0.3399  0.4056
15519TIP3    H167972   5.730   3.594   2.139 -2.2333 -0.2450  0.5270
15519TIP3    H267973   5.642   3.700   2.078 -0.2478  0.2371 -1.6493
15520TIP3   OH267974   4.625   1.819  17.048  0.4936  0.5393 -0.4285
15520TIP3    H167975   4.615   1.800  17.142  1.6468 -1.1262 -0.6124
15520TIP3    H267976   4.547   1.870  17.026 -0.6660 -0.4831  1.0816
15521TIP3   OH267977   4.705   6.288  14.669  0.3799  0.5710 -0.3494
15521TIP3    H167978   4.699   6.370  14.619  1.3769  1.0597  0.3000
15521TIP3    H267979   4.661   6.308  14.753 -1.5931 -0.3462 -1.0941
15522TIP3   OH267980   6.068   2.864   4.620  0.1795  0.0580 -0.7258
15522TIP3    H167981   6.156   2.847   4.655 -0.2416  0.5519  0.6451
15522TIP3    H267982   6.083   2.899   4.533  1.2665 -1.9714 -1.4326
15523TIP3   OH267983   4.916   3.399  12.042 -0.2475  0.8097 -0.3736
15523TIP3    H167984   4.958   3.315  12.026 -0.6625  0.6836 -0.8381
15523TIP3    H267985   4.929   3.448  11.960  0.4759  1.4062  0.0902
15524TIP3   OH267986   4.548   1.414  11.708  0.0380  0.2696  0.1859
15524TIP3    H167987   4.513   1.423  11.796 -0.2449  0.1907  0.0809
15524TIP3    H267988   4.578   1.502  11.684  1.3806  0.0350  0.8944
15525TIP3   OH267989   6.089   3.060  14.000 -0.8061  0.9217 -0.7648
15525TIP3    H167990   6.171   3.082  13.956 -0.0250  0.6801  0.5168
15525TIP3    H267991   6.062   3.141  14.043  0.3285  0.3297  1.2087
15526TIP3   OH267992   3.025   0.949   0.170 -0.3674 -0.3900  0.1952
15526TIP3    H167993   3.011   0.879   0.234 -1.4714  0.2219  0.6509
15526TIP3    H267994   2.940   0.960   0.127  0.0923 -0.0854 -0.6481
15527TIP3   OH267995   1.753   6.359   3.335  0.0709  0.0868  0.5169
15527TIP3    H167996   1.731   6.390   3.422  2.5728  0.7922  0.9747
15527TIP3    H267997   1.763   6.264   3.345  0.9290  0.2323  1.1741
15528TIP3   OH267998   2.900   5.985   1.305 -0.2061 -0.0201  0.5019
15528TIP3    H167999   2.843   5.911   1.326  1.2152 -0.6396  2.3892
15528TIP3    H268000   2.860   6.059   1.351  0.2645 -0.3606  1.4674
15529TIP3   OH268001   4.912   0.447  17.120  0.3629 -0.0076 -0.1333
15529TIP3    H168002   4.884   0.478  17.033  0.9808  1.0323  0.0197
15529TIP3    H268003   4.946   0.359  17.104  1.5083  0.5945 -1.1600
15530TIP3   OH268004   6.502   1.373  13.824  0.8815 -0.1108 -0.4847
15530TIP3    H168005   6.582   1.425  13.826 -0.6766  2.5018 -1.4152
15530TIP3    H268006   6.475   1.374  13.732 -1.2725  0.8618  0.1000
15531TIP3   OH268007   6.201   3.882  16.230  0.7417  0.3001  0.2926
15531TIP3    H168008   6.125   3.878  16.172  0.7381 -0.9831  0.3721
15531TIP3    H268009   6.166   3.870  16.318  0.9004  0.9675  0.4569
15532TIP3   OH268010   6.327   6.614   5.109 -0.1777 -0.6567 -0.3135
15532TIP3    H168011   6.370   6.597   5.025 -2.3644 -2.1485 -1.2378
15532TIP3    H268012   6.362   6.547   5.167  1.0162  0.1029 -0.1203
15533TIP3   OH268013   2.412   6.528  12.675  0.2960 -0.3526 -0.9687
15533TIP3    H168014   2.348   6.574  12.621 -0.9572  1.0927  1.5625
15533TIP3    H268015   2.362   6.496  12.751  2.5844  1.7256  1.6549
15534TIP3   OH268016   2.525   5.386   2.850  0.5861 -0.2008 -0.3854
15534TIP3    H168017   2.443   5.416   2.812  0.3455 -2.2190 -1.6433
15534TIP3    H268018   2.511   5.389   2.945 -0.0714  1.6490 -0.5128
15535TIP3   OH268019   0.155   5.614   2.126 -0.1466 -0.7198  0.3168
15535TIP3    H168020   0.207   5.544   2.086 -0.4928  0.1636 -1.7819
15535TIP3    H268021   0.152   5.683   2.060 -1.4081  0.5162  1.5926
15536TIP3   OH268022   1.203   0.748   4.511  0.1263  0.1499  0.5511
15536TIP3    H168023   1.116   0.781   4.490  0.1455 -0.1309  0.0096
15536TIP3    H268024   1.210   0.666   4.461  0.3671 -0.2771  1.2795
15537TIP3   OH268025   2.786   2.836   0.489  0.2921  0.6752  0.0709
15537TIP3    H168026   2.881   2.844   0.483  0.4752  0.1285  1.7330
15537TIP3    H268027   2.762   2.892   0.563 -0.7747  1.3501 -0.7590
15538TIP3   OH268028   4.507   0.012   3.921  0.0011 -0.4440 -0.6363
15538TIP3    H168029   4.509  -0.028   3.834 -2.6894  0.5440 -1.2596
15538TIP3    H268030   4.533   0.103   3.906  0.5349 -0.5267 -0.2251
15539TIP3   OH268031   3.675   4.267   4.793 -0.1120  0.1382 -0.0136
15539TIP3    H168032   3.589   4.289   4.828 -0.6704 -0.1451 -1.1370
15539TIP3    H268033   3.697   4.183   4.834 -2.0071 -1.6129 -2.2666
15540TIP3   OH268034   4.399   4.269   2.030  0.6676 -0.1184 -0.2291
15540TIP3    H168035   4.414   4.257   2.123 -0.6696 -1.5849 -0.1705
15540TIP3    H268036   4.459   4.208   1.987 -1.9137 -3.0182 -0.1047
15541TIP3   OH268037   1.374   1.024  13.080  0.3783 -0.4197 -0.0901
15541TIP3    H168038   1.437   0.952  13.078  0.3135 -0.5386  1.4273
15541TIP3    H268039   1.414   1.090  13.137  0.1524  0.5071 -0.9609
15542TIP3   OH268040   5.685   2.765   3.822  0.3908 -0.6028 -0.0133
15542TIP3    H168041   5.599   2.770   3.778  0.5514 -2.2380 -0.5927
15542TIP3    H268042   5.745   2.810   3.762  0.1691 -0.6030 -0.2366
15543TIP3   OH268043   2.894   4.625   0.981  0.1189 -0.3270  0.5126
15543TIP3    H168044   2.982   4.603   1.012  1.6262  0.5501 -2.7373
15543TIP3    H268045   2.875   4.559   0.915 -1.4565 -0.1560  0.7616
15544TIP3   OH268046   5.844   4.727   3.279  0.1840 -0.5673  0.3533
15544TIP3    H168047   5.844   4.649   3.334  0.6652  0.0312  1.2183
15544TIP3    H268048   5.842   4.800   3.341 -0.3549  0.1159 -0.4465
15545TIP3   OH268049   3.102   1.457   4.419 -0.3685  0.3677  0.5251
15545TIP3    H168050   3.170   1.468   4.353  0.4193 -1.8578  0.8719
15545TIP3    H268051   3.074   1.546   4.441  1.7619  1.2991 -0.2907
15546TIP3   OH268052   4.900   3.566   2.417 -0.4632 -0.1817  0.0188
15546TIP3    H168053   4.890   3.486   2.365  3.6925 -1.1994  0.3841
15546TIP3    H268054   4.895   3.536   2.508  2.2396 -0.4521  0.1860
15547TIP3   OH268055   1.845   2.272  16.346  0.1358  0.2418  0.3096
15547TIP3    H168056   1.904   2.239  16.279 -1.1742 -2.0296  0.1672
15547TIP3    H268057   1.845   2.204  16.413  0.0008  1.6177  1.7506
15548TIP3   OH268058   1.052   5.054  14.126  0.3877 -0.0331  0.3325
15548TIP3    H168059   0.961   5.082  14.126 -0.1062 -1.5201 -0.7686
15548TIP3    H268060   1.049   4.961  14.148  1.8983  0.4492  3.0864
15549TIP3   OH268061   2.440   3.190  16.290  0.0747 -0.0284  0.3573
15549TIP3    H168062   2.441   3.101  16.254 -1.8234  0.2676 -0.5965
15549TIP3    H268063   2.362   3.192  16.345  2.4106 -0.1843  4.0000
15550TIP3   OH268064   5.583   2.193   0.192 -0.3278  0.2571  0.5974
15550TIP3    H168065   5.662   2.169   0.144 -0.2919  0.7218  0.4138
15550TIP3    H268066   5.603   2.172   0.284 -0.0850  0.1375  0.5165
15551TIP3   OH268067   0.630   3.866   3.374  1.1180  0.2486 -0.2046
15551TIP3    H168068   0.717   3.827   3.370  1.2022  0.5336 -2.0415
15551TIP3    H268069   0.581   3.822   3.304  0.1822  1.0177 -0.0478
15552TIP3   OH268070   5.333   6.208   2.801 -0.1027  0.4407 -0.0032
15552TIP3    H168071   5.306   6.299   2.802 -0.1531  0.4237  0.1502
15552TIP3    H268072   5.251   6.158   2.806 -0.0128  0.3893  1.4269
15553TIP3   OH268073   0.828   6.153   0.274  0.4542  0.1044 -0.2905
15553TIP3    H168074   0.811   6.232   0.326  0.0805 -0.0056 -0.2434
15553TIP3    H268075   0.743   6.108   0.270  0.1672  0.7115 -1.9801
15554TIP3   OH268076   4.834   0.645   0.502  0.2347 -0.0376 -0.0420
15554TIP3    H168077   4.925   0.627   0.482  0.9507  1.1909  1.7790
15554TIP3    H268078   4.790   0.645   0.418  2.6753  3.3777 -1.5512
15555TIP3   OH268079   3.965   0.124   0.803  0.1130 -0.3056  0.3588
15555TIP3    H168080   4.058   0.123   0.781 -0.2096 -0.8471 -1.1406
15555TIP3    H268081   3.933   0.207   0.767 -0.3985 -1.1446 -1.2497
15556TIP3   OH268082   0.894   1.838   5.194  0.1322 -0.1968 -0.5180
15556TIP3    H168083   0.936   1.766   5.240  0.1478  0.9868  1.4410
15556TIP3    H268084   0.964   1.879   5.144 -0.1831 -2.4156 -2.9553
15557TIP3   OH268085   1.427   2.396  15.912 -0.7124 -0.5127  0.0450
15557TIP3    H168086   1.489   2.324  15.924  0.3431  0.3881  0.2289
15557TIP3    H268087   1.441   2.424  15.821  0.4467  0.8233  0.6050
15558TIP3   OH268088   4.577   5.524  14.802 -0.3186 -0.0252 -0.1534
15558TIP3    H168089   4.582   5.429  14.811 -0.7257 -0.1171 -0.8215
15558TIP3    H268090   4.512   5.552  14.866  0.5223 -0.0721  0.7514
15559TIP3   OH268091   1.092   0.365   5.180 -0.0853  0.0160  0.4234
15559TIP3    H168092   1.068   0.336   5.091 -2.0334 -2.2655  1.5589
15559TIP3    H268093   1.012   0.404   5.215  0.3656  0.0286  1.4849
15560TIP3   OH268094   4.361   6.092   4.107 -0.3631 -0.2009  0.6789
15560TIP3    H168095   4.341   6.070   4.198 -0.4840 -0.4971  0.5832
15560TIP3    H268096   4.363   6.187   4.105 -0.6841 -0.1869  0.9215
15561TIP3   OH268097   3.173   0.910  15.069  0.0877  0.4247 -0.2633
15561TIP3    H168098   3.082   0.904  15.038 -0.6685  2.2757  1.4144
15561TIP3    H268099   3.225   0.889  14.991 -1.7394 -1.1802 -1.1515
15562TIP3   OH268100   2.284   5.016  12.556  0.1496 -0.4291 -0.2782
15562TIP3    H168101   2.223   5.009  12.629  1.4799 -0.2501  0.8911
15562TIP3    H268102   2.232   4.993  12.479 -0.3198 -4.8315  1.0955
15563TIP3   OH268103   3.657   4.289   1.623 -0.6394  0.1927  0.5123
15563TIP3    H168104   3.611   4.209   1.647 -0.1620  0.6669  3.3246
15563TIP3    H268105   3.656   4.289   1.527 -1.7825 -2.4871  0.4283
15564TIP3   OH268106   3.442   0.332  16.890 -0.2280 -0.0737  0.1353
15564TIP3    H168107   3.374   0.281  16.933  0.8017 -1.3247  0.3580
15564TIP3    H268108   3.496   0.266  16.845 -0.7061  1.0858 -2.2876
15565TIP3   OH268109   6.601   5.262  13.537  0.0795 -0.3610  0.1972
15565TIP3    H168110   6.579   5.178  13.578 -0.0083 -0.0835  0.7323
15565TIP3    H268111   6.644   5.311  13.607 -1.3716  0.6741  0.4056
15566TIP3   OH268112   6.442   1.561  12.755 -0.1167  0.3493 -0.6027
15566TIP3    H168113   6.409   1.574  12.666 -2.8687 -0.1647  0.2290
15566TIP3    H268114   6.463   1.649  12.787  0.7208  0.5498 -1.6671
15567TIP3   OH268115   4.776   1.822  16.824 -0.4183 -0.3342  0.1092
15567TIP3    H168116   4.734   1.851  16.905 -0.2161 -1.6992  0.7382
15567TIP3    H268117   4.728   1.867  16.754 -0.9160  0.4854  0.9661
15568TIP3   OH268118   0.254   4.804  14.976 -0.5973 -0.5945 -0.1286
15568TIP3    H168119   0.268   4.876  14.915 -0.2556 -1.9946 -1.7526
15568TIP3    H268120   0.162   4.781  14.966 -0.7747 -0.2231  0.5887
15569TIP3   OH268121   2.997   2.165   4.434 -0.5850  0.1222  0.0496
15569TIP3    H168122   3.033   2.245   4.474  1.8921 -0.5477 -0.6835
15569TIP3    H268123   2.968   2.192   4.347  3.1917 -0.2153 -1.5105
15570TIP3   OH268124   2.293   5.484   2.721 -0.0623  0.0364  0.1475
15570TIP3    H168125   2.291   5.558   2.660  1.7572 -0.7197 -0.8826
15570TIP3    H268126   2.248   5.414   2.675  0.6460 -0.3101 -0.0291
15571TIP3   OH268127   6.026   1.369  16.805 -0.4892  0.0338  0.9584
15571TIP3    H168128   6.001   1.412  16.723 -1.7347 -2.2256  0.0648
15571TIP3    H268129   6.106   1.413  16.831 -0.1630  0.9762 -1.3695
15572TIP3   OH268130   4.443   0.824   0.055  0.0106 -0.1875 -0.2336
15572TIP3    H168131   4.490   0.858  -0.021 -1.4122 -0.5279 -1.2979
15572TIP3    H268132   4.456   0.891   0.123  0.1068  0.8149 -1.2179
15573TIP3   OH268133   0.150   3.150   6.003  0.1813  0.1995 -0.6406
15573TIP3    H168134   0.160   3.196   6.086 -2.6184  0.3982 -0.3071
15573TIP3    H268135   0.202   3.201   5.941  0.0887  1.6812  0.4432
15574TIP3   OH268136   1.996   1.845   4.229 -0.2892  0.3745  0.1026
15574TIP3    H168137   2.049   1.797   4.294 -3.1074 -1.7554  1.0087
15574TIP3    H268138   1.936   1.898   4.281 -0.3162  1.3175 -0.8584
15575TIP3   OH268139   3.168   3.540  15.304  0.0176  0.1506 -0.5088
15575TIP3    H168140   3.164   3.456  15.260  0.4812 -0.9816  1.4568
15575TIP3    H268141   3.258   3.546  15.337 -0.3758  0.7586  0.5422
15576TIP3   OH268142   3.736   6.727  14.595  0.8264  0.4212  0.4132
15576TIP3    H168143   3.816   6.761  14.553  0.9948 -0.0291  0.3647
15576TIP3    H268144   3.707   6.657  14.538 -0.4122  1.4845 -0.3239
15577TIP3   OH268145   6.620   0.202   3.520  0.2488  0.3191  0.5394
15577TIP3    H168146   6.536   0.160   3.541  0.1844  0.2507  0.1604
15577TIP3    H268147   6.655   0.230   3.604 -0.1760  0.3830  0.6962
15578TIP3   OH268148   2.560   3.621   3.142  0.2719 -0.1892 -0.2111
15578TIP3    H168149   2.543   3.700   3.193  0.7416 -1.2660  1.7254
15578TIP3    H268150   2.636   3.581   3.185  0.3182 -1.4825 -1.4133
15579TIP3   OH268151   3.373   4.674  15.039 -0.0675  0.2247  0.4132
15579TIP3    H168152   3.434   4.605  15.064 -0.5046 -1.1644 -2.0341
15579TIP3    H268153   3.291   4.650  15.080  0.6854  1.5788  2.9184
15580TIP3   OH268154   0.784   3.780  10.984 -0.8910 -0.0472 -0.3946
15580TIP3    H168155   0.777   3.693  11.022  0.0057 -0.1487 -0.4313
15580TIP3    H268156   0.700   3.795  10.941 -0.2677 -1.8787 -2.4354
15581TIP3   OH268157   1.253   6.331   2.584  0.0547 -0.3154  0.3979
15581TIP3    H168158   1.227   6.248   2.624  0.7461  0.1704  1.9731
15581TIP3    H268159   1.197   6.397   2.626  0.9500  0.2407  0.7622
15582TIP3   OH268160   1.602   2.100   5.740  0.2552 -0.0821  0.1662
15582TIP3    H168161   1.622   2.192   5.720  1.4074 -0.1909  0.7459
15582TIP3    H268162   1.608   2.094   5.835  1.5858 -1.0536  0.0485
15583TIP3   OH268163   6.368   2.649   2.043 -0.4712 -0.9060 -0.3497
15583TIP3    H168164   6.345   2.722   2.101 -0.7452  0.0584 -1.6069
15583TIP3    H268165   6.452   2.676   2.004 -0.3057 -1.5154 -0.4235
15584TIP3   OH268166   6.523   4.927  16.364  0.5702  0.2047  0.5245
15584TIP3    H168167   6.494   4.953  16.277  0.4720  2.4558  1.1489
15584TIP3    H268168   6.610   4.889  16.351  0.1870 -0.3017 -0.6242
15585TIP3   OH268169   4.485   3.129   3.646  0.0626  0.3854  0.9950
15585TIP3    H168170   4.575   3.134   3.613 -0.4208  2.5021 -0.1925
15585TIP3    H268171   4.491   3.161   3.736  0.2914  2.0895  0.3996
15586TIP3   OH268172   5.278   0.509  12.364 -0.3518  0.7052  0.1498
15586TIP3    H168173   5.184   0.527  12.372 -0.2913  0.4535  1.5497
15586TIP3    H268174   5.294   0.436  12.423  0.1299 -1.5800 -2.5611
15587TIP3   OH268175   5.263   5.232  17.194  0.6916  0.3483  0.3227
15587TIP3    H168176   5.297   5.148  17.164 -0.3414  0.5811 -1.6740
15587TIP3    H268177   5.285   5.293  17.124 -1.5884  1.0027  0.0822
15588TIP3   OH268178   0.135   2.794   0.426 -0.5510  0.0863  0.3184
15588TIP3    H168179   0.086   2.712   0.417  2.0467 -1.8294  1.9075
15588TIP3    H268180   0.207   2.786   0.363 -1.5739  2.3936 -1.3024
15589TIP3   OH268181   6.586   5.905  13.917  0.5838 -0.5133  0.9125
15589TIP3    H168182   6.518   5.856  13.962  0.5211  1.3601  3.0097
15589TIP3    H268183   6.650   5.838  13.890 -0.8488 -2.0222  1.0946
15590TIP3   OH268184   3.843   6.041   5.366 -0.3272  0.0452 -0.8174
15590TIP3    H168185   3.834   6.044   5.462 -1.0372 -1.5286 -0.8055
15590TIP3    H268186   3.934   6.067   5.350 -0.0050 -0.2908  0.3379
15591TIP3   OH268187   0.992   2.601  10.973 -0.4246 -0.1595  0.4749
15591TIP3    H168188   0.957   2.661  10.907  0.1003  2.3571  2.3143
15591TIP3    H268189   1.063   2.556  10.929 -1.2390  0.0889 -1.1778
15592TIP3   OH268190   5.097   6.219  12.542 -0.3457 -0.1839 -0.0781
15592TIP3    H168191   5.047   6.174  12.610 -0.9448  0.7452  0.1143
15592TIP3    H268192   5.078   6.312  12.556  0.1905  0.0717 -0.9916
15593TIP3   OH268193   4.822   0.446  11.380  0.5307 -0.0379 -0.2677
15593TIP3    H168194   4.777   0.529  11.398  0.8865  0.4718 -1.6180
15593TIP3    H268195   4.804   0.392  11.457 -0.3744  1.0087  0.2845
15594TIP3   OH268196   3.948   2.154  12.079 -0.3089  0.5715 -0.0766
15594TIP3    H168197   4.017   2.215  12.107  0.7461 -0.1397 -1.0653
15594TIP3    H268198   3.995   2.077  12.049 -1.6246 -1.8610  3.4842
15595TIP3   OH268199   3.421   6.093  15.867 -0.1384 -0.2915  0.2538
15595TIP3    H168200   3.491   6.157  15.856  0.3266 -1.0993 -2.0919
15595TIP3    H268201   3.444   6.045  15.946  1.1881  0.3827  0.2925
15596TIP3   OH268202   4.084   4.852  12.660 -0.3349  0.2118 -0.2969
15596TIP3    H168203   4.021   4.779  12.657 -0.7435  0.5554 -0.1885
15596TIP3    H268204   4.061   4.906  12.585 -0.9269  0.9486  0.3940
15597TIP3   OH268205   0.660   3.705   3.809  0.3141 -0.0243  0.0975
15597TIP3    H168206   0.621   3.791   3.819  0.1641  0.1122 -1.3596
15597TIP3    H268207   0.749   3.722   3.776  0.2526 -0.4141 -0.2833
15598TIP3   OH268208   5.235   0.587  10.960 -0.1080 -0.1309  0.5376
15598TIP3    H168209   5.299   0.630  11.017  0.2717  0.6715 -0.4515
15598TIP3    H268210   5.229   0.498  10.994  3.4213 -1.0413 -0.7463
15599TIP3   OH268211   1.821   3.628   4.422 -0.1301 -0.5495  0.3486
15599TIP3    H168212   1.731   3.642   4.452  0.2101 -2.4912  2.5365
15599TIP3    H268213   1.846   3.543   4.458  1.9932 -0.9388 -1.7701
15600TIP3   OH268214   0.384   2.481   4.521 -0.5100  0.1611 -0.3008
15600TIP3    H168215   0.411   2.523   4.439 -2.8434 -0.5046 -1.4976
15600TIP3    H268216   0.292   2.505   4.531  0.0976  1.7417  3.1397
15601TIP3   OH268217   3.473   0.550   3.592  0.6027 -0.0871 -0.1691
15601TIP3    H168218   3.493   0.537   3.685  2.9861  1.7347 -0.3357
15601TIP3    H268219   3.445   0.464   3.561 -0.7500 -0.6286  2.3148
15602TIP3   OH268220   0.073   4.047   2.062  0.3038 -0.2103  0.7754
15602TIP3    H168221   0.021   4.097   1.999 -1.1485 -1.1616  1.1793
15602TIP3    H268222   0.085   4.106   2.136 -2.2781 -0.7206  1.6908
15603TIP3   OH268223   1.482   4.463  14.998 -0.6344 -0.0950 -0.9286
15603TIP3    H168224   1.512   4.419  15.077 -1.4483  2.5535  1.0096
15603TIP3    H268225   1.399   4.419  14.976 -1.6766  0.6623  1.2178
15604TIP3   OH268226   1.974   5.448   3.308  0.2152 -0.0227  0.1250
15604TIP3    H168227   1.981   5.511   3.235 -0.9039  0.1206  0.1209
15604TIP3    H268228   1.894   5.399   3.289  1.2101 -1.6482 -0.0057
15605TIP3   OH268229   1.257   4.023  15.679  0.0641  0.2896 -0.0872
15605TIP3    H168230   1.277   3.937  15.642 -0.0293  0.4171 -0.4385
15605TIP3    H268231   1.252   4.082  15.603  0.5130  0.6810  0.1781
15606TIP3   OH268232   1.542   5.561  15.926 -0.2523  0.1123  0.6766
15606TIP3    H168233   1.457   5.521  15.910 -0.4393  0.0260  1.8491
15606TIP3    H268234   1.571   5.589  15.839 -1.0145 -0.7534  0.1241
15607TIP3   OH268235   5.194   1.125  16.555  0.1601  0.1081  0.8441
15607TIP3    H168236   5.132   1.075  16.502 -0.6137  0.2045  1.6289
15607TIP3    H268237   5.252   1.167  16.492 -1.8783  1.7520 -0.0403
15608TIP3   OH268238   6.284   1.573  10.992  0.2232 -0.0941 -0.9106
15608TIP3    H168239   6.351   1.505  10.987  0.3320  0.0154 -0.9559
15608TIP3    H268240   6.294   1.623  10.911 -0.9761 -1.0438 -1.6822
15609TIP3   OH268241   0.648   0.615  11.150  0.0757 -0.5645 -0.8422
15609TIP3    H168242   0.629   0.533  11.104 -2.3133 -0.3648 -0.3589
15609TIP3    H268243   0.577   0.674  11.124  1.0551  0.9623 -0.2020
15610TIP3   OH268244   0.523   4.413  13.954  0.1160  0.3607 -0.3425
15610TIP3    H168245   0.469   4.376  14.024  1.7666 -0.6600  0.4654
15610TIP3    H268246   0.527   4.344  13.888  2.4370 -0.6770  0.7510
15611TIP3   OH268247   2.920   3.336   2.276 -0.2487  0.0354  0.0167
15611TIP3    H168248   2.880   3.273   2.217  2.0161 -0.5838 -0.9473
15611TIP3    H268249   2.880   3.317   2.361 -0.5739 -1.8081 -0.5034
15612TIP3   OH268250   3.752   5.169  10.939 -0.0280  0.2471  0.0181
15612TIP3    H168251   3.827   5.210  10.896 -0.3627 -0.1137 -0.9352
15612TIP3    H268252   3.675   5.211  10.900 -0.3432 -0.0341  0.3192
15613TIP3   OH268253   2.080   3.644  13.162  0.2299  0.2886  0.0589
15613TIP3    H168254   1.991   3.617  13.139  0.0617  0.2493  0.7446
15613TIP3    H268255   2.134   3.614  13.088 -0.2033 -0.3972  0.0110
15614TIP3   OH268256   3.816   4.773   2.022  0.1544 -0.2748  0.5781
15614TIP3    H168257   3.868   4.770   2.103  1.1189  3.1421  0.2069
15614TIP3    H268258   3.758   4.697   2.030  2.6091 -2.1645  2.7552
15615TIP3   OH268259   1.808   4.115   5.716  0.2081  0.2468  0.1115
15615TIP3    H168260   1.842   4.078   5.798  2.1679  4.6786  1.6063
15615TIP3    H268261   1.716   4.089   5.714  0.6398 -1.8575  2.5071
15616TIP3   OH268262   4.052   3.770  11.224 -0.0929 -0.1985 -0.0962
15616TIP3    H168263   4.034   3.846  11.280 -0.4218 -0.3097 -0.0480
15616TIP3    H268264   3.989   3.778  11.152  0.7174  0.2647 -0.7740
15617TIP3   OH268265   0.410   3.254  15.454  0.2329 -0.2694  0.0904
15617TIP3    H168266   0.502   3.227  15.458  0.7909  1.0758 -1.9592
15617TIP3    H268267   0.375   3.234  15.540  2.7374  0.2087  1.3078
15618TIP3   OH268268   6.477   2.050   1.550 -0.2342  0.3451 -0.0991
15618TIP3    H168269   6.457   2.068   1.459  1.5787 -0.0369 -0.6120
15618TIP3    H268270   6.496   1.956   1.552 -1.9857 -0.0331  1.0413
15619TIP3   OH268271   6.516   1.777  12.925  0.2933 -0.2176  0.2199
15619TIP3    H168272   6.611   1.781  12.941  0.4343  1.0819 -0.7739
15619TIP3    H268273   6.484   1.864  12.948 -0.3175  0.0265 -1.4138
15620TIP3   OH268274   1.374   0.955  10.385  0.0588 -0.0816  0.5371
15620TIP3    H168275   1.408   1.044  10.389 -1.6792  0.5897  1.6619
15620TIP3    H268276   1.417   0.916  10.309 -0.1256  2.1352 -0.7929
15621TIP3   OH268277   6.555   0.715  13.680 -0.1526 -0.7394  0.7109
15621TIP3    H168278   6.591   0.651  13.618  1.5166 -0.2824  1.1665
15621TIP3    H268279   6.586   0.686  13.765  2.5922  1.8521  0.7299
15622TIP3   OH268280   5.594   0.202  11.410 -0.2238  0.0219 -0.4977
15622TIP3    H168281   5.625   0.114  11.389  1.4470  0.6259 -0.7981
15622TIP3    H268282   5.542   0.191  11.489  0.6974 -1.1287 -0.0167
15623TIP3   OH268283   5.229   5.843   6.017 -0.0527  0.5154  0.5630
15623TIP3    H168284   5.161   5.893   6.061 -0.8547 -0.3606  0.3409
15623TIP3    H268285   5.297   5.832   6.084 -0.9894 -0.2894  1.4085
15624TIP3   OH268286   6.457   3.623  14.144 -0.3479  0.0500 -0.2995
15624TIP3    H168287   6.457   3.602  14.050  0.2457 -0.7201 -0.1373
15624TIP3    H268288   6.526   3.569  14.181 -0.3428  0.6057  0.5379
15625TIP3   OH268289   0.526   2.716   3.061  0.4614  0.1145 -0.0734
15625TIP3    H168290   0.526   2.699   2.967  2.1516 -0.9867  0.0873
15625TIP3    H268291   0.552   2.807   3.070  2.3170 -0.3357 -0.6352
15626TIP3   OH268292   0.990   1.783  11.077 -0.0493  0.3377  0.1654
15626TIP3    H168293   0.924   1.750  11.015 -0.6770 -0.0360  1.0184
15626TIP3    H268294   1.063   1.722  11.069 -2.1795 -3.1686  3.6691
15627TIP3   OH268295   0.501   3.516  11.433  0.3408 -0.6036 -0.3446
15627TIP3    H168296   0.496   3.521  11.337  0.6909  1.3937 -0.2971
15627TIP3    H268297   0.410   3.509  11.461  0.0933  0.6438 -0.7745
15628TIP3   OH268298   1.452   6.486   3.937  0.3768  0.1398 -0.1845
15628TIP3    H168299   1.510   6.511   4.009  1.3152 -0.8865 -0.5506
15628TIP3    H268300   1.479   6.541   3.864  2.3314 -1.6697 -0.9436
15629TIP3   OH268301   1.552   5.056  13.975  0.3577  0.3708  0.0782
15629TIP3    H168302   1.504   5.118  13.918  0.7797 -0.5845 -1.3787
15629TIP3    H268303   1.511   5.066  14.061 -2.8613 -0.7283 -1.1707
15630TIP3   OH268304   6.012   6.158  16.238  0.3243  0.6481  0.2151
15630TIP3    H168305   6.065   6.183  16.313  0.1959 -0.4165  0.6837
15630TIP3    H268306   5.958   6.235  16.219  0.5688  1.0255  1.0258
15631TIP3   OH268307   5.310   6.651  16.645 -0.0727 -0.0479 -0.6192
15631TIP3    H168308   5.343   6.595  16.575  0.7103  0.6359 -0.8128
15631TIP3    H268309   5.306   6.738  16.606  1.2866  0.5261  0.4433
15632TIP3   OH268310   4.975   4.849   0.854  0.0927 -0.0974 -0.4255
15632TIP3    H168311   4.905   4.795   0.817 -0.3858  0.1649  0.0800
15632TIP3    H268312   5.038   4.785   0.887 -0.6247 -0.3741  0.4641
15633TIP3   OH268313   1.976   1.022   2.843 -0.6001 -0.1631  0.1960
15633TIP3    H168314   1.903   1.057   2.792  0.5982  0.4812 -1.1540
15633TIP3    H268315   1.986   1.082   2.917  1.2074  2.3666 -1.8877
15634TIP3   OH268316   0.117   0.637   6.351  0.6570  0.2962 -0.4075
15634TIP3    H168317   0.185   0.593   6.402  2.3553  0.6857 -2.2076
15634TIP3    H268318   0.085   0.707   6.408 -0.7349 -1.9746  1.7799
15635TIP3   OH268319   5.124   4.871  12.605  0.3254 -0.4977  0.5295
15635TIP3    H168320   5.199   4.812  12.605  0.7444  0.0231  0.3201
15635TIP3    H268321   5.070   4.842  12.532  0.3663 -0.8200  0.6261
15636TIP3   OH268322   4.550   1.755  15.435 -0.2151  0.5258  0.3111
15636TIP3    H168323   4.472   1.810  15.443 -1.1976 -0.4848 -1.5488
15636TIP3    H268324   4.523   1.670  15.471  0.2765  0.4043  0.3925
15637TIP3   OH268325   3.085   6.662  11.572 -0.2810  0.3164 -0.2622
15637TIP3    H168326   3.051   6.593  11.516 -0.6415  0.8527 -0.7066
15637TIP3    H268327   3.102   6.618  11.656  0.0309 -0.4311 -0.7081
15638TIP3   OH268328   1.896   0.639   4.670  0.1481  0.0150 -0.0135
15638TIP3    H168329   1.933   0.571   4.727 -0.4686 -0.9769 -0.7618
15638TIP3    H268330   1.867   0.707   4.731  2.6446  0.6037  0.6445
15639TIP3   OH268331   6.373   6.735   4.820 -0.5210 -0.1249  0.3240
15639TIP3    H168332   6.348   6.824   4.845  1.4245  0.7665 -0.6834
15639TIP3    H268333   6.381   6.738   4.725 -1.9998 -1.8486  0.0901
15640TIP3   OH268334   0.291   5.007  16.742 -0.1849 -0.0982  0.1237
15640TIP3    H168335   0.297   4.953  16.821 -0.1024 -1.9597 -1.1036
15640TIP3    H268336   0.198   5.009  16.722 -0.2923  1.0359  0.6855
15641TIP3   OH268337   6.541   4.699   0.705 -0.9883 -0.4628  0.0778
15641TIP3    H168338   6.528   4.642   0.629 -1.5895 -3.2785  2.1416
15641TIP3    H268339   6.452   4.724   0.731 -0.8544 -0.4287  0.5062
15642TIP3   OH268340   3.560   3.172  16.075 -0.2586 -0.4601  0.1220
15642TIP3    H168341   3.601   3.249  16.036 -0.6700 -1.0844 -1.6467
15642TIP3    H268342   3.503   3.138  16.006 -0.3901 -2.1229  1.0012
15643TIP3   OH268343   1.936   4.285  15.292 -0.7928 -0.3940  0.4212
15643TIP3    H168344   1.950   4.331  15.375  0.4503  1.5667 -0.7764
15643TIP3    H268345   2.007   4.316  15.236 -1.4854 -1.8095 -1.3315
15644TIP3   OH268346   2.768   0.686   1.260  0.0908  0.1418  0.7867
15644TIP3    H168347   2.696   0.629   1.289  0.7004  0.0645  2.2558
15644TIP3    H268348   2.837   0.671   1.325  0.8048  1.4655  0.3571
15645TIP3   OH268349   1.109   2.985   3.211 -0.2708  0.2418 -0.4552
15645TIP3    H168350   1.165   2.954   3.282  0.2291  0.7788 -0.6049
15645TIP3    H268351   1.028   2.935   3.220 -0.0243 -0.0481  0.1868
15646TIP3   OH268352   1.635   3.816  11.046  0.0773  0.2575 -0.1149
15646TIP3    H168353   1.558   3.873  11.041 -0.4323 -0.4901 -1.5399
15646TIP3    H268354   1.708   3.875  11.062 -0.4272  1.3732 -1.6556
15647TIP3   OH268355   5.489   5.617   0.208 -0.4294  0.0330  0.3793
15647TIP3    H168356   5.517   5.704   0.236  1.3105 -0.2426 -0.3528
15647TIP3    H268357   5.411   5.633   0.154 -0.4409  1.0704  0.6863
15648TIP3   OH268358   4.896   0.235   2.681  0.2330 -0.3812  0.0602
15648TIP3    H168359   4.947   0.304   2.639  0.2445  0.0516  0.7763
15648TIP3    H268360   4.961   0.182   2.727  0.1419 -0.4157  0.1489
15649TIP3   OH268361   4.681   6.641  15.919  0.7756  0.4453  0.0007
15649TIP3    H168362   4.772   6.630  15.890  1.2748  0.1223  1.5790
15649TIP3    H268363   4.672   6.735  15.932  0.8172  0.5008 -0.3535
15650TIP3   OH268364   0.533   1.883   4.878  0.0016 -0.4384 -0.1847
15650TIP3    H168365   0.602   1.947   4.892 -1.0476  0.6656  0.1657
15650TIP3    H268366   0.461   1.913   4.935 -0.6462 -1.7304 -0.2803
15651TIP3   OH268367   2.648   0.094  14.313 -0.4966 -0.3978 -0.1711
15651TIP3    H168368   2.558   0.112  14.287 -0.1495  1.2295 -0.3684
15651TIP3    H268369   2.701   0.124  14.239  0.3185  1.0260  0.9371
15652TIP3   OH268370   4.019   5.516  14.075  0.3774  0.4192  0.2895
15652TIP3    H168371   4.014   5.420  14.066 -1.8439 -0.0588  4.3625
15652TIP3    H268372   4.001   5.548  13.986 -0.2508 -2.9231 -0.9677
15653TIP3   OH268373   2.771   3.092   4.495  0.3850 -0.1549 -0.7291
15653TIP3    H168374   2.707   3.021   4.500  0.8454 -0.4820  1.9479
15653TIP3    H268375   2.852   3.054   4.527  1.2567  0.9903 -1.4844
15654TIP3   OH268376   6.766   0.170  13.857 -0.4992  0.0103  0.1582
15654TIP3    H168377   6.757   0.161  13.762 -1.9643  1.6385  0.0859
15654TIP3    H268378   6.685   0.133  13.892  0.0534 -0.6189  0.7787
15655TIP3   OH268379   5.619   3.379  13.832 -0.1098  0.3686  0.5295
15655TIP3    H168380   5.689   3.410  13.888  0.5325 -0.2323  0.0659
15655TIP3    H268381   5.590   3.457  13.784  0.6983  0.4937  0.2353
15656TIP3   OH268382   3.332   2.045   1.257  0.7795  0.7189  0.2611
15656TIP3    H168383   3.328   1.965   1.309  0.5619  0.4879 -0.1022
15656TIP3    H268384   3.423   2.050   1.229  0.2818 -0.8707 -1.9368
15657TIP3   OH268385   4.993   2.767   4.420 -0.1446 -0.0632 -0.2822
15657TIP3    H168386   5.043   2.784   4.340 -2.2968  1.8247 -1.3472
15657TIP3    H268387   4.982   2.853   4.460 -0.1229 -0.8259  1.4512
15658TIP3   OH268388   0.176   3.279   6.249  0.1242 -0.2341  0.0562
15658TIP3    H168389   0.253   3.255   6.301 -0.2860 -1.3224  0.1830
15658TIP3    H268390   0.103   3.233   6.291 -0.3862 -0.2455 -0.8248
15659TIP3   OH268391   1.098   5.141   4.363  0.6507 -0.0646 -0.2845
15659TIP3    H168392   1.110   5.111   4.453 -1.4004  0.7222  0.3297
15659TIP3    H268393   1.057   5.067   4.319 -2.2794  0.8308  0.6337
15660TIP3   OH268394   5.888   1.058   0.719  0.4446 -0.2781 -0.5980
15660TIP3    H168395   5.826   1.044   0.647 -1.4137 -0.6889  0.9776
15660TIP3    H268396   5.959   0.996   0.702 -0.1468 -0.6571 -1.8535
15661TIP3   OH268397   0.168   6.214  16.920  0.1247  0.4125 -0.5243
15661TIP3    H168398   0.072   6.212  16.918  0.1182  0.6363 -2.1457
15661TIP3    H268399   0.193   6.229  16.829  1.7710 -3.0099 -0.7960
15662TIP3   OH268400   5.246   1.089  15.776  0.5432  0.3444  0.6804
15662TIP3    H168401   5.297   1.034  15.835  0.6553  1.0782  1.2920
15662TIP3    H268402   5.157   1.084  15.809  0.1686 -0.9859 -0.4238
15663TIP3   OH268403   0.571   2.069   0.337  0.4726 -0.0860 -0.0755
15663TIP3    H168404   0.594   2.018   0.259 -0.1128 -1.2415  0.4899
15663TIP3    H268405   0.599   2.015   0.410  0.4175  0.6976  0.5379
15664TIP3   OH268406   5.153   5.797   4.352 -0.1816 -0.2824 -0.1018
15664TIP3    H168407   5.140   5.890   4.332 -0.3689 -0.2172  0.3209
15664TIP3    H268408   5.134   5.789   4.445  0.0042 -0.7160 -0.0974
15665TIP3   OH268409   2.176   5.282   0.094 -0.2948  0.2407 -0.2476
15665TIP3    H168410   2.116   5.345   0.054  1.2736  2.0699  0.1397
15665TIP3    H268411   2.259   5.296   0.049 -0.0534 -2.1060 -0.6447
15666TIP3   OH268412   2.752   6.041  16.704  0.2174 -0.0429 -0.1252
15666TIP3    H168413   2.736   5.963  16.650  2.0811 -0.7361  0.2129
15666TIP3    H268414   2.840   6.070  16.678 -0.3814  1.8990 -0.1367
15667TIP3   OH268415   6.013   1.229  14.665  0.3314  0.3131  0.5149
15667TIP3    H168416   5.971   1.283  14.599 -0.2781  0.3074  0.8928
15667TIP3    H268417   5.948   1.220  14.734  0.6562 -0.3827  0.7389
15668TIP3   OH268418   0.469   1.305   6.113 -0.0794  0.1741  0.2629
15668TIP3    H168419   0.432   1.217   6.112  0.2010  0.0553  0.3143
15668TIP3    H268420   0.504   1.316   6.201  0.2452  0.1855  0.1340
15669TIP3   OH268421   0.919   4.069  16.119 -0.1773 -0.5021  0.3688
15669TIP3    H168422   1.005   4.107  16.096 -0.8236  1.0031  0.2779
15669TIP3    H268423   0.870   4.143  16.155 -1.1524 -1.5460  1.2397
15670TIP3   OH268424   3.616   2.031   5.864 -0.3777 -0.5101 -0.2759
15670TIP3    H168425   3.708   2.059   5.857 -0.8328  0.9793 -0.7480
15670TIP3    H268426   3.598   1.989   5.779 -0.0236 -1.2032 -0.0173
15671TIP3   OH268427   6.571   3.222  13.388 -0.0522  0.2256 -0.5657
15671TIP3    H168428   6.602   3.247  13.301  1.2612  0.6072 -0.0139
15671TIP3    H268429   6.586   3.128  13.393 -0.7234  0.0922 -0.9767
15672TIP3   OH268430   4.551   4.093  14.064 -0.3578  0.5381 -0.0223
15672TIP3    H168431   4.505   4.101  13.981  2.0273  2.6619 -1.2937
15672TIP3    H268432   4.533   4.004  14.093 -1.0166 -0.4219 -3.0034
15673TIP3   OH268433   1.794   0.617  11.377 -0.0821  0.7938 -0.9127
15673TIP3    H168434   1.848   0.632  11.299  0.8200 -0.2032 -0.5068
15673TIP3    H268435   1.858   0.601  11.447 -0.9071 -0.1797 -0.3616
15674TIP3   OH268436   1.067   0.641   5.348 -0.0979 -0.2096  0.3611
15674TIP3    H168437   1.080   0.626   5.442  0.4415  0.5067  0.4104
15674TIP3    H268438   1.138   0.700   5.323  0.1410 -0.8922 -0.6427
15675TIP3   OH268439   1.360   4.882  16.145 -0.2804  0.3442 -0.0841
15675TIP3    H168440   1.337   4.809  16.089 -0.3946 -0.2463  0.7168
15675TIP3    H268441   1.293   4.882  16.214  0.5046  0.3329  0.6978
15676TIP3   OH268442   3.839   2.944  12.290  0.8003 -0.0504 -0.1756
15676TIP3    H168443   3.873   3.001  12.221  0.6694 -0.1048 -0.2852
15676TIP3    H268444   3.790   2.876  12.244  1.6988 -0.7613 -0.0844
15677TIP3   OH268445   5.385   3.450  12.498  0.4585 -0.5321 -0.2446
15677TIP3    H168446   5.434   3.429  12.418  2.0830 -0.9973  0.8250
15677TIP3    H268447   5.296   3.421  12.479  1.0402 -1.5953 -1.5226
15678TIP3   OH268448   4.858   4.340  13.364 -0.2456 -0.1688 -0.6150
15678TIP3    H168449   4.782   4.286  13.344  0.5016 -1.5268  0.0745
15678TIP3    H268450   4.910   4.339  13.284 -0.8543  0.6317 -1.0350
15679TIP3   OH268451   2.065   3.248   4.857 -0.8881 -0.4513  0.3849
15679TIP3    H168452   1.999   3.310   4.889 -1.8969 -2.0874  1.6312
15679TIP3    H268453   2.085   3.194   4.933  2.5246  0.4382  0.2937
15680TIP3   OH268454   3.605   3.307   1.904 -0.2798 -0.2973  0.3321
15680TIP3    H168455   3.682   3.319   1.959 -1.5232  1.6523  1.7521
15680TIP3    H268456   3.571   3.220   1.928 -0.3296  0.1733  2.0852
15681TIP3   OH268457   2.432   3.570   2.315 -0.4438 -0.0423  0.0233
15681TIP3    H168458   2.352   3.573   2.367 -0.3575 -0.6002  0.1912
15681TIP3    H268459   2.481   3.497   2.351 -0.4443 -0.5246 -0.9342
15682TIP3   OH268460   0.334   6.444  13.656  0.2281  0.0734  0.0127
15682TIP3    H168461   0.243   6.425  13.634  0.3997 -1.8769  0.8425
15682TIP3    H268462   0.333   6.537  13.681 -1.9107 -0.3506  1.8478
15683TIP3   OH268463   5.261   4.908   1.170  0.2581  0.7334  0.0337
15683TIP3    H168464   5.197   4.848   1.209 -0.7715  0.1493 -2.3584
15683TIP3    H268465   5.226   4.995   1.188  1.5174  0.7035  3.1227
15684TIP3   OH268466   2.914   5.699   5.072 -0.0316  0.5590 -0.3514
15684TIP3    H168467   2.985   5.732   5.126 -0.7875 -0.0246  1.0671
15684TIP3    H268468   2.839   5.756   5.093 -0.0980  0.9358 -1.5381
15685TIP3   OH268469   5.038   0.994  13.218 -0.4192  0.3091  0.5087
15685TIP3    H168470   5.033   0.932  13.145 -0.6020  0.1386  0.6664
15685TIP3    H268471   4.973   0.963  13.281  1.3260 -0.9443  1.8024
15686TIP3   OH268472   2.106   4.478   0.088  0.1629 -0.8222  0.0049
15686TIP3    H168473   2.129   4.397   0.044  1.1640  0.2695 -1.6089
15686TIP3    H268474   2.048   4.523   0.027 -1.8756 -1.0672  1.6521
15687TIP3   OH268475   6.129   4.523   0.033  0.5438  0.3941  0.1809
15687TIP3    H168476   6.210   4.483   0.066  0.1567 -0.1698  0.4660
15687TIP3    H268477   6.149   4.616   0.028  0.4809  0.6070  2.5245
15688TIP3   OH268478   1.798   0.817   6.272 -0.6134 -0.3176  0.1408
15688TIP3    H168479   1.790   0.811   6.367  0.2146 -0.9349  0.1741
15688TIP3    H268480   1.709   0.799   6.240 -0.8099 -0.5034  0.7753
15689TIP3   OH268481   6.397   2.514   2.644 -0.1825 -0.5914  0.2928
15689TIP3    H168482   6.443   2.525   2.728 -0.2443 -1.3184  0.4309
15689TIP3    H268483   6.316   2.564   2.655  0.7801  1.1547 -0.1481
15690TIP3   OH268484   3.650   4.461   1.811  0.3047 -0.3053 -0.4052
15690TIP3    H168485   3.651   4.394   1.742 -2.8094 -1.7934  0.7724
15690TIP3    H268486   3.621   4.541   1.767 -1.3536 -1.1673 -0.9779
15691TIP3   OH268487   1.679   1.579   1.600  0.1709 -0.0263  0.8462
15691TIP3    H168488   1.586   1.598   1.608  0.0649 -0.6318  1.0875
15691TIP3    H268489   1.683   1.489   1.567  0.6677 -0.1127  1.1204
15692TIP3   OH268490   0.855   2.598  11.823  0.1917 -0.2592 -0.0259
15692TIP3    H168491   0.928   2.656  11.844 -0.5114  0.3385  0.8483
15692TIP3    H268492   0.779   2.639  11.865 -0.4458 -1.4674  0.0360
15693TIP3   OH268493   2.750   4.428  15.752 -0.4272  0.6146 -0.3736
15693TIP3    H168494   2.758   4.505  15.696 -0.4480  0.7614 -0.1747
15693TIP3    H268495   2.839   4.410  15.781 -0.3231  0.1561 -0.9612
15694TIP3   OH268496   1.796   0.812   1.411 -0.1522 -0.1795 -0.1913
15694TIP3    H168497   1.818   0.719   1.415  1.7919  0.2663  3.1133
15694TIP3    H268498   1.756   0.831   1.496 -0.3020  2.0641 -0.7039
15695TIP3   OH268499   5.835   6.512  16.340  0.2053  1.0065  0.3589
15695TIP3    H168500   5.904   6.484  16.401 -0.7653 -1.5133  0.4223
15695TIP3    H268501   5.819   6.604  16.363  1.4776  0.8151  2.3139
15696TIP3   OH268502   5.555   4.122  14.115 -0.5017 -0.0233 -0.0879
15696TIP3    H168503   5.531   4.042  14.070 -1.7852 -0.6571  1.6131
15696TIP3    H268504   5.561   4.096  14.207 -0.0420  1.6458  0.3800
15697TIP3   OH268505   3.866   6.105  13.713 -0.1209  0.4623 -0.4820
15697TIP3    H168506   3.881   6.165  13.641  2.7115 -0.1853 -0.5477
15697TIP3    H268507   3.818   6.032  13.675  1.2170  0.1938 -1.7162
15698TIP3   OH268508   5.366   1.929  11.256  0.1635 -0.1903 -0.3234
15698TIP3    H168509   5.414   1.994  11.204  1.0133 -0.0325  0.6238
15698TIP3    H268510   5.432   1.894  11.317  0.0878 -2.8369 -1.6071
15699TIP3   OH268511   4.463   5.619  13.474  0.2712 -0.2925  0.5611
15699TIP3    H168512   4.500   5.609  13.387 -0.5883 -0.3945  0.2010
15699TIP3    H268513   4.530   5.583  13.533  0.5782 -0.8235 -0.1025
15700TIP3   OH268514   2.954   1.907  15.909 -0.3728  0.1594 -0.1560
15700TIP3    H168515   2.984   1.887  15.997  1.5203  0.0274 -0.7818
15700TIP3    H268516   2.992   1.838  15.854  0.4530  1.5280 -1.3860
15701TIP3   OH268517   0.712   3.300   3.869 -0.0145 -0.1494  0.0454
15701TIP3    H168518   0.738   3.295   3.961 -0.6712 -0.1718  0.2357
15701TIP3    H268519   0.791   3.326   3.823  0.0785  0.8519  0.7409
15702TIP3   OH268520   2.226   1.705   4.600 -0.0335 -0.3194 -0.4805
15702TIP3    H168521   2.315   1.740   4.608 -0.2434 -0.1368  1.5286
15702TIP3    H268522   2.233   1.616   4.636 -1.1785  0.6963  2.6236
15703TIP3   OH268523   0.485   1.223  11.379  0.0354 -0.1448  0.0880
15703TIP3    H168524   0.406   1.192  11.423 -1.8286  3.5892 -0.2782
15703TIP3    H268525   0.537   1.263  11.449 -0.7538  1.6900 -0.3305
15704TIP3   OH268526   5.345   6.603  11.231 -0.2779 -0.2954  0.2343
15704TIP3    H168527   5.393   6.545  11.290 -0.7608 -2.2409 -1.1642
15704TIP3    H268528   5.405   6.620  11.159 -0.7609 -0.5792 -0.2455
15705TIP3   OH268529   4.789   3.914   3.311  0.5186 -0.5543 -0.3370
15705TIP3    H168530   4.757   3.900   3.222 -0.4840  1.7285 -0.4154
15705TIP3    H268531   4.869   3.966   3.300 -0.2629  0.7933  0.0681
15706TIP3   OH268532   6.183   3.522  11.974  0.6054  0.0904  0.0756
15706TIP3    H168533   6.203   3.613  11.955  0.4810  0.0773 -0.1174
15706TIP3    H268534   6.119   3.496  11.907  1.9909 -0.6707 -1.0039
15707TIP3   OH268535   6.617   1.893  14.515  0.5665  0.4739  0.7491
15707TIP3    H168536   6.534   1.933  14.539 -0.3377 -0.5005 -0.5836
15707TIP3    H268537   6.603   1.799  14.531  0.6783  0.0574 -1.3166
15708TIP3   OH268538   5.426   6.690  13.030  0.2716 -0.1211 -0.1030
15708TIP3    H168539   5.508   6.717  12.988  0.6906  0.9547  1.3277
15708TIP3    H268540   5.390   6.623  12.972  0.9953  1.0354 -1.9772
15709TIP3   OH268541   2.086   2.021   3.189  0.7554 -0.1950 -0.2472
15709TIP3    H168542   2.118   1.931   3.204  1.0294 -0.0757 -0.1061
15709TIP3    H268543   2.146   2.076   3.239 -1.2452 -0.1385  2.2860
15710TIP3   OH268544   1.730   4.784   6.103 -0.0639 -0.0229 -0.2179
15710TIP3    H168545   1.825   4.792   6.116 -0.1686 -0.0801  0.6419
15710TIP3    H268546   1.703   4.870   6.072  0.1056  0.3639  0.6668
15711TIP3   OH268547   0.852   6.531  15.235 -0.5327  0.4132 -0.0950
15711TIP3    H168548   0.771   6.577  15.212 -1.0605 -0.3345  0.2214
15711TIP3    H268549   0.922   6.592  15.212 -0.9818 -0.1373 -3.4623
15712TIP3   OH268550   5.904   1.285   1.822 -0.1389 -0.1714 -0.0551
15712TIP3    H168551   5.930   1.270   1.913 -0.2621  1.3658  0.2630
15712TIP3    H268552   5.874   1.200   1.792 -0.6657 -0.5902  1.5300
15713TIP3   OH268553   1.934   6.321  16.761 -0.3110  0.5174 -0.2384
15713TIP3    H168554   2.029   6.333  16.767 -0.5363  2.9519 -0.4211
15713TIP3    H268555   1.899   6.409  16.771 -2.6470 -0.4810  1.0627
15714TIP3   OH268556   1.883   5.346   3.938 -0.1825 -0.2470  0.5191
15714TIP3    H168557   1.955   5.327   3.878 -1.4507 -0.7678 -0.9114
15714TIP3    H268558   1.917   5.413   3.996  1.5776 -0.7671  0.1446
15715TIP3   OH268559   0.594   5.867  14.479 -0.5135  0.1781 -0.0981
15715TIP3    H168560   0.650   5.920  14.536 -0.2784  0.7664 -0.8649
15715TIP3    H268561   0.505   5.885  14.510 -0.6403  2.7556 -1.6954
15716TIP3   OH268562   2.617   5.878  14.942  0.5924  0.7311  0.6741
15716TIP3    H168563   2.587   5.793  14.974  0.6387  0.3598 -0.2531
15716TIP3    H268564   2.712   5.873  14.947  0.7771 -0.5071 -2.3589
15717TIP3   OH268565   1.701   2.711   4.134  0.3816 -0.0485 -0.2664
15717TIP3    H168566   1.654   2.756   4.064  0.4417 -0.2069 -0.4086
15717TIP3    H268567   1.783   2.682   4.093  1.1107  1.1807  0.2542
15718TIP3   OH268568   3.280   0.069   3.430 -0.7658 -0.6134 -0.2245
15718TIP3    H168569   3.232   0.064   3.513 -0.3377 -1.2298 -0.0061
15718TIP3    H268570   3.338  -0.006   3.432  1.3934  0.9631  0.2607
15719TIP3   OH268571   2.193   6.604   1.160 -0.4506  0.5862  0.2895
15719TIP3    H168572   2.220   6.518   1.127  1.3317  0.8522  0.9328
15719TIP3    H268573   2.102   6.613   1.131 -0.1789 -0.8163 -1.1818
15720TIP3   OH268574   2.943   3.837  17.104 -0.3129  0.0068 -0.2188
15720TIP3    H168575   2.850   3.861  17.106  0.1582  2.0147  0.2927
15720TIP3    H268576   2.980   3.891  17.035  0.4827 -0.7988 -0.4352
15721TIP3   OH268577   5.146   2.801  13.139  0.1958  0.1464 -0.9753
15721TIP3    H168578   5.125   2.707  13.139  0.0280  0.1652  0.1494
15721TIP3    H268579   5.065   2.842  13.170  0.6021  0.5706 -0.4745
15722TIP3   OH268580   3.912   4.387  15.768  0.2995  0.7055 -0.8745
15722TIP3    H168581   3.963   4.462  15.740  1.8640  0.6509  1.5247
15722TIP3    H268582   3.977   4.321  15.793 -0.8955  0.2991  1.4413
15723TIP3   OH268583   4.918   0.125   3.455  0.9587 -0.2131 -0.1227
15723TIP3    H168584   4.936   0.063   3.385  0.9846 -0.6834  0.2923
15723TIP3    H268585   4.940   0.211   3.418  1.9553 -0.5506 -0.3443
15724TIP3   OH268586   1.387   2.720  12.618 -0.0998 -0.2712  0.6516
15724TIP3    H168587   1.413   2.773  12.543  1.5047 -0.0492  1.3265
15724TIP3    H268588   1.317   2.665  12.585  1.3041 -0.9783 -1.3460
15725TIP3   OH268589   2.487   5.879   1.174  0.2768 -0.1108  0.5770
15725TIP3    H168590   2.507   5.799   1.221 -4.1632  0.1117  3.4898
15725TIP3    H268591   2.421   5.853   1.109 -0.6156  0.9799  1.0063
15726TIP3   OH268592   5.583   5.363  13.056  0.0352  0.6009  0.1970
15726TIP3    H168593   5.551   5.273  13.053 -0.4507  0.7819 -0.3986
15726TIP3    H268594   5.531   5.409  12.989  0.0446  1.3962  0.7215
15727TIP3   OH268595   0.372   4.423  12.935 -0.2831  0.9050  0.2931
15727TIP3    H168596   0.442   4.478  12.900  1.0684 -0.4539  0.7257
15727TIP3    H268597   0.344   4.369  12.861 -0.6986  1.2559  0.1895
15728TIP3   OH268598   2.354   5.506  13.162 -0.4884  0.0300 -0.3258
15728TIP3    H168599   2.422   5.439  13.150  1.1187  1.6860 -1.0507
15728TIP3    H268600   2.279   5.473  13.113  0.6612 -0.7362 -1.6396
15729TIP3   OH268601   5.613   0.692  14.515 -0.5959 -0.3076  0.0945
15729TIP3    H168602   5.704   0.691  14.544 -0.7533  2.1522  0.8951
15729TIP3    H268603   5.577   0.774  14.550 -2.3380  0.1955 -2.5594
15730TIP3   OH268604   4.471   2.057  11.819  0.0268 -0.1224  0.4041
15730TIP3    H168605   4.506   2.010  11.895  0.8019  0.1017  0.1861
15730TIP3    H268606   4.516   2.019  11.744 -1.9009 -1.5040 -0.1463
15731TIP3   OH268607   3.652   5.603  11.389 -0.1785 -0.0663 -0.3867
15731TIP3    H168608   3.582   5.558  11.342 -1.1272  1.5201 -0.5868
15731TIP3    H268609   3.712   5.632  11.321 -0.9659  1.2440 -0.5676
15732TIP3   OH268610   3.090   4.183  13.089 -0.3346 -0.2250  0.0977
15732TIP3    H168611   3.016   4.241  13.075 -0.3820 -0.3204 -0.0377
15732TIP3    H268612   3.163   4.224  13.042 -0.3429 -0.2209  0.0892
15733TIP3   OH268613   0.966   3.082   2.182  0.9028  0.0846  0.4140
15733TIP3    H168614   1.015   3.019   2.129  2.3281  0.9053  0.7129
15733TIP3    H268615   0.879   3.084   2.143  1.4062 -0.6364 -0.7822
15734TIP3   OH268616   2.058   5.554  15.914 -0.3509  0.3275  0.1987
15734TIP3    H168617   2.009   5.598  15.844 -2.1607  2.2497  2.4841
15734TIP3    H268618   2.087   5.626  15.971  1.1612 -1.1453  1.3851
15735TIP3   OH268619   6.257   3.597  15.393 -0.2197 -0.1612  0.7879
15735TIP3    H168620   6.296   3.663  15.450  1.3155 -0.4663  0.1188
15735TIP3    H268621   6.189   3.645  15.345  0.5604  0.8448  0.6425
15736TIP3   OH268622   4.584   0.547   3.708 -0.0696 -0.7738 -0.5102
15736TIP3    H168623   4.666   0.547   3.659 -0.4129 -0.0478 -1.0934
15736TIP3    H268624   4.586   0.628   3.759  0.2526 -1.4837  0.6531
15737TIP3   OH268625   1.026   5.346  12.483 -0.3578 -0.0757  0.2084
15737TIP3    H168626   1.061   5.271  12.531  0.2591  0.8969  1.3637
15737TIP3    H268627   1.093   5.366  12.418 -1.4437 -1.7375 -1.4974
15738TIP3   OH268628   3.649   6.033   2.732 -0.1536  0.1425  0.4379
15738TIP3    H168629   3.645   6.128   2.728  2.1665  0.3440  1.3051
15738TIP3    H268630   3.634   6.012   2.824  0.1750 -0.2575  0.4058
15739TIP3   OH268631   2.797   3.053   0.133  0.5627 -0.0262  0.0940
15739TIP3    H168632   2.871   3.017   0.085 -0.0709  1.4114 -2.1746
15739TIP3    H268633   2.836   3.115   0.195  1.3059  0.4582 -0.8297
15740TIP3   OH268634   2.563   1.401   5.729  0.1936  0.2486  0.3901
15740TIP3    H168635   2.541   1.336   5.661  0.7918  0.6430 -0.1938
15740TIP3    H268636   2.524   1.482   5.698 -2.6366 -0.2690  2.2855
15741TIP3   OH268637   0.757   3.766  14.227  0.6251  0.2763 -0.4665
15741TIP3    H168638   0.751   3.711  14.304 -1.3314 -1.0106 -1.4462
15741TIP3    H268639   0.678   3.820  14.230 -0.0601 -0.5602 -2.0636
15742TIP3   OH268640   0.778   6.159   2.213 -0.2202  0.0858 -0.4647
15742TIP3    H168641   0.742   6.091   2.156 -2.5194 -1.2736  2.3452
15742TIP3    H268642   0.864   6.127   2.237 -0.3709 -0.7169 -0.9428
15743TIP3   OH268643   6.020   1.163   4.160 -0.5276  0.7655 -0.3807
15743TIP3    H168644   6.073   1.100   4.209 -1.3435 -0.2029 -0.6955
15743TIP3    H268645   5.973   1.212   4.227 -2.5659 -1.3688 -0.1181
15744TIP3   OH268646   4.380   6.329  11.282  0.2847 -0.6717 -0.0668
15744TIP3    H168647   4.405   6.346  11.373  2.1972 -0.9519 -0.4974
15744TIP3    H268648   4.350   6.238  11.282 -0.1251 -0.5413  0.3436
15745TIP3   OH268649   3.583   0.453   1.467  0.1680  0.6404 -0.0249
15745TIP3    H168650   3.658   0.506   1.438  0.6183  0.4823  0.8258
15745TIP3    H268651   3.547   0.501   1.541  0.2560  0.0322  0.4200
15746TIP3   OH268652   1.319   4.600   4.007 -0.3392 -0.2430  0.6634
15746TIP3    H168653   1.328   4.617   3.913 -0.0038  0.3320  0.7907
15746TIP3    H268654   1.409   4.600   4.039 -0.3669 -1.7542  0.7759
15747TIP3   OH268655   6.473   3.786  16.431  0.0499 -0.6186 -0.1044
15747TIP3    H168656   6.514   3.871  16.444  2.4250 -1.5319 -1.0326
15747TIP3    H268657   6.446   3.785  16.339  0.5302 -1.0469 -0.2482
15748TIP3   OH268658   1.100   0.670  16.507 -0.5275  0.0309 -0.0570
15748TIP3    H168659   1.161   0.596  16.500 -0.0063  0.3257  1.0425
15748TIP3    H268660   1.149   0.736  16.556 -1.7934  0.2074  1.0205
15749TIP3   OH268661   0.890   0.976   1.050  0.0655  0.2651  0.2498
15749TIP3    H168662   0.953   0.907   1.068 -0.0750  0.4061  1.4188
15749TIP3    H268663   0.873   1.015   1.136 -0.5926  1.1088 -0.2456
15750TIP3   OH268664   2.434   2.522  11.144 -0.1876 -0.1856  0.2825
15750TIP3    H168665   2.443   2.556  11.055 -0.1366 -0.6375  0.1101
15750TIP3    H268666   2.517   2.479  11.162 -0.2027 -0.1072  0.5425
15751TIP3   OH268667   0.535   5.474   3.439 -0.0928  0.0823 -0.0989
15751TIP3    H168668   0.544   5.399   3.380  0.2029 -0.3914  0.5443
15751TIP3    H268669   0.624   5.504   3.453 -0.0396 -0.5597  1.0635
15752TIP3   OH268670   5.608   5.335  15.976  1.0425  0.1986  0.0515
15752TIP3    H168671   5.549   5.319  16.050  1.2784 -0.4830  0.0980
15752TIP3    H268672   5.646   5.420  15.994  0.3269  0.5012  0.1929
15753TIP3   OH268673   5.427   4.063   0.948  0.3570  0.1131  0.2449
15753TIP3    H168674   5.497   4.112   0.991  0.1538  1.4953 -0.9265
15753TIP3    H268675   5.429   4.092   0.857 -1.0092 -0.6622 -0.0690
15754TIP3   OH268676   6.585   5.135  17.175  0.3302  0.0310  0.0033
15754TIP3    H168677   6.633   5.144  17.092 -0.2444  0.4357 -0.2918
15754TIP3    H268678   6.496   5.161  17.154  0.2672  0.5404  0.8475
15755TIP3   OH268679   0.447   0.922  16.545 -0.4339  0.5165  0.5083
15755TIP3    H168680   0.363   0.968  16.541 -0.2975  0.7177 -0.2113
15755TIP3    H268681   0.506   0.978  16.495  0.8021  1.7482  3.1104
15756TIP3   OH268682   5.430   1.201   2.643 -0.0109  0.1809  0.6467
15756TIP3    H168683   5.382   1.204   2.726 -0.2219  1.3275  0.5144
15756TIP3    H268684   5.391   1.273   2.592 -0.3092 -0.8940 -0.6792
15757TIP3   OH268685   3.059   2.075  12.870 -0.2460 -0.2862 -0.2007
15757TIP3    H168686   2.990   2.025  12.826  0.1863 -0.3837 -0.7767
15757TIP3    H268687   3.141   2.033  12.842  0.3439  2.2403 -2.7772
15758TIP3   OH268688   4.683   3.969  15.623 -0.1914  0.2402  0.2459
15758TIP3    H168689   4.663   4.043  15.680 -0.5106 -1.1607  2.0321
15758TIP3    H268690   4.759   3.927  15.664  0.7032  0.1805 -1.3699
15759TIP3   OH268691   2.184   0.075  16.267  0.3686  0.2977  0.0581
15759TIP3    H168692   2.234   0.016  16.210  0.1581  0.2932 -0.1233
15759TIP3    H268693   2.095   0.074  16.230  0.6685  1.7703 -0.7680
15760TIP3   OH268694   6.031   2.574   0.449 -0.0146 -0.2488  0.3773
15760TIP3    H168695   6.073   2.488   0.456 -0.5664 -0.4317  2.0975
15760TIP3    H268696   6.084   2.622   0.387  1.0687 -1.4151  0.3532
15761TIP3   OH268697   1.707   3.031  17.060  0.0645  0.1454 -0.2554
15761TIP3    H168698   1.742   2.949  17.024 -1.0130 -0.3966 -0.0778
15761TIP3    H268699   1.692   3.013  17.152  0.4747  0.7720 -0.0565
15762TIP3   OH268700   1.995   0.516  16.578  0.1014 -0.4625 -0.2482
15762TIP3    H168701   1.951   0.588  16.532 -0.3911 -0.6371 -0.0605
15762TIP3    H268702   1.941   0.502  16.656  0.5692 -0.5942  0.0559
15763TIP3   OH268703   2.493   4.601  11.090  0.6704 -0.1231  0.5390
15763TIP3    H168704   2.530   4.557  11.014  0.1130  0.4800 -0.1006
15763TIP3    H268705   2.474   4.531  11.152  0.0147 -0.7729 -0.3597
15764TIP3   OH268706   4.848   3.513   0.996  0.1779  0.9385 -0.3556
15764TIP3    H168707   4.902   3.440   1.023 -1.1096  0.0263 -0.1690
15764TIP3    H268708   4.830   3.561   1.077 -2.2025 -0.7940  0.2667
15765TIP3   OH268709   2.230   0.408   2.934  0.6223 -0.5812  0.1952
15765TIP3    H168710   2.170   0.428   2.862 -0.5709  0.7394  1.4768
15765TIP3    H268711   2.184   0.438   3.013  1.6721 -2.4040  1.5859
15766TIP3   OH268712   1.618   0.104   5.621 -0.0794  0.6763 -0.4519
15766TIP3    H168713   1.684   0.138   5.560 -0.8726 -0.2916 -1.8992
15766TIP3    H268714   1.534   0.133   5.584 -0.6660 -1.2237 -0.6872
15767TIP3   OH268715   6.519   0.395   0.564 -0.3780  0.0250 -0.5710
15767TIP3    H168716   6.608   0.375   0.534 -0.4746 -0.0444 -0.8126
15767TIP3    H268717   6.530   0.420   0.655 -0.1200 -0.0727 -0.5737
15768TIP3   OH268718   1.364   0.180   2.713  0.2063  0.1372 -0.0109
15768TIP3    H168719   1.357   0.119   2.787  1.6146 -1.1066 -0.8496
15768TIP3    H268720   1.452   0.165   2.679 -0.4781  0.5543 -2.0629
15769TIP3   OH268721   3.318   5.070  16.193  0.3354  0.2644  0.3636
15769TIP3    H168722   3.324   4.977  16.170  2.2091  0.4401 -0.0054
15769TIP3    H268723   3.224   5.088  16.193 -0.0694 -1.5749  0.2586
15770TIP3   OH268724   0.426   0.961  13.031  0.0697 -0.1913 -0.2914
15770TIP3    H168725   0.487   0.894  13.062 -0.3100 -0.5580 -0.3258
15770TIP3    H268726   0.363   0.972  13.102  1.8279  2.3441  1.0310
15771TIP3   OH268727   0.272   3.947  16.229  0.3998 -0.2860 -0.1484
15771TIP3    H168728   0.224   3.877  16.274  0.0253 -1.1782 -1.8693
15771TIP3    H268729   0.222   4.027  16.249 -0.5498 -0.8715 -0.1298
15772TIP3   OH268730   0.876   5.861  16.006  0.2680 -0.0277 -0.0641
15772TIP3    H168731   0.866   5.816  16.090 -0.2789  1.5317  0.7635
15772TIP3    H268732   0.952   5.821  15.965  0.0641 -1.3598  0.8160
15773TIP3   OH268733   2.678   0.188  13.737  0.1871  0.3292  0.2431
15773TIP3    H168734   2.696   0.281  13.720 -0.1732  0.1477 -1.2921
15773TIP3    H268735   2.584   0.179  13.721  0.4290 -0.5201 -0.8149
15774TIP3   OH268736   6.284   5.265  17.190  0.3639 -0.4391 -0.3982
15774TIP3    H168737   6.236   5.199  17.139 -3.9748  1.0790  1.2488
15774TIP3    H268738   6.292   5.225  17.277  1.6196 -0.4180 -0.4989
15775TIP3   OH268739   5.832   1.230  14.876 -0.0020 -0.0454  0.8980
15775TIP3    H168740   5.847   1.292  14.947 -1.2290 -0.4640  1.5429
15775TIP3    H268741   5.746   1.252  14.841  0.2743 -0.3123  0.0147
15776TIP3   OH268742   1.089   4.226  15.818  0.5085  0.1146  0.2686
15776TIP3    H168743   1.059   4.139  15.792 -1.5259  1.0586 -0.6966
15776TIP3    H268744   1.165   4.243  15.762  0.2641 -0.5962 -0.2969
15777TIP3   OH268745   3.549   2.198   1.153  0.0586 -0.2819 -0.2774
15777TIP3    H168746   3.605   2.274   1.136 -0.1870 -0.0146  0.1106
15777TIP3    H268747   3.460   2.230   1.142 -0.0261 -0.9878 -2.0802
15778TIP3   OH268748   0.031   1.066  12.919  0.2771 -0.1703 -0.4198
15778TIP3    H168749   0.076   1.059  12.835 -0.5413 -2.6007 -0.7284
15778TIP3    H268750  -0.034   1.135  12.904  1.0329  0.3892 -1.3169
15779TIP3   OH268751   1.390   6.322   1.332  0.0589 -0.1208  0.2869
15779TIP3    H168752   1.471   6.271   1.329 -0.6509 -1.2332 -1.2089
15779TIP3    H268753   1.321   6.261   1.305 -1.1448  1.0726  0.5124
15780TIP3   OH268754   3.660   0.385   2.030 -0.5285 -0.6523 -0.2090
15780TIP3    H168755   3.619   0.305   1.997  0.1063 -1.4749  0.9103
15780TIP3    H268756   3.747   0.385   1.991  0.1660 -1.5450  1.2518
15781TIP3   OH268757   1.295   0.180  16.419  0.5453  0.2142  0.2446
15781TIP3    H168758   1.380   0.148  16.451 -0.1164 -1.2261  0.6488
15781TIP3    H268759   1.244   0.100  16.404 -0.8240  1.0671  0.2499
15782TIP3   OH268760   6.144   3.471   1.533 -0.0642  0.2437 -0.3882
15782TIP3    H168761   6.224   3.426   1.508  0.5609  0.7801  0.5789
15782TIP3    H268762   6.139   3.547   1.475  0.6215  0.7037  0.1416
15783TIP3   OH268763   4.983   0.531  16.617  0.2625 -0.2186  0.3736
15783TIP3    H168764   4.953   0.546  16.706  0.2625 -0.8713  0.4895
15783TIP3    H268765   5.049   0.600  16.601  1.8593 -1.3692  1.6445
15784TIP3   OH268766   5.333   6.137   4.275  0.1884  0.1234  0.6740
15784TIP3    H168767   5.359   6.144   4.367  0.3271  0.8174  0.5874
15784TIP3    H268768   5.240   6.114   4.278  0.7028 -2.1311  0.9856
15785TIP3   OH268769   3.573   0.998  13.375  0.3193  0.3667 -0.3065
15785TIP3    H168770   3.654   0.992  13.426  0.4006  1.8268 -0.2177
15785TIP3    H268771   3.506   0.959  13.431  1.0378 -1.4611 -0.6444
15786TIP3   OH268772   5.284   5.391   4.363 -0.3260 -0.3861  0.5721
15786TIP3    H168773   5.249   5.306   4.336  0.9453 -0.3566 -1.3958
15786TIP3    H268774   5.321   5.376   4.450 -0.4590 -1.7503  0.4083
15787TIP3   OH268775   6.353   3.738   2.479  0.6068  0.0557  0.7020
15787TIP3    H168776   6.321   3.816   2.523  0.6981  0.1891  0.5334
15787TIP3    H268777   6.385   3.682   2.549  0.8758  0.3247  0.7942
15788TIP3   OH268778   6.259   0.885  14.503 -0.4436  0.1663 -0.1683
15788TIP3    H168779   6.343   0.858  14.539 -0.3893  0.0882 -0.3510
15788TIP3    H268780   6.250   0.977  14.527  0.2598  0.5192 -1.2051
15789TIP3   OH268781   4.892   2.612   5.788 -0.0791  0.2106 -0.2019
15789TIP3    H168782   4.808   2.623   5.832  0.2017  0.6131  0.2512
15789TIP3    H268783   4.956   2.646   5.850  0.4175 -0.0632 -0.5547
15790TIP3   OH268784   4.216   5.553  15.645 -0.6694 -0.1321  0.7592
15790TIP3    H168785   4.134   5.511  15.670 -1.3848  0.7277 -0.0737
15790TIP3    H268786   4.276   5.533  15.717 -2.1125  0.6995  2.2583
15791TIP3   OH268787   0.049   2.058   4.437 -0.5308  0.4290 -0.1113
15791TIP3    H168788  -0.046   2.055   4.446 -0.7003  0.9960 -1.4692
15791TIP3    H268789   0.078   2.111   4.511 -1.4129  1.3916 -0.4294
15792TIP3   OH268790   0.480   6.681  13.429  1.6016 -1.1141 -0.0563
15792TIP3    H168791   0.400   6.733  13.432  0.7547 -2.3911  1.0983
15792TIP3    H268792   0.542   6.734  13.378  0.6514  0.7690  0.6447
15793TIP3   OH268793   1.948   5.809  12.131 -0.0932 -0.2242 -0.0392
15793TIP3    H168794   1.865   5.855  12.146 -0.3521 -0.6776 -0.0632
15793TIP3    H268795   1.935   5.763  12.048 -0.6480 -2.1065  1.0384
15794TIP3   OH268796   5.572   2.453   5.501 -0.5749  0.3525 -0.4241
15794TIP3    H168797   5.628   2.525   5.472  0.7977  0.4579  2.1857
15794TIP3    H268798   5.540   2.481   5.587  0.5070 -2.3272  0.9697
15795TIP3   OH268799   4.264   1.562   0.483 -0.0400 -0.8608 -0.8793
15795TIP3    H168800   4.211   1.512   0.545 -0.8632  0.9570 -0.0384
15795TIP3    H268801   4.203   1.627   0.447  1.3606  0.6408 -0.6405
15796TIP3   OH268802   0.659   6.433  12.705  0.3070 -0.5250  0.1048
15796TIP3    H168803   0.663   6.487  12.784  0.9291  0.4951 -0.5986
15796TIP3    H268804   0.566   6.424  12.686  0.2136  1.2633 -0.3967
15797TIP3   OH268805   3.576   0.866   0.367 -0.1824 -0.3064 -0.0995
15797TIP3    H168806   3.522   0.847   0.444  1.3149  2.8586  1.9337
15797TIP3    H268807   3.517   0.910   0.306 -0.3321  2.0733  1.6139
15798TIP3   OH268808   4.230   0.612  11.657 -0.1977  0.0646  0.5627
15798TIP3    H168809   4.295   0.552  11.694 -1.1383 -1.1209  0.3701
15798TIP3    H268810   4.225   0.684  11.720 -0.6282 -1.1381  1.9461
15799TIP3   OH268811   6.750   2.018   4.122  0.6433  0.4689 -0.7589
15799TIP3    H168812   6.787   2.084   4.064  0.1797  1.0619 -0.3935
15799TIP3    H268813   6.762   2.054   4.210 -0.2466  0.3982 -0.6004
15800TIP3   OH268814   1.010   3.320   0.962  0.3447 -0.0332 -0.2928
15800TIP3    H168815   0.962   3.387   1.011  1.1145 -0.3915  0.9934
15800TIP3    H268816   1.102   3.342   0.975  0.5777 -0.3987 -1.2417
15801TIP3   OH268817   0.154   2.568  14.226 -0.3085  0.0157 -0.1006
15801TIP3    H168818   0.217   2.499  14.206  0.9727  1.1463 -0.0959
15801TIP3    H268819   0.192   2.647  14.188 -1.3960  0.8651  0.5159
15802TIP3   OH268820   0.563   1.609   2.126  0.7217  0.5867  0.6568
15802TIP3    H168821   0.599   1.603   2.214  1.1491 -1.7692  0.3888
15802TIP3    H268822   0.606   1.539   2.077 -0.9534  0.5372 -0.8867
15803TIP3   OH268823   3.020   5.270  16.379 -0.7131  0.0203 -0.3365
15803TIP3    H168824   3.019   5.175  16.389 -1.1767  0.0023 -0.5249
15803TIP3    H268825   3.082   5.285  16.308  0.9121  0.0080  1.0116
15804TIP3   OH268826   4.906   2.890   5.569 -0.4967  0.9524  0.4718
15804TIP3    H168827   4.999   2.897   5.547 -0.3219 -0.1300  0.7950
15804TIP3    H268828   4.866   2.967   5.529  0.2284  0.4423 -1.3766
15805TIP3   OH268829   3.307   6.473  14.827  0.3586 -0.3491  0.0546
15805TIP3    H168830   3.308   6.569  14.829 -1.1813 -0.2601 -1.3162
15805TIP3    H268831   3.369   6.451  14.757 -0.1876 -0.2996 -0.4457
15806TIP3   OH268832   6.628   0.454  14.175 -0.1366 -0.2516  0.4768
15806TIP3    H168833   6.606   0.369  14.134 -1.4797  0.1901  0.2336
15806TIP3    H268834   6.675   0.430  14.255  1.1270 -1.1784 -0.4876
15807TIP3   OH268835   0.848   3.923  16.566 -0.0325 -0.2344 -0.7143
15807TIP3    H168836   0.834   3.831  16.586  3.1589 -1.2414 -2.3785
15807TIP3    H268837   0.840   3.930  16.471  0.9439  0.8911 -0.7518
15808TIP3   OH268838   4.862   3.940   3.786 -0.3656  0.5162 -0.1616
15808TIP3    H168839   4.857   3.849   3.758  0.4341  0.8569 -1.4861
15808TIP3    H268840   4.855   3.991   3.706 -0.7538  1.6334  0.5565
15809TIP3   OH268841   1.669   1.333  16.397  0.7736  0.7419  0.4760
15809TIP3    H168842   1.622   1.390  16.337  0.4044  0.2214  0.2691
15809TIP3    H268843   1.649   1.368  16.484 -1.5671 -0.5614  0.5540
15810TIP3   OH268844   2.719   3.662   1.595 -0.1791 -0.0580 -0.0210
15810TIP3    H168845   2.793   3.722   1.596 -1.8577  2.1347  1.0263
15810TIP3    H268846   2.690   3.660   1.503  0.9825 -0.7702 -0.3944
15811TIP3   OH268847   0.664   6.458  16.229  0.0374  0.1698 -0.3671
15811TIP3    H168848   0.752   6.421  16.229 -0.2831 -0.7662  1.8118
15811TIP3    H268849   0.609   6.390  16.191 -0.1900 -0.7053  1.4083
15812TIP3   OH268850   5.216   1.405  15.923  0.2358 -0.0445 -0.5033
15812TIP3    H168851   5.306   1.429  15.946  1.2187 -1.6059 -2.3821
15812TIP3    H268852   5.216   1.309  15.923 -1.2726 -0.0724 -1.0604
15813TIP3   OH268853   6.591   2.431  16.576 -0.1685 -0.2604 -0.1517
15813TIP3    H168854   6.601   2.520  16.543  0.0422 -0.9962 -2.2277
15813TIP3    H268855   6.636   2.376  16.512  0.8332 -1.7988  1.7299
15814TIP3   OH268856   0.120   0.380   4.785  0.3233  0.0029 -0.3809
15814TIP3    H168857   0.097   0.403   4.696 -0.9336 -0.3658 -0.1659
15814TIP3    H268858   0.052   0.419   4.839  1.4374  0.8180  0.5088
15815TIP3   OH268859   1.762   2.446  11.118 -0.3394  0.2524  0.0814
15815TIP3    H168860   1.844   2.449  11.069  0.2173 -2.4279  0.7059
15815TIP3    H268861   1.778   2.500  11.196 -0.0434  1.6607 -0.9013
15816TIP3   OH268862   2.465   3.911   0.516 -0.2960  0.3001 -0.0543
15816TIP3    H168863   2.457   3.926   0.422 -2.7488  1.7182  0.3048
15816TIP3    H268864   2.406   3.976   0.556  1.0256  0.0632  2.4948
15817TIP3   OH268865   1.807   0.563   1.378 -0.0733  0.5931 -0.8551
15817TIP3    H168866   1.899   0.535   1.376 -0.4984 -0.8867 -1.0542
15817TIP3    H268867   1.777   0.540   1.466 -0.2924  0.9367 -0.8401
15818TIP3   OH268868   4.526   5.029  11.615 -0.0150 -0.3369  0.0478
15818TIP3    H168869   4.520   4.944  11.659  2.0802  0.0721  1.2657
15818TIP3    H268870   4.607   5.067  11.648 -1.5009  2.7121  0.5407
15819TIP3   OH268871   5.657   1.267  13.851  0.1828 -0.1776 -0.4532
15819TIP3    H168872   5.695   1.351  13.880  2.1737 -0.8269 -0.9949
15819TIP3    H268873   5.612   1.233  13.928  1.1575  0.4246  0.4098
15820TIP3   OH268874   5.289   2.975  13.289 -0.0113 -0.4818 -0.2261
15820TIP3    H168875   5.253   3.063  13.295  0.1761 -0.5239  2.8521
15820TIP3    H268876   5.251   2.939  13.208 -0.7865  2.0565 -1.0831
15821TIP3   OH268877   3.337   2.324  13.669  0.2733 -0.1213  0.4299
15821TIP3    H168878   3.263   2.313  13.729 -0.2185 -0.2723 -0.1896
15821TIP3    H268879   3.307   2.390  13.606  0.5338 -0.4289 -0.0263
15822TIP3   OH268880   5.153   3.757   1.969 -0.1144 -0.0600 -0.3718
15822TIP3    H168881   5.150   3.749   2.064  1.6673 -3.3311 -0.4468
15822TIP3    H268882   5.136   3.850   1.952  0.2684  0.7906  3.1514
15823TIP3   OH268883   1.130   6.558  16.073  0.0344  0.3857  0.2252
15823TIP3    H168884   1.154   6.650  16.060  0.0918  0.5956  1.7082
15823TIP3    H268885   1.105   6.527  15.985 -1.2186  2.1655 -0.1023
15824TIP3   OH268886   5.546   4.603  14.309 -0.3620 -0.4347  0.4023
15824TIP3    H168887   5.452   4.622  14.299 -0.4393 -1.4652 -1.1640
15824TIP3    H268888   5.551   4.508  14.308  0.7502 -0.3839  0.1410
15825TIP3   OH268889   5.252   2.261  15.705 -0.1854 -0.2745 -0.0278
15825TIP3    H168890   5.190   2.332  15.726  1.7038  1.7201 -0.8091
15825TIP3    H268891   5.229   2.236  15.615 -1.4208 -1.3447  0.5468
15826TIP3   OH268892   4.739   2.654  15.614 -0.3147  0.4909  0.4272
15826TIP3    H168893   4.829   2.666  15.586  0.0146  1.5834  1.7785
15826TIP3    H268894   4.686   2.688  15.542  0.1617 -2.6122 -1.5768
15827TIP3   OH268895   5.061   3.480  10.635  0.2421  0.1922 -0.1961
15827TIP3    H168896   5.077   3.409  10.697 -1.2828  0.8663  1.0518
15827TIP3    H268897   5.146   3.525  10.628  0.4640  0.0681  1.3777
15828TIP3   OH268898   2.583   1.558  12.461 -0.3462  0.4045 -0.0925
15828TIP3    H168899   2.642   1.523  12.395  0.5410  0.6256  0.5740
15828TIP3    H268900   2.555   1.643  12.426 -2.2345 -0.7589 -1.5517
15829TIP3   OH268901   3.819   0.077  17.017  0.6527 -0.1219 -0.1347
15829TIP3    H168902   3.849   0.163  17.045  2.6413 -0.5974 -0.6091
15829TIP3    H268903   3.747   0.095  16.956 -1.0841  1.0323  2.1050
15830TIP3   OH268904   3.355   5.144  13.951 -0.6695  0.5343 -0.1025
15830TIP3    H168905   3.267   5.182  13.951 -0.6734  0.5654  0.8774
15830TIP3    H268906   3.369   5.117  14.042  0.0205 -0.2091 -0.4147
15831TIP3   OH268907   4.914   3.334   3.104  0.6313  0.0246 -0.5543
15831TIP3    H168908   4.894   3.287   3.185 -0.0354 -1.0654 -1.3221
15831TIP3    H268909   4.977   3.277   3.059  0.3312  0.1949 -1.1911
15832TIP3   OH268910   3.727   3.996  11.986  0.1531  0.3838 -0.3238
15832TIP3    H168911   3.701   3.935  11.917  0.2380 -0.4045  0.3200
15832TIP3    H268912   3.780   3.943  12.046  0.2280  1.0938  0.2524
15833TIP3   OH268913   1.226   3.030  15.980 -0.0950  0.1339  0.4330
15833TIP3    H168914   1.272   2.946  15.984 -1.2517 -0.5650 -0.4794
15833TIP3    H268915   1.262   3.080  16.053 -0.3901 -1.6652  1.8761
15834TIP3   OH268916   6.729   5.238   6.219 -0.1817  0.2766 -0.8522
15834TIP3    H168917   6.776   5.156   6.233  1.1875  0.8297 -1.8283
15834TIP3    H268918   6.752   5.293   6.294 -1.2968 -0.2894 -0.0738
15835TIP3   OH268919   1.927   4.795  12.128 -0.5917 -0.7178 -0.3765
15835TIP3    H168920   2.006   4.834  12.091 -0.2107  0.0536  1.1571
15835TIP3    H268921   1.857   4.856  12.105 -0.2891 -0.0224  0.4807
15836TIP3   OH268922   6.285   2.845  12.988 -0.1237 -0.6349  0.4535
15836TIP3    H168923   6.251   2.813  13.071  0.5693  0.7629  1.3277
15836TIP3    H268924   6.273   2.773  12.927  0.4457 -2.1550  2.0530
15837TIP3   OH268925   0.683   5.699   0.744 -0.2661  0.0217  0.4073
15837TIP3    H168926   0.755   5.689   0.807 -0.1911  0.4856  0.3977
15837TIP3    H268927   0.619   5.754   0.790 -0.5538 -0.2689  0.3606
15838TIP3   OH268928   0.507   2.156  15.402 -0.5460 -0.2106  0.1542
15838TIP3    H168929   0.450   2.206  15.461  1.3530  1.4240  0.7085
15838TIP3    H268930   0.543   2.087  15.457 -0.3819  0.0426  0.3677
15839TIP3   OH268931   2.115   2.819  15.316 -0.0567 -0.3337  0.2070
15839TIP3    H168932   2.033   2.832  15.269 -1.1948  1.3261  2.4555
15839TIP3    H268933   2.181   2.865  15.264 -0.5638 -1.4759 -1.4926
15840TIP3   OH268934   3.804   1.871  14.749 -0.2985  0.2743 -0.2937
15840TIP3    H168935   3.805   1.871  14.845  0.0301 -2.7876 -0.1838
15840TIP3    H268936   3.874   1.930  14.724  2.6085 -2.0897  1.5647
15841TIP3   OH268937   1.336   1.506  12.320  0.2625 -0.1284  0.3953
15841TIP3    H168938   1.259   1.450  12.326 -0.4512  0.9156  1.4602
15841TIP3    H268939   1.310   1.588  12.362  1.8621  0.3609  0.5192
15842TIP3   OH268940   3.895   2.897   0.846  0.1563 -0.2421 -0.3672
15842TIP3    H168941   3.807   2.862   0.860 -0.5669  1.2078 -1.0860
15842TIP3    H268942   3.927   2.851   0.768 -0.4076 -0.0117 -0.7435
15843TIP3   OH268943   5.925   0.475  12.258  0.4319 -0.0959 -0.5057
15843TIP3    H168944   5.976   0.486  12.339  1.5875  0.2381 -1.2469
15843TIP3    H268945   5.839   0.510  12.279  0.5798 -0.4197  0.7154
15844TIP3   OH268946   4.910   0.639   3.274  0.0025 -0.1870 -0.2038
15844TIP3    H168947   4.964   0.670   3.201 -2.0116  0.0573 -1.6491
15844TIP3    H268948   4.931   0.545   3.280  0.0769 -0.2511 -1.2254
15845TIP3   OH268949   5.571   2.190  11.654  0.0007  0.8456  0.3506
15845TIP3    H168950   5.589   2.182  11.747  1.2047 -2.7403 -0.0219
15845TIP3    H268951   5.655   2.215  11.615 -0.0307  0.5256  0.0710
15846TIP3   OH268952   5.234   3.395  16.016  0.3178  0.0499  0.6425
15846TIP3    H168953   5.299   3.424  15.952  0.7621 -1.8399  0.1969
15846TIP3    H268954   5.151   3.432  15.983  0.5909 -0.6022 -0.8635
15847TIP3   OH268955   3.845   1.905  15.014 -0.6474 -0.6079 -0.0021
15847TIP3    H168956   3.896   1.876  15.089 -0.1765  0.2042  0.0083
15847TIP3    H268957   3.757   1.918  15.048 -0.5431 -0.6937  0.3055
15848TIP3   OH268958   4.516   1.681   3.060 -0.7224  0.6360  0.3187
15848TIP3    H168959   4.512   1.591   3.025 -1.2542 -0.2654  2.4988
15848TIP3    H268960   4.608   1.694   3.084 -0.4409  1.0943 -0.9605
15849TIP3   OH268961   0.563   2.950   0.221 -0.2299  0.1113  0.1271
15849TIP3    H168962   0.651   2.974   0.249  0.4507 -2.3138  0.3269
15849TIP3    H268963   0.507   3.021   0.252  1.7534  2.2702 -0.9716
15850TIP3   OH268964   3.857   5.352  16.444  0.1122 -0.2238 -0.3501
15850TIP3    H168965   3.865   5.258  16.463 -0.2375 -0.1343  0.2613
15850TIP3    H268966   3.916   5.394  16.507  0.2953 -0.0321 -0.6455
15851TIP3   OH268967   4.941   5.156   2.037 -0.0119  0.2624 -0.1361
15851TIP3    H168968   4.977   5.140   2.124  0.6559 -0.3439 -0.5142
15851TIP3    H268969   4.860   5.204   2.053  0.1572  0.2478  0.8124
15852TIP3   OH268970   4.726   4.478  10.804 -0.4250 -1.0506  0.0971
15852TIP3    H168971   4.644   4.456  10.761 -3.5711  4.0727  2.4940
15852TIP3    H268972   4.725   4.427  10.885 -1.2119 -1.1082  0.0555
15853TIP3   OH268973   6.218   4.158   0.065  0.1351 -0.0966  0.4845
15853TIP3    H168974   6.148   4.169   0.001  1.5352  0.6134 -1.0108
15853TIP3    H268975   6.217   4.065   0.086  1.2808 -0.9769 -2.6730
15854TIP3   OH268976   3.670   4.517  14.046 -0.4551 -0.1723 -0.2979
15854TIP3    H168977   3.617   4.455  14.096 -0.6340 -0.9900 -1.4684
15854TIP3    H268978   3.733   4.463  13.998  2.0301  0.8121  1.6456
15855TIP3   OH268979   1.748   5.260   5.020 -0.3150 -0.0358  0.1505
15855TIP3    H168980   1.825   5.247   4.964 -0.5192  1.6727 -0.5933
15855TIP3    H268981   1.783   5.257   5.109  0.9487  2.2052 -0.1848
15856TIP3   OH268982   6.481   1.854  11.913 -0.5243 -0.4491  0.0901
15856TIP3    H168983   6.558   1.880  11.862  0.8935  1.0592  2.8092
15856TIP3    H268984   6.508   1.774  11.959 -1.4077 -1.1816 -0.6269
15857TIP3   OH268985   6.388   0.966   2.944  0.1940  0.1818 -0.1427
15857TIP3    H168986   6.420   0.907   2.876  1.6645  0.5034  0.2360
15857TIP3    H268987   6.383   0.912   3.023 -2.2296 -0.3844 -0.6021
15858TIP3   OH268988   2.863   5.494   1.368  0.5250  0.0331  0.0753
15858TIP3    H168989   2.775   5.461   1.351  1.2041 -1.1378 -1.5140
15858TIP3    H268990   2.885   5.461   1.455 -0.6223  0.4589  0.5539
15859TIP3   OH268991   1.905   1.513   5.775  0.2464  0.7503  0.4586
15859TIP3    H168992   1.905   1.495   5.681 -0.2882  0.3732  0.5237
15859TIP3    H268993   1.995   1.540   5.795  0.1595  1.6532 -0.3129
15860TIP3   OH268994   6.671   6.015  15.726  0.6117 -0.1861  0.6944
15860TIP3    H168995   6.611   6.088  15.712  0.6813 -0.3523 -0.6080
15860TIP3    H268996   6.618   5.948  15.770  0.2202  0.1879  0.7933
15861TIP3   OH268997   5.360   1.621  16.532  0.0245  0.7352 -0.2263
15861TIP3    H168998   5.380   1.656  16.445  0.2420  0.6374 -0.2184
15861TIP3    H268999   5.265   1.614  16.534  0.0901 -1.5596 -1.3799
15862TIP3   OH269000   4.181   2.762   1.941 -0.2519 -0.9548  0.0246
15862TIP3    H169001   4.116   2.805   1.885  1.9629  2.8590  0.0308
15862TIP3    H269002   4.139   2.758   2.027 -0.5433  1.5734  0.0767
15863TIP3   OH269003   5.747   6.756  13.773  0.1458  0.3314  0.2384
15863TIP3    H169004   5.787   6.801  13.848 -1.3034 -1.6627  2.3646
15863TIP3    H269005   5.807   6.683  13.755 -0.5469 -0.4062  0.8697
15864TIP3   OH269006   5.597   4.708   2.321 -0.0586 -0.5628 -0.3999
15864TIP3    H169007   5.561   4.628   2.359  0.7129  0.1223  1.9171
15864TIP3    H269008   5.584   4.775   2.388  0.6597  0.9347 -1.6784
15865TIP3   OH269009   4.953   4.766  11.144  0.3718  0.2800 -0.4453
15865TIP3    H169010   4.991   4.678  11.148 -0.4224 -0.0278  0.3384
15865TIP3    H269011   5.029   4.823  11.129  1.0199 -0.4314  0.0364
15866TIP3   OH269012   0.152   5.103  16.298 -0.4826 -0.2564  0.5722
15866TIP3    H169013   0.242   5.109  16.330  0.2148 -1.8614 -0.8818
15866TIP3    H269014   0.119   5.021  16.336 -0.8850 -0.3064  0.1180
15867TIP3   OH269015   3.429   5.348   2.845 -0.0118 -0.5089  0.4907
15867TIP3    H169016   3.453   5.317   2.758  0.8673 -1.3367  1.0111
15867TIP3    H269017   3.333   5.356   2.841  0.0118 -0.5504 -0.5374
15868TIP3   OH269018   2.415   4.283  11.877 -0.0243 -0.5417  0.4522
15868TIP3    H169019   2.381   4.223  11.811 -0.1663 -0.7929  0.7488
15868TIP3    H269020   2.349   4.353  11.881  0.2252 -0.2756 -0.0127
15869TIP3   OH269021   6.371   1.154   4.902  0.4956 -0.4615 -0.6696
15869TIP3    H169022   6.345   1.062   4.898 -0.6479 -0.2169  0.4458
15869TIP3    H269023   6.466   1.152   4.912  0.5255 -1.5012 -1.1160
15870TIP3   OH269024   4.271   3.112  11.363  0.1004 -0.2120 -0.1235
15870TIP3    H169025   4.318   3.178  11.414 -1.0727  1.1980 -0.7903
15870TIP3    H269026   4.269   3.035  11.420 -0.2566  0.9713  1.5426
15871TIP3   OH269027   4.750   1.124  15.351 -0.2701 -0.2085 -0.0439
15871TIP3    H169028   4.774   1.185  15.281  1.4583 -2.3794 -1.5337
15871TIP3    H269029   4.830   1.115  15.403 -0.1468 -1.8508 -0.4553
15872TIP3   OH269030   2.682   1.226   1.330 -0.0022  0.4731 -0.1779
15872TIP3    H169031   2.668   1.287   1.403  1.4822  0.6054  0.0267
15872TIP3    H269032   2.693   1.141   1.372 -0.7102  0.2756 -0.3736
15873TIP3   OH269033   4.425   5.802   1.769  0.0110  0.3587  0.6359
15873TIP3    H169034   4.439   5.734   1.835 -1.9552  1.5471  2.4425
15873TIP3    H269035   4.490   5.870   1.790  0.8984 -0.2323 -0.1399
15874TIP3   OH269036   1.718   3.587   1.314  0.7066  0.2622  0.2022
15874TIP3    H169037   1.714   3.627   1.227 -1.8261 -0.4894 -0.1217
15874TIP3    H269038   1.758   3.501   1.300  1.5911  0.7022  0.0305
15875TIP3   OH269039   1.167   0.914  16.662  0.4651 -0.7658  0.5797
15875TIP3    H169040   1.243   0.931  16.718 -0.4675 -0.2010  1.7176
15875TIP3    H269041   1.100   0.975  16.693 -0.2545 -0.7805 -0.8444
15876TIP3   OH269042   6.099   4.941  10.449  0.6958  0.6288  0.1945
15876TIP3    H169043   6.096   4.857  10.403 -1.5120  0.7682  0.0034
15876TIP3    H269044   6.153   4.924  10.526 -0.5180 -1.2574  0.6893
15877TIP3   OH269045   6.675   6.649  15.167  0.1645 -0.4881  0.3941
15877TIP3    H169046   6.623   6.710  15.115 -0.9706  0.0620  2.1136
15877TIP3    H269047   6.766   6.669  15.144 -0.2946 -0.8723 -1.9895
15878TIP3   OH269048   2.029   4.755  16.721  0.5420  0.3649  0.0972
15878TIP3    H169049   2.112   4.717  16.751  0.7788 -0.4499 -1.5072
15878TIP3    H269050   1.977   4.680  16.694 -0.7853  0.8595  1.1267
15879TIP3   OH269051   5.703   5.204   3.826 -0.4652 -0.3211  0.7084
15879TIP3    H169052   5.763   5.139   3.789 -0.5349  0.2773 -0.5016
15879TIP3    H269053   5.620   5.188   3.780 -0.7927 -0.0790  1.1982
15880TIP3   OH269054   4.652   2.662   4.963  0.0985  0.0444 -0.1940
15880TIP3    H169055   4.590   2.660   5.036 -0.3353  1.3807 -0.5150
15880TIP3    H269056   4.685   2.751   4.962  1.0782 -0.3124 -0.8366
15881TIP3   OH269057   0.528   4.279   2.706 -0.0146 -0.0975  0.1093
15881TIP3    H169058   0.522   4.202   2.762 -0.2556 -0.4439 -0.3780
15881TIP3    H269059   0.598   4.331   2.743  0.8457 -1.0447 -0.1346
15882TIP3   OH269060   5.816   6.367  15.387  0.1944 -0.2009 -0.2565
15882TIP3    H169061   5.886   6.307  15.413 -1.0325 -1.7515 -0.3500
15882TIP3    H269062   5.861   6.441  15.348  1.7731 -1.6364 -1.3052
15883TIP3   OH269063   4.397   3.900  16.306  0.3550 -0.0980  0.0605
15883TIP3    H169064   4.318   3.867  16.347  0.7283 -0.3215  0.6148
15883TIP3    H269065   4.367   3.972  16.250 -0.2634 -0.3396  0.0778
15884TIP3   OH269066   1.340   5.666   0.946 -0.8839  0.6160  0.2636
15884TIP3    H169067   1.425   5.623   0.954 -0.0399  2.4663  2.3389
15884TIP3    H269068   1.310   5.644   0.858 -0.1426 -3.3226  0.8080
15885TIP3   OH269069   4.091   2.535   4.855 -0.4225 -0.2447 -0.0606
15885TIP3    H169070   4.181   2.549   4.884 -1.1155  3.0733  0.8986
15885TIP3    H269071   4.099   2.474   4.781  2.5789  0.0027 -0.0755
15886TIP3   OH269072   4.919   0.584  16.882  0.6156  0.0136  0.2132
15886TIP3    H169073   5.013   0.585  16.900  1.0287  1.1857 -1.6709
15886TIP3    H269074   4.894   0.676  16.878 -1.0702 -0.2655  2.5548
15887TIP3   OH269075   3.965   1.167   4.236 -0.0742 -0.0004 -0.1696
15887TIP3    H169076   4.060   1.179   4.229 -0.1130  0.6174  0.2927
15887TIP3    H269077   3.936   1.239   4.291 -0.7609 -0.4304  0.0386
15888TIP3   OH269078   4.135   6.683  14.389 -0.4561 -0.3583 -0.3240
15888TIP3    H169079   4.077   6.757  14.368  0.3702  0.4520  0.2002
15888TIP3    H269080   4.187   6.714  14.464  0.0383 -1.4003 -0.2298
15889TIP3   OH269081   0.175   4.132  15.365 -0.4533  0.5351 -0.6270
15889TIP3    H169082   0.143   4.121  15.455  0.6351 -2.0459 -0.4479
15889TIP3    H269083   0.261   4.173  15.375  0.4447 -1.3291 -0.2768
15890TIP3   OH269084   0.818   5.786  10.888 -0.3147 -0.1379  0.0188
15890TIP3    H169085   0.803   5.853  10.954 -1.5356  1.1217 -1.4345
15890TIP3    H269086   0.900   5.744  10.914  0.5179  1.9396  0.9937
15891TIP3   OH269087   3.218   5.341  16.587 -0.0488  0.9998 -0.0452
15891TIP3    H169088   3.203   5.421  16.637  2.7473  0.3694  2.0246
15891TIP3    H269089   3.303   5.354  16.545  0.9787 -1.1965  1.1893
15892TIP3   OH269090   5.272   1.180  11.771  0.3854  0.1203  0.0340
15892TIP3    H169091   5.237   1.268  11.784  0.4096  0.2602 -0.7767
15892TIP3    H269092   5.275   1.170  11.676 -0.3113 -1.0353  0.1218
15893TIP3   OH269093   1.321   4.568   0.659 -0.9283  0.0112  0.5732
15893TIP3    H169094   1.373   4.497   0.697  0.1742 -0.7634 -2.1267
15893TIP3    H269095   1.373   4.647   0.674  0.9172 -0.6797 -1.6228
15894TIP3   OH269096   5.683   6.320  13.166  0.5442 -0.1491  0.2605
15894TIP3    H169097   5.622   6.393  13.177 -0.3252 -0.3921 -2.1946
15894TIP3    H269098   5.760   6.344  13.217 -0.6954  1.2566  1.5734
15895TIP3   OH269099   4.002   4.794  15.194 -0.0516 -0.2027 -0.5177
15895TIP3    H169100   3.915   4.758  15.212  0.3502 -0.0054  2.2908
15895TIP3    H269101   3.988   4.889  15.186  0.0277  0.0156  1.4559
15896TIP3   OH269102   2.330   2.112  16.549 -0.3436  0.1282 -0.2441
15896TIP3    H169103   2.286   2.169  16.612  2.4551 -0.3795  2.4512
15896TIP3    H269104   2.395   2.169  16.507  0.5478 -0.3989  0.3870
15897TIP3   OH269105   0.518   3.693   3.183 -0.1832  0.1153 -0.4144
15897TIP3    H169106   0.428   3.670   3.207  0.4710 -0.7280  1.3743
15897TIP3    H269107   0.518   3.692   3.087 -1.9910 -0.1889 -0.4453
15898TIP3   OH269108   2.680   0.118  12.068 -0.4263 -0.1312 -0.3881
15898TIP3    H169109   2.654   0.078  12.151  2.3023 -1.7893 -0.1874
15898TIP3    H269110   2.772   0.092  12.058 -0.3116  1.0988 -3.3233
15899TIP3   OH269111   0.795   2.676   2.694 -0.3410  0.0677 -0.0234
15899TIP3    H169112   0.768   2.726   2.617  0.4730  2.4403  1.1511
15899TIP3    H269113   0.867   2.622   2.663  1.0913  2.2211 -0.6249
15900TIP3   OH269114   3.197   5.810   6.245  0.2472 -0.2822 -0.2187
15900TIP3    H169115   3.248   5.847   6.316  1.7586 -1.0262 -0.8694
15900TIP3    H269116   3.167   5.725   6.278 -0.0537 -0.1060 -0.0439
15901TIP3   OH269117   3.731   1.719   5.491 -0.4547 -0.3594 -0.4196
15901TIP3    H169118   3.819   1.682   5.479 -0.8935 -1.5663 -0.0926
15901TIP3    H269119   3.703   1.685   5.576 -1.2287  0.0554 -0.5039
15902TIP3   OH269120   2.091   0.764   0.157 -0.5671  0.9196  0.4401
15902TIP3    H169121   2.041   0.773   0.238  0.3954 -1.2215  1.3527
15902TIP3    H269122   2.044   0.699   0.106 -1.0511  2.1001 -0.6852
15903TIP3   OH269123   3.031   5.467  13.303 -0.4020 -0.5335 -0.1027
15903TIP3    H169124   3.080   5.535  13.350  1.2075 -0.9034 -1.1671
15903TIP3    H269125   2.945   5.506  13.288  0.3350  1.1232 -0.3181
15904TIP3   OH269126   2.780   5.165  13.412 -0.5311  0.6037 -0.2532
15904TIP3    H169127   2.829   5.208  13.341  1.4913  0.8856  1.2440
15904TIP3    H269128   2.737   5.237  13.458 -0.8695  0.5365 -0.4584
15905TIP3   OH269129   4.405   3.455  16.160 -0.4126 -0.1068 -0.8684
15905TIP3    H169130   4.364   3.429  16.078 -3.2160 -2.1084  1.0031
15905TIP3    H269131   4.443   3.375  16.195 -2.1993 -0.1109  1.2796
15906TIP3   OH269132   4.886   1.480  11.949 -0.4051  0.8600  0.5760
15906TIP3    H169133   4.877   1.445  11.861 -1.3044 -1.7517  1.6079
15906TIP3    H269134   4.807   1.534  11.961 -0.1874  1.3818 -0.2294
15907TIP3   OH269135   3.348   2.493  16.291 -0.5221 -0.1892 -0.8688
15907TIP3    H169136   3.326   2.555  16.222 -2.9350 -0.2496 -0.2691
15907TIP3    H269137   3.372   2.548  16.366  1.3888 -0.1156 -1.4773
15908TIP3   OH269138   5.753   4.482   5.498 -0.4914 -0.2082  0.2253
15908TIP3    H169139   5.662   4.497   5.474 -0.0210  1.0064 -0.9320
15908TIP3    H269140   5.770   4.391   5.473 -0.4220  0.5626 -3.0384
15909TIP3   OH269141   0.959   4.569  16.741 -0.3991  0.0769 -0.5264
15909TIP3    H169142   1.033   4.608  16.787 -0.0488  2.1929 -2.6557
15909TIP3    H269143   0.993   4.486  16.707 -0.5477 -1.3239  2.4816
15910TIP3   OH269144   0.463   6.087   3.682 -0.2445  1.0064  0.8968
15910TIP3    H169145   0.559   6.093   3.684 -0.2147  0.4345  1.4655
15910TIP3    H269146   0.444   6.002   3.642 -0.5505  1.6836 -0.4623
15911TIP3   OH269147   4.743   6.420  16.577  0.4756 -0.1261 -0.1210
15911TIP3    H169148   4.685   6.362  16.625 -0.7542  0.1221 -1.2593
15911TIP3    H269149   4.739   6.389  16.486  1.1726  0.6441 -0.4282
15912TIP3   OH269150   2.622   4.596   3.075  0.7858 -0.3297 -0.0405
15912TIP3    H169151   2.604   4.522   3.133 -1.1763 -0.9046 -1.2723
15912TIP3    H269152   2.550   4.658   3.094  1.4409  0.5108 -0.2379
15913TIP3   OH269153   2.250   4.966   1.242  0.6892  0.1760 -0.3403
15913TIP3    H169154   2.328   4.920   1.210 -0.3414 -1.2061 -0.9662
15913TIP3    H269155   2.202   4.900   1.291 -0.4262  0.8193 -0.5416
15914TIP3   OH269156   3.845   4.215  13.022  0.1260  0.3586 -0.2614
15914TIP3    H169157   3.834   4.174  13.108  0.0294  0.2203 -0.3391
15914TIP3    H269158   3.858   4.142  12.962 -0.9349  0.3745 -0.5396
15915TIP3   OH269159   2.302   5.347   4.857 -0.5871  0.5361  0.7227
15915TIP3    H169160   2.314   5.442   4.854 -0.0172  0.4482 -0.2762
15915TIP3    H269161   2.218   5.332   4.815 -0.8511  0.6181  1.2128
15916TIP3   OH269162   2.821   2.681  15.558  0.2661 -0.0520 -0.3549
15916TIP3    H169163   2.786   2.619  15.494 -0.1574  0.7539 -0.9113
15916TIP3    H269164   2.758   2.752  15.561 -0.3088 -0.5568  1.7853
15917TIP3   OH269165   2.462   1.598  16.640 -0.5177  0.3349 -0.0800
15917TIP3    H169166   2.467   1.561  16.552  0.6083 -0.2141  0.1993
15917TIP3    H269167   2.419   1.683  16.628  0.1304  0.5195 -1.2376
15918TIP3   OH269168   2.408   1.750  11.839 -0.3146 -0.5466  0.5245
15918TIP3    H169169   2.338   1.775  11.900  0.3169  1.1032  0.6203
15918TIP3    H269170   2.489   1.767  11.887  0.1764 -1.2904 -0.0234
15919TIP3   OH269171   1.625   3.505   3.616  0.2283 -0.0618 -0.3595
15919TIP3    H169172   1.584   3.587   3.643  1.0424  0.1921  0.1197
15919TIP3    H269173   1.598   3.494   3.525  1.4510  1.5878 -0.9629
15920TIP3   OH269174   1.756   2.317   6.107 -0.5252 -0.2624 -0.3239
15920TIP3    H169175   1.795   2.334   6.192 -3.2701  1.3020  0.7333
15920TIP3    H269176   1.740   2.404   6.070  0.2109 -0.9017 -2.2861
15921TIP3   OH269177   1.049   0.702  12.599  0.4530  0.2474 -0.3855
15921TIP3    H169178   1.000   0.752  12.664 -1.8554 -0.1786 -1.6870
15921TIP3    H269179   1.055   0.761  12.523  0.7859 -0.1913 -0.7027
15922TIP3   OH269180   4.847   3.400  16.607  0.6655  0.0698 -0.4777
15922TIP3    H169181   4.920   3.358  16.561 -0.0417 -3.4487  1.2734
15922TIP3    H269182   4.770   3.378  16.555  0.4608  0.8589 -0.5202
15923TIP3   OH269183   0.629   0.842   3.973  0.3600 -0.6816 -0.5385
15923TIP3    H169184   0.654   0.836   3.881  0.1551  0.5960 -0.6835
15923TIP3    H269185   0.630   0.935   3.993  0.0469 -0.9156  0.6604
15924TIP3   OH269186   1.853   4.009  15.221  0.0732  0.4875  0.0833
15924TIP3    H169187   1.873   4.084  15.165  1.7673  1.1941  1.5229
15924TIP3    H269188   1.794   4.043  15.288 -0.4413  0.1234 -0.1809
15925TIP3   OH269189   1.108   4.181   5.280 -0.2408  0.3693  0.4240
15925TIP3    H169190   1.121   4.271   5.250 -1.8610  0.9877  1.4589
15925TIP3    H269191   1.173   4.130   5.232 -0.0655  1.9098 -1.0515
15926TIP3   OH269192   4.830   1.968   0.058 -0.5369  0.2989  0.4638
15926TIP3    H169193   4.889   1.911   0.008 -1.1363  0.6785 -0.7137
15926TIP3    H269194   4.788   1.909   0.122 -0.2854 -0.3426  0.0477
15927TIP3   OH269195   6.314   5.494   5.447 -0.1303 -0.3367 -0.3547
15927TIP3    H169196   6.400   5.472   5.482 -0.4229 -0.3384  0.3638
15927TIP3    H269197   6.332   5.563   5.383  0.4425 -0.5836 -0.4702
15928TIP3   OH269198   1.645   1.436  13.539  0.3462  0.0150  0.5754
15928TIP3    H169199   1.570   1.484  13.503 -0.4738  0.3956  2.6262
15928TIP3    H269200   1.720   1.493  13.523  0.5247 -0.9271 -2.6656
15929TIP3   OH269201   5.405   5.704  15.777 -0.5283 -0.9052  0.0797
15929TIP3    H169202   5.362   5.682  15.694 -1.8744 -0.1515  0.5573
15929TIP3    H269203   5.397   5.625  15.830 -0.4232 -1.1073 -0.2059
15930TIP3   OH269204   4.106   5.999   3.112  0.6145 -0.8590 -0.2503
15930TIP3    H169205   4.128   5.990   3.205  0.2266 -0.3934 -0.1084
15930TIP3    H269206   4.141   6.084   3.087  0.5885 -0.9193 -0.4930
15931TIP3   OH269207   4.533   2.976   1.335  0.7519 -0.1380  0.1902
15931TIP3    H169208   4.446   2.968   1.296 -0.3816  0.0327  2.4994
15931TIP3    H269209   4.593   2.957   1.263 -1.1931 -4.2994 -0.6917
15932TIP3   OH269210   4.445   2.026   0.088 -0.0026  0.4584  0.4271
15932TIP3    H169211   4.481   2.112   0.108  0.5295  0.5527 -0.8241
15932TIP3    H269212   4.487   2.002   0.005 -1.9818  0.0644 -0.5030
15933TIP3   OH269213   2.405   1.662   3.325 -0.0836 -0.0535  0.3243
15933TIP3    H169214   2.497   1.650   3.303  0.0510 -1.8857  1.6923
15933TIP3    H269215   2.365   1.577   3.309 -1.5872  0.7556 -0.3857
15934TIP3   OH269216   4.728   1.435  13.945 -0.3993  0.6631  0.4781
15934TIP3    H169217   4.755   1.439  14.036  1.2747 -1.5659  0.1632
15934TIP3    H269218   4.810   1.421  13.896 -1.5667 -1.7466 -0.9890
15935TIP3   OH269219   6.045   4.677  13.086 -0.4633 -0.1982  0.2367
15935TIP3    H169220   5.963   4.628  13.081 -0.1029 -0.6971 -1.2231
15935TIP3    H269221   6.084   4.667  12.999  1.0551  0.1831  0.8468
15936TIP3   OH269222   0.825   1.066   2.077  0.5603 -0.5674  0.0853
15936TIP3    H169223   0.753   1.019   2.120 -0.8945  0.2791 -1.3150
15936TIP3    H269224   0.860   1.004   2.013  1.2368 -1.0543  0.9142
15937TIP3   OH269225   1.854   4.524   0.580 -0.8474  0.5350  0.3072
15937TIP3    H169226   1.916   4.469   0.629 -0.9592 -0.4000 -0.5623
15937TIP3    H269227   1.879   4.614   0.602  0.3668  0.1613  0.5309
15938TIP3   OH269228   4.112   5.500  12.990  0.4941 -0.1616 -0.4288
15938TIP3    H169229   4.103   5.411  12.956  1.1646  0.5895 -2.8001
15938TIP3    H269230   4.205   5.510  13.007  0.4226  0.0739 -0.1755
15939TIP3   OH269231   5.058   3.966   1.760 -0.0116 -0.4537  0.0092
15939TIP3    H169232   4.989   3.943   1.698  1.6092  0.9861 -2.5407
15939TIP3    H269233   5.013   4.015   1.829 -1.5738  0.4889 -1.5873
15940TIP3   OH269234   2.842   1.072   4.142 -0.5284 -0.4552  0.2598
15940TIP3    H169235   2.911   1.126   4.180 -1.0906  0.2336  0.3209
15940TIP3    H269236   2.878   1.042   4.059 -0.8265  1.4606 -0.6265
15941TIP3   OH269237   2.330   3.267  16.628 -0.0046 -0.1960  0.0478
15941TIP3    H169238   2.283   3.347  16.650 -2.3438 -1.3150 -0.5364
15941TIP3    H269239   2.284   3.232  16.552  1.3031 -1.8081 -0.0580
15942TIP3   OH269240   3.471   1.814  13.548 -0.4703  0.5233 -0.9289
15942TIP3    H169241   3.433   1.744  13.600  1.7280  0.3350  0.5699
15942TIP3    H269242   3.404   1.883  13.546 -1.2266 -0.1177  0.8069
15943TIP3   OH269243   0.984   4.018  16.796  0.3269  0.3147 -0.3723
15943TIP3    H169244   0.929   4.015  16.717  0.7698  1.2094 -0.7197
15943TIP3    H269245   0.958   3.940  16.846  0.2152 -0.4060 -1.5184
15944TIP3   OH269246   4.509   0.302   4.783  0.2494 -0.3280 -0.2368
15944TIP3    H169247   4.505   0.303   4.687  0.8167  0.0655 -0.2615
15944TIP3    H269248   4.518   0.210   4.806 -0.7493 -0.4993 -0.5215
15945TIP3   OH269249   6.416   5.119   2.757 -0.3237 -0.2516 -0.0413
15945TIP3    H169250   6.338   5.072   2.729 -1.0695  1.2987 -0.6741
15945TIP3    H269251   6.468   5.128   2.678 -1.1544  1.7268 -0.4288
15946TIP3   OH269252   1.102   1.543  11.454  0.7010 -0.5686  0.0563
15946TIP3    H169253   1.193   1.543  11.425  0.8471 -0.0621  0.5072
15946TIP3    H269254   1.096   1.616  11.516 -0.1536 -0.2284 -0.4171
15947TIP3   OH269255   1.408   3.682   1.583 -0.1667 -0.3025  0.1324
15947TIP3    H169256   1.417   3.705   1.676  3.3510 -0.5279 -0.0081
15947TIP3    H269257   1.384   3.765   1.541  1.8317  0.7316  0.8818
15948TIP3   OH269258   4.495   2.475   0.876 -0.5794  0.4249  0.3507
15948TIP3    H169259   4.452   2.390   0.865 -1.3415  0.9540 -1.0446
15948TIP3    H269260   4.499   2.512   0.788 -0.5511  1.9804  0.9643
15949TIP3   OH269261   3.867   2.311  17.020  0.2901 -0.3167 -0.3306
15949TIP3    H169262   3.835   2.233  17.066 -0.0129  0.7263  1.3146
15949TIP3    H269263   3.870   2.379  17.088  1.4042  0.8748 -1.5222
15950TIP3   OH269264   2.638   4.989   3.101 -0.0015  0.3594  0.0826
15950TIP3    H169265   2.639   5.085   3.096  1.5349  0.2880 -1.6868
15950TIP3    H269266   2.567   4.963   3.043  1.0287  0.3835 -1.2234
15951TIP3   OH269267   5.628   5.520   4.856  0.1664  0.1392 -0.2732
15951TIP3    H169268   5.675   5.490   4.933  1.5806 -0.1419 -1.2175
15951TIP3    H269269   5.695   5.531   4.789 -0.8629  1.5204 -1.1392
15952TIP3   OH269270   6.626   4.987  13.597  0.3887  0.6769  0.0826
15952TIP3    H169271   6.685   4.936  13.541 -1.4735 -0.6193 -0.8230
15952TIP3    H269272   6.632   4.945  13.683  1.1408  0.8644  0.1226
15953TIP3   OH269273   6.129   5.295  14.906  0.7224 -0.3742  0.1988
15953TIP3    H169274   6.060   5.281  14.841  0.8791 -0.8546  0.1305
15953TIP3    H269275   6.090   5.265  14.989 -0.1787  2.0177  0.7312
15954TIP3   OH269276   6.214   1.936  11.144  0.0085 -0.0832 -0.2883
15954TIP3    H169277   6.286   1.889  11.101  0.5394  0.6000 -0.1704
15954TIP3    H269278   6.231   1.926  11.238  0.0929  0.2752 -0.2612
15955TIP3   OH269279   0.177   6.607   4.074 -0.2905 -0.0862 -0.0387
15955TIP3    H169280   0.193   6.518   4.105  0.7934  0.4604  1.0188
15955TIP3    H269281   0.083   6.621   4.089 -0.5646 -1.1854 -0.6189
15956TIP3   OH269282   4.147   6.320  16.331  0.5245  0.1776  0.5492
15956TIP3    H169283   4.062   6.314  16.375 -0.8667 -0.8450 -2.0192
15956TIP3    H269284   4.190   6.237  16.350 -0.2180 -0.4076 -0.2443
15957TIP3   OH269285   5.566   4.011  11.398  0.3355 -0.2899 -0.2830
15957TIP3    H169286   5.532   3.940  11.344  2.0474 -1.1243 -0.3228
15957TIP3    H269287   5.653   4.029  11.363 -0.8102  3.3578 -1.6743
15958TIP3   OH269288   1.598   0.562   1.204 -0.0670 -0.0723  0.0680
15958TIP3    H169289   1.626   0.629   1.141 -0.2752  0.9641  1.0335
15958TIP3    H269290   1.678   0.538   1.250 -0.0295 -0.3119 -0.1259
15959TIP3   OH269291   2.143   2.703   1.849 -0.2033  0.6367  0.1172
15959TIP3    H169292   2.160   2.680   1.941 -1.0324  0.3138  0.1979
15959TIP3    H269293   2.111   2.793   1.852 -2.3246 -0.0893  0.3873
15960TIP3   OH269294   4.310   0.157  14.165 -0.0055 -0.1260  0.5800
15960TIP3    H169295   4.385   0.131  14.220  1.9170 -0.6078 -2.0792
15960TIP3    H269296   4.297   0.083  14.105 -1.9585  0.4144  0.2743
15961TIP3   OH269297   2.751   4.853  11.106 -0.0648 -0.0375 -0.4552
15961TIP3    H169298   2.742   4.926  11.044  0.8353  0.4288 -0.0654
15961TIP3    H269299   2.740   4.774  11.053 -0.5554  0.3700 -0.9747
15962TIP3   OH269300   1.473   6.679  14.123 -0.0798 -0.9758 -0.2192
15962TIP3    H169301   1.417   6.611  14.160  1.5934 -2.4471 -0.2182
15962TIP3    H269302   1.540   6.631  14.075  1.2421  0.6817 -0.1377
15963TIP3   OH269303   2.974   5.178   5.211 -0.5536  0.5696  0.6628
15963TIP3    H169304   3.055   5.220   5.239 -0.9169  1.4787  0.3679
15963TIP3    H269305   2.909   5.209   5.274 -1.3354  2.4516 -0.9921
15964TIP3   OH269306   5.038   1.814  15.505  0.1105 -0.1289  0.4012
15964TIP3    H169307   5.018   1.835  15.597  0.6014 -1.3074  0.8030
15964TIP3    H269308   5.110   1.873  15.482  1.5132 -1.3389  1.5180
15965TIP3   OH269309   0.185   2.906  15.900 -0.1692  0.0834 -0.6261
15965TIP3    H169310   0.259   2.968  15.907  0.1389 -0.4156  1.2629
15965TIP3    H269311   0.203   2.857  15.820  1.5995 -0.0407 -0.2141
15966TIP3   OH269312   4.372   2.346   1.915  0.3475 -0.7830 -0.1008
15966TIP3    H169313   4.279   2.332   1.898  0.4363 -0.6483 -0.7428
15966TIP3    H269314   4.391   2.433   1.879  0.7413 -0.8536 -0.0782
15967TIP3   OH269315   0.120   3.576   1.936 -0.6055  0.0283 -0.1022
15967TIP3    H169316   0.083   3.622   2.012  1.9365 -0.2365  1.4067
15967TIP3    H269317   0.069   3.608   1.862  0.1721  4.3676  0.9852
15968TIP3   OH269318   4.509   5.124  16.437 -0.4110  0.1134 -0.1555
15968TIP3    H169319   4.591   5.157  16.473 -0.2867  0.6641 -0.9307
15968TIP3    H269320   4.523   5.029  16.428 -0.2456  0.0498  0.6853
15969TIP3   OH269321   5.751   4.105   5.130 -0.2035 -0.0046  0.8633
15969TIP3    H169322   5.689   4.178   5.135  0.3286  0.4200  1.5368
15969TIP3    H269323   5.791   4.113   5.044  0.3949  0.9629  1.2237
15970TIP3   OH269324   6.085   6.772   0.937 -0.5650  0.1280  0.9740
15970TIP3    H169325   6.015   6.736   0.882  0.3605 -1.8534  0.9977
15970TIP3    H269326   6.084   6.866   0.919 -2.3710 -0.0236  0.0174
15971TIP3   OH269327   2.739   2.203  13.266  0.4775  0.2366  0.1162
15971TIP3    H169328   2.774   2.209  13.354 -0.6948 -0.3266  0.6405
15971TIP3    H269329   2.817   2.200  13.209  1.3694 -2.4366  1.3154
15972TIP3   OH269330   3.825   5.342  15.116  0.1237  0.0541 -0.4904
15972TIP3    H169331   3.870   5.411  15.068 -1.3633  1.1438 -0.3766
15972TIP3    H269332   3.739   5.337  15.075 -0.6104 -0.1167  1.0270
15973TIP3   OH269333   0.346   1.150  13.582 -0.0559  0.1824 -0.3199
15973TIP3    H169334   0.340   1.243  13.604  1.8573  0.5611 -1.1409
15973TIP3    H269335   0.377   1.109  13.663  1.6027  0.7010 -0.6530
15974TIP3   OH269336   0.783   2.554  15.620 -0.5492 -0.4511  0.1423
15974TIP3    H169337   0.864   2.556  15.569 -0.6496 -1.0128 -0.0407
15974TIP3    H269338   0.784   2.469  15.664 -2.1230 -1.4575 -1.6248
15975TIP3   OH269339   6.013   2.071   0.227  0.6114 -0.1658  0.2410
15975TIP3    H169340   6.002   2.030   0.312 -1.4861  0.5417  0.3887
15975TIP3    H269341   6.063   2.008   0.176  1.2183 -0.9528  1.7428
15976TIP3   OH269342   3.424   5.512   0.164 -0.4271  0.3231  0.5540
15976TIP3    H169343   3.493   5.526   0.229 -0.3725 -0.3807  0.6561
15976TIP3    H269344   3.343   5.507   0.216 -0.2623 -1.2893  0.6889
15977TIP3   OH269345   0.379   3.320   0.829 -0.4331 -0.8240 -0.3538
15977TIP3    H169346   0.470   3.315   0.798 -0.2095 -0.3904  0.2087
15977TIP3    H269347   0.326   3.305   0.751  0.1189  0.1424 -0.9358
15978TIP3   OH269348   4.919   3.543  11.801  0.6252  0.1465  0.6606
15978TIP3    H169349   4.831   3.532  11.765 -0.2094 -1.5491  2.9760
15978TIP3    H269350   4.977   3.512  11.732 -0.6454  0.4205 -0.5783
15979TIP3   OH269351   3.174   0.969  13.167 -0.3101  0.6997  0.3418
15979TIP3    H169352   3.175   0.886  13.120  2.6319  1.2412 -0.7738
15979TIP3    H269353   3.264   1.000  13.162 -0.9849  3.2172  2.0881
15980TIP3   OH269354   2.414   6.576  16.678  0.3540  0.0514  0.7838
15980TIP3    H169355   2.330   6.563  16.634  0.7565 -4.8260  0.9486
15980TIP3    H269356   2.396   6.563  16.771  1.1426 -0.2459  0.9051
15981TIP3   OH269357   6.410   3.517  16.271 -0.1994  0.1074  0.4665
15981TIP3    H169358   6.460   3.579  16.218 -0.8292  0.0601 -0.1950
15981TIP3    H269359   6.476   3.471  16.322  0.3059  1.1117  0.7468
15982TIP3   OH269360   2.656   1.116   4.553 -0.2648 -0.0710 -0.0553
15982TIP3    H169361   2.634   1.148   4.641  1.3493  1.1551 -0.0770
15982TIP3    H269362   2.703   1.034   4.569  0.1522  0.2217  0.2340
15983TIP3   OH269363   3.947   2.797   4.362 -0.0963  0.0422  0.4178
15983TIP3    H169364   4.036   2.823   4.384 -0.6434  3.2361 -0.5699
15983TIP3    H269365   3.950   2.779   4.268 -0.7063  1.6516  0.0519
15984TIP3   OH269366   1.169   3.599  13.560  0.9760  0.3873  0.1081
15984TIP3    H169367   1.180   3.627  13.650  1.5433 -0.4724  0.3113
15984TIP3    H269368   1.099   3.655  13.526  2.1134  2.0997  0.4621
15985TIP3   OH269369   6.333   2.248   3.938  0.1956 -0.2582 -0.4147
15985TIP3    H169370   6.315   2.342   3.940  1.6018  0.0203  0.3396
15985TIP3    H269371   6.291   2.214   4.017  0.8449 -0.0357  0.0269
15986TIP3   OH269372   2.584   4.602  12.053  0.4410 -0.5583 -0.3928
15986TIP3    H169373   2.588   4.606  11.957  4.0999  1.2476 -0.3371
15986TIP3    H269374   2.660   4.550  12.078 -0.6064 -1.2352  1.5764
15987TIP3   OH269375   5.664   0.679   5.025  0.0536 -0.2167 -0.1800
15987TIP3    H169376   5.663   0.749   4.960  1.3806  1.4339  1.4573
15987TIP3    H269377   5.664   0.725   5.109 -1.1748 -2.2486  1.0242
15988TIP3   OH269378   3.088   6.632   3.396  0.4998 -0.2840 -0.1586
15988TIP3    H169379   3.109   6.725   3.385 -0.6031 -0.0623 -0.4644
15988TIP3    H269380   3.173   6.590   3.406  1.0960  0.5941 -1.2989
15989TIP3   OH269381   6.229   5.974  16.101  0.1754 -0.6859 -0.4175
15989TIP3    H169382   6.227   5.897  16.158 -0.5525  1.5958  2.9320
15989TIP3    H269383   6.169   6.036  16.142  0.9310  1.8275 -2.7950
15990TIP3   OH269384   2.297   1.603   5.422  0.4108  0.3951  0.1183
15990TIP3    H169385   2.236   1.672   5.398  0.4105 -0.4665 -2.7453
15990TIP3    H269386   2.384   1.639   5.402  0.6109  0.4274  0.9985
15991TIP3   OH269387   1.723   0.489   2.718  0.0227  0.2547  0.5162
15991TIP3    H169388   1.773   0.570   2.728  0.9725 -0.5105  2.4403
15991TIP3    H269389   1.659   0.492   2.789  0.2097 -0.7705  0.7400
15992TIP3   OH269390   1.705   6.558   4.343 -0.0992  0.4299 -0.4759
15992TIP3    H169391   1.655   6.492   4.391 -0.0185  0.7957  0.1289
15992TIP3    H269392   1.763   6.597   4.409 -0.7907  1.7365 -0.5969
15993TIP3   OH269393   1.459   0.443  12.425  0.0285  0.5440  0.1591
15993TIP3    H169394   1.497   0.389  12.355 -0.9383  1.0731 -0.7920
15993TIP3    H269395   1.367   0.419  12.427  0.0092  0.6761  1.1354
15994TIP3   OH269396   3.467   4.596   1.073 -0.1531  0.0784 -0.4763
15994TIP3    H169397   3.558   4.569   1.088  0.0680 -0.4128 -2.3960
15994TIP3    H269398   3.470   4.691   1.072 -0.0082  0.1085  1.3022
15995TIP3   OH269399   3.984   5.013   1.079 -0.3910 -0.1623  0.1100
15995TIP3    H169400   3.971   5.087   1.019  1.9793 -0.5197 -0.9819
15995TIP3    H269401   3.902   5.006   1.127 -1.2262  2.2221 -0.8113
15996TIP3   OH269402   1.895   5.263   6.264  0.1318 -0.1052 -0.3934
15996TIP3    H169403   1.926   5.330   6.204  0.9016  3.3709  3.4132
15996TIP3    H269404   1.800   5.269   6.261  0.1808  1.9427  0.4908
15997TIP3   OH269405   5.090   5.423   1.080  0.3609 -0.3307  0.8640
15997TIP3    H169406   5.150   5.470   1.138  0.2906 -0.4533  1.0385
15997TIP3    H269407   5.003   5.435   1.120  0.2019  0.2213  0.3713
15998TIP3   OH269408   2.495   4.486   0.872 -0.1456  0.1078  0.1739
15998TIP3    H169409   2.440   4.441   0.936 -3.0711 -0.4607 -2.5231
15998TIP3    H269410   2.539   4.416   0.824  0.7574  0.4562  0.4735
15999TIP3   OH269411   0.777   1.567  13.684  0.5454 -0.1142  0.2998
15999TIP3    H169412   0.698   1.576  13.738  0.8704 -1.3153  1.0409
15999TIP3    H269413   0.744   1.554  13.595 -0.0342  0.9000  0.3493
16000TIP3   OH269414   2.370   0.012   6.248 -0.1033  0.2535  0.4226
16000TIP3    H169415   2.309  -0.052   6.284 -2.1148  1.0380 -1.3747
16000TIP3    H269416   2.316   0.089   6.228  1.6457  1.3532 -0.4149
16001TIP3   OH269417   2.748   2.879  10.244 -0.3498  0.4115 -0.0230
16001TIP3    H169418   2.752   2.952  10.306 -1.3750  0.0445  0.5040
16001TIP3    H269419   2.839   2.855  10.227 -0.0572  0.1524  1.7788
16002TIP3   OH269420   3.556   5.294  13.365 -0.2260 -0.1098  0.8037
16002TIP3    H169421   3.541   5.377  13.319  0.0027 -0.3596  0.2595
16002TIP3    H269422   3.476   5.244  13.350  0.3795 -0.7268 -0.5246
16003TIP3   OH269423   5.104   1.553  15.145  0.1680  0.2956  0.0574
16003TIP3    H169424   5.042   1.541  15.074  0.8441 -0.9266 -0.3500
16003TIP3    H269425   5.111   1.648  15.155  0.1477  0.4963 -1.5760
16004TIP3   OH269426   0.571   1.038   4.776 -0.6005  0.5003 -0.1444
16004TIP3    H169427   0.581   0.954   4.730  1.1473  0.7067 -0.2060
16004TIP3    H269428   0.477   1.056   4.772 -1.2509 -2.1406  1.1115
16005TIP3   OH269429   5.779   2.944  17.108  0.3476 -0.3637  0.4562
16005TIP3    H169430   5.705   3.004  17.097  0.6809  0.0429  0.4188
16005TIP3    H269431   5.853   2.989  17.067  1.3303  0.6383  3.0709
16006TIP3   OH269432   6.664   4.147   3.987  0.0204  0.5645 -0.1816
16006TIP3    H169433   6.630   4.231   4.017 -0.5469  1.2229 -2.5005
16006TIP3    H269434   6.674   4.157   3.892  3.1960 -0.8369 -0.1438
16007TIP3   OH269435   0.902   1.210   3.144 -0.3617  0.1465 -0.0614
16007TIP3    H169436   0.921   1.272   3.214 -1.9107  0.3623  0.1996
16007TIP3    H269437   0.858   1.137   3.188  2.2094 -1.6139 -0.2192
16008TIP3   OH269438   4.344   4.718  15.838  0.6480  0.3800 -0.0618
16008TIP3    H169439   4.303   4.804  15.825  1.0772  0.9814  2.0660
16008TIP3    H269440   4.396   4.704  15.759  0.8729  2.2819 -0.2980
16009TIP3   OH269441   0.705   3.909  16.323 -0.5313  0.1047  0.0227
16009TIP3    H169442   0.651   3.965  16.268  0.6200  1.3163  0.0678
16009TIP3    H269443   0.757   3.856  16.262 -1.2266 -0.5432 -0.0209
16010TIP3   OH269444   2.807   3.792  14.650 -0.0992  0.2635  0.1059
16010TIP3    H169445   2.724   3.821  14.688 -0.0483  0.6824 -0.0989
16010TIP3    H269446   2.825   3.855  14.580  2.9121  3.4019  3.2574
16011TIP3   OH269447   1.586   5.525   0.977  0.4495  0.4497  0.2078
16011TIP3    H169448   1.652   5.455   0.973 -0.9524 -0.8763 -0.7459
16011TIP3    H269449   1.597   5.562   1.065  1.2513 -0.9767  0.7561
16012TIP3   OH269450   6.046   0.045  15.341 -0.1980  0.3009  0.1936
16012TIP3    H169451   6.140   0.031  15.336  0.2935  2.1919  2.2612
16012TIP3    H269452   6.032   0.131  15.301 -0.9731  0.2175  0.2638
16013TIP3   OH269453   6.229   6.647  12.015  0.0379 -0.4017  0.4167
16013TIP3    H169454   6.172   6.642  12.091 -1.3731 -1.5280 -0.6559
16013TIP3    H269455   6.263   6.558  12.005  0.1006 -0.3011 -0.3437
16014TIP3   OH269456   4.469   2.914  12.626  0.1421 -0.3237 -0.1301
16014TIP3    H169457   4.375   2.928  12.636  0.3767  0.5017  1.2293
16014TIP3    H269458   4.478   2.865  12.545 -1.4159  0.1234 -0.5995
16015TIP3   OH269459   6.428   3.801  14.341  0.3083 -0.4854 -0.2448
16015TIP3    H169460   6.446   3.895  14.334 -0.4234 -0.2470  0.7840
16015TIP3    H269461   6.464   3.763  14.261 -0.3020  0.8225 -1.1700
16016TIP3   OH269462   1.069   1.905  14.797  0.0971  0.0715 -0.3916
16016TIP3    H169463   0.978   1.920  14.821 -0.0392 -1.1924 -0.0383
16016TIP3    H269464   1.066   1.828  14.740  0.7374  1.2422 -2.0886
16017TIP3   OH269465   6.386   4.454  13.454 -0.0709  0.0789  0.2602
16017TIP3    H169466   6.313   4.401  13.423 -1.1017 -0.1848  2.9022
16017TIP3    H269467   6.354   4.544  13.450 -0.5059 -0.0186  1.1996
16018TIP3   OH269468   2.726   5.015   0.480  0.3608  0.0762 -0.3085
16018TIP3    H169469   2.810   5.061   0.487  0.3201 -0.0897  2.2054
16018TIP3    H269470   2.720   4.964   0.560 -1.4492 -1.1805 -1.1763
16019TIP3   OH269471   6.691   4.257   2.495  0.5769  0.7004 -0.5973
16019TIP3    H169472   6.670   4.178   2.446 -0.7013 -0.8337  2.1788
16019TIP3    H269473   6.610   4.280   2.541  1.2229  3.0271 -0.4580
16020TIP3   OH269474   1.782   0.531   5.293 -0.1309  0.2469 -0.0483
16020TIP3    H169475   1.864   0.498   5.330  0.1966  0.7475 -0.3080
16020TIP3    H269476   1.771   0.482   5.212 -0.4672 -0.3302  0.3382
16021TIP3   OH269477   6.085   5.399   2.718  0.3956 -0.6416 -0.3684
16021TIP3    H169478   6.089   5.393   2.622  1.5211  0.4499 -0.4188
16021TIP3    H269479   6.080   5.308   2.747 -2.2069 -0.9431 -1.5054
16022TIP3   OH269480   5.299   3.187   2.456 -0.1733  0.1750  0.0271
16022TIP3    H169481   5.315   3.223   2.369  0.3654  0.7295  0.3462
16022TIP3    H269482   5.314   3.093   2.445  2.1831  0.4851 -0.0087
16023TIP3   OH269483   1.169   3.614  14.370 -0.2086 -0.4770  0.7577
16023TIP3    H169484   1.121   3.643  14.293 -0.5966 -2.0598  0.3594
16023TIP3    H269485   1.120   3.649  14.444  0.0961  0.9528  0.3059
16024TIP3   OH269486   1.491   2.400   2.623  0.3955 -0.7495  0.3254
16024TIP3    H169487   1.533   2.364   2.701 -0.9602  0.0125  1.4337
16024TIP3    H269488   1.417   2.342   2.606 -1.1767  0.8152  1.4985
16025TIP3   OH269489   6.684   6.555  13.636  0.2962 -0.7400 -0.6299
16025TIP3    H169490   6.714   6.468  13.609  1.5700 -0.8348  0.9193
16025TIP3    H269491   6.702   6.558  13.730 -2.0357  0.3070 -0.1522
16026TIP3   OH269492   3.937   2.980  14.747  0.3717 -0.4877 -0.1835
16026TIP3    H169493   3.973   2.901  14.786 -0.9008 -0.7922  0.3942
16026TIP3    H269494   3.958   3.049  14.810  1.6155 -0.3065 -0.7580
16027TIP3   OH269495   6.200   4.218  14.599  0.1988 -0.4142  0.0945
16027TIP3    H169496   6.177   4.309  14.579  2.4305 -0.0760 -1.3127
16027TIP3    H269497   6.245   4.223  14.684 -0.6590 -0.3994  0.5617
16028TIP3   OH269498   1.462   5.819  13.838  0.3870  0.0103 -0.0657
16028TIP3    H169499   1.528   5.874  13.796  1.0829 -1.4196 -0.9433
16028TIP3    H269500   1.489   5.815  13.930  0.3409  1.0653  0.0094
16029TIP3   OH269501   3.378   0.395  12.408  0.2013 -0.2959  0.0380
16029TIP3    H169502   3.396   0.309  12.369  0.0776 -0.5956  0.6262
16029TIP3    H269503   3.450   0.409  12.469 -0.2695 -0.4165  0.6373
16030TIP3   OH269504   4.668   1.512  11.469 -0.1869  0.1669  0.4820
16030TIP3    H169505   4.582   1.470  11.466  0.2363 -0.8300  1.8244
16030TIP3    H269506   4.729   1.442  11.490  0.8827  0.9903  0.2187
16031TIP3   OH269507   2.294   4.393   4.736  0.2377  0.0442 -0.0724
16031TIP3    H169508   2.327   4.462   4.678  0.4700  0.3218  0.3891
16031TIP3    H269509   2.262   4.326   4.676 -0.5168  0.7924 -0.5401
16032TIP3   OH269510   2.744   3.346  15.855 -0.3819  0.4357  0.2815
16032TIP3    H169511   2.725   3.314  15.943 -1.3346  0.9717  0.2741
16032TIP3    H269512   2.664   3.388  15.826 -0.9320 -1.7952 -1.8012
16033TIP3   OH269513   5.814   1.999   5.940 -0.0036 -0.4207  0.4606
16033TIP3    H169514   5.860   1.926   5.981  0.6866 -0.2090  0.0934
16033TIP3    H269515   5.725   1.968   5.927 -0.1985 -0.5588  1.9403
16034TIP3   OH269516   2.557   0.220  12.356 -0.3033 -0.5770  0.0798
16034TIP3    H169517   2.581   0.288  12.419 -0.0358 -1.5551  1.0493
16034TIP3    H269518   2.520   0.269  12.282 -1.5412  0.5455  1.3849
16035TIP3   OH269519   4.038   4.872   4.681  0.0913  0.3081 -0.0900
16035TIP3    H169520   4.085   4.795   4.714 -1.0241  1.0763  3.7177
16035TIP3    H269521   3.954   4.837   4.651  0.0288 -0.0847  0.5314
16036TIP3   OH269522   5.096   4.271  14.718 -0.3710  0.1611  0.8058
16036TIP3    H169523   5.001   4.259  14.709 -0.3649  0.6456  0.0596
16036TIP3    H269524   5.126   4.191  14.762 -1.1823  0.1965  1.4464
16037TIP3   OH269525   6.204   6.005  14.231 -0.1629 -0.1358  0.3426
16037TIP3    H169526   6.282   6.051  14.262 -0.4661  1.1159 -0.6865
16037TIP3    H269527   6.212   6.005  14.136 -1.5815  0.3157  0.1998
16038TIP3   OH269528   2.338   1.398   1.239  0.1274 -0.2735  0.5795
16038TIP3    H169529   2.386   1.449   1.305  0.1763  0.6742 -0.1712
16038TIP3    H269530   2.246   1.412   1.260  0.1485 -1.1818  1.3371
16039TIP3   OH269531   3.809   4.377   2.147  0.3923 -0.5324  0.5563
16039TIP3    H169532   3.904   4.376   2.160  0.8313 -1.1416 -2.1613
16039TIP3    H269533   3.777   4.301   2.196  1.1712  0.0511  2.0298
16040TIP3   OH269534   1.478   5.393   1.318  0.6157  0.7578  0.4515
16040TIP3    H169535   1.431   5.398   1.234  0.4181  0.0910  0.5243
16040TIP3    H269536   1.409   5.390   1.384  0.7725  1.1684  0.6383
16041TIP3   OH269537   3.931   4.769  11.616 -0.2228 -0.4545  0.1653
16041TIP3    H169538   3.946   4.829  11.543  0.3914 -0.4555  0.2838
16041TIP3    H269539   3.849   4.799  11.656 -0.3403 -0.1966 -0.2635
16042TIP3   OH269540   3.091   5.838   5.670  0.1437  0.8975 -0.3118
16042TIP3    H169541   3.055   5.829   5.758 -0.3604 -0.4386 -0.6336
16042TIP3    H269542   3.185   5.821   5.681 -0.1691 -0.9395 -0.2603
16043TIP3   OH269543   5.365   0.365  13.163  0.5477 -0.5397  0.0088
16043TIP3    H169544   5.376   0.300  13.093 -1.7935 -0.4145 -0.5375
16043TIP3    H269545   5.306   0.322  13.226 -0.6224  0.8577 -0.1087
16044TIP3   OH269546   4.497   0.081  16.092  0.2607  0.1247 -0.3251
16044TIP3    H169547   4.578   0.076  16.042  0.8527  1.3470  0.4835
16044TIP3    H269548   4.476   0.174  16.096 -1.6044 -0.2168 -1.1491
16045TIP3   OH269549   2.510   0.085   5.089  0.5244  0.1491 -0.3649
16045TIP3    H169550   2.532   0.104   4.998  0.3940  1.1952 -0.1854
16045TIP3    H269551   2.587   0.040   5.123  0.4062 -0.6483 -1.1014
16046TIP3   OH269552   1.644   2.087  12.051 -0.0751  0.5287  0.0294
16046TIP3    H169553   1.657   2.047  11.965  0.2366 -0.1891  0.4019
16046TIP3    H269554   1.574   2.152  12.037  0.7822  1.2735 -1.0234
16047TIP3   OH269555   2.418   0.111  11.948 -0.4494 -0.3064 -0.1982
16047TIP3    H169556   2.416   0.076  11.859 -1.4928 -2.5402  0.6372
16047TIP3    H269557   2.507   0.097  11.978 -0.4869 -0.9647 -0.3836
16048TIP3   OH269558   5.429   2.883   6.104  0.2789 -0.0729  0.2549
16048TIP3    H169559   5.491   2.857   6.172  0.4530 -0.8022 -0.1717
16048TIP3    H269560   5.480   2.878   6.023  0.3533  1.7197  0.1531
16049TIP3   OH269561   4.092   4.545   5.680  0.1672 -0.5015  0.0606
16049TIP3    H169562   4.139   4.467   5.711  2.3009  0.6196 -0.1785
16049TIP3    H269563   4.077   4.597   5.759 -2.3565 -1.6233  0.4150
16050TIP3   OH269564   3.755   2.960  11.541 -0.4017  0.1109  0.0582
16050TIP3    H169565   3.814   2.993  11.472 -0.2915 -1.2576 -0.5461
16050TIP3    H269566   3.744   2.867  11.520 -0.4962 -0.3065  1.8182
16051TIP3   OH269567   5.970   1.187  15.138  0.2428 -0.0719 -0.1297
16051TIP3    H169568   6.013   1.103  15.150  0.4893  0.2253  1.1844
16051TIP3    H269569   6.031   1.237  15.083  0.9209 -0.1606  0.5275
16052TIP3   OH269570   1.857   4.820  16.963 -0.5726 -0.3659  0.2224
16052TIP3    H169571   1.919   4.818  16.891 -1.2053 -0.7594 -0.3235
16052TIP3    H269572   1.892   4.758  17.027 -0.6490 -0.9388 -0.2863
16053TIP3   OH269573   0.603   2.198  13.168  0.5315 -0.1869  0.1317
16053TIP3    H169574   0.642   2.275  13.210  0.8890  0.5294 -1.4705
16053TIP3    H269575   0.674   2.134  13.165  0.2467 -0.6019  1.4204
16054TIP3   OH269576   2.653   3.146   5.999  0.1221 -0.3108  0.7771
16054TIP3    H169577   2.606   3.180   6.074 -0.2671  0.0579  0.3725
16054TIP3    H269578   2.712   3.217   5.973 -0.0371 -0.2821  0.4877
16055TIP3   OH269579   2.901   2.102   2.861 -0.4386  0.4695 -0.3151
16055TIP3    H169580   2.962   2.163   2.819  0.1335  1.2585  1.5482
16055TIP3    H269581   2.904   2.023   2.806  0.0007  1.5413 -1.9001
16056TIP3   OH269582   6.724   3.281  17.019  0.0895 -0.1167 -0.0200
16056TIP3    H169583   6.714   3.236  16.935  3.3187  0.8722 -1.0540
16056TIP3    H269584   6.811   3.320  17.015 -0.0424  0.7894  3.4388
16057TIP3   OH269585   5.101   3.791  10.482 -0.0339 -0.2478 -0.2784
16057TIP3    H169586   5.134   3.719  10.536 -2.6819 -2.0754 -0.8894
16057TIP3    H269587   5.017   3.813  10.521 -0.3255  0.9201 -1.4976
16058TIP3   OH269588   5.573   2.466  10.458  0.2641 -0.8866  0.9590
16058TIP3    H169589   5.641   2.534  10.453 -0.0911 -0.4791  1.6623
16058TIP3    H269590   5.493   2.513  10.482 -0.6195 -1.1361 -1.2171
16059TIP3   OH269591   6.539   0.681  11.632  0.3931 -0.2868 -0.3703
16059TIP3    H169592   6.612   0.627  11.663 -0.6159 -0.6689  1.5429
16059TIP3    H269593   6.580   0.749  11.579  2.1196 -0.6173  0.4669
16060TIP3   OH269594   0.215   5.150   4.897 -0.8202 -0.3023 -0.1594
16060TIP3    H169595   0.127   5.112   4.888 -0.4873 -1.4582  1.3164
16060TIP3    H269596   0.244   5.162   4.806 -1.7048 -1.7779 -0.6787
16061TIP3   OH269597   4.454   4.234   2.303  0.3858 -0.4242  0.6608
16061TIP3    H169598   4.423   4.307   2.356 -0.2377  0.2088 -0.5385
16061TIP3    H269599   4.538   4.211   2.341 -0.4166 -0.5738  2.4624
16062TIP3   OH269600   6.196   5.681  14.899 -0.4273  0.3937 -1.0484
16062TIP3    H169601   6.245   5.600  14.883  0.8891  1.2513 -1.4140
16062TIP3    H269602   6.258   5.740  14.940 -1.5950  0.9919 -0.0642
16063TIP3   OH269603   5.189   1.859  12.201  0.0469 -0.4023  0.5731
16063TIP3    H169604   5.146   1.903  12.274  2.8141  0.9227  1.5276
16063TIP3    H269605   5.180   1.766  12.220 -2.1646 -0.2122  0.7771
16064TIP3   OH269606   2.744   1.655   1.405 -0.6432 -0.2521 -0.6233
16064TIP3    H169607   2.727   1.574   1.452  0.8362 -0.3340 -0.2019
16064TIP3    H269608   2.829   1.642   1.363  1.0304  2.0574  1.7408
16065TIP3   OH269609   0.726   4.891  12.173  0.5327 -0.1101  0.2202
16065TIP3    H169610   0.703   4.971  12.219  1.5311  0.6288 -0.5119
16065TIP3    H269611   0.660   4.883  12.104  1.7571  1.4541 -1.2389
16066TIP3   OH269612   3.230   3.278  14.995  0.3157  0.0674 -0.0818
16066TIP3    H169613   3.185   3.279  15.079  1.3657  1.5641  0.5122
16066TIP3    H269614   3.312   3.233  15.012 -0.0192 -0.7649 -0.6339
16067TIP3   OH269615   5.585   2.637   6.268 -0.4084 -0.3378  0.1789
16067TIP3    H169616   5.640   2.662   6.343  0.1498 -0.2494 -0.2523
16067TIP3    H269617   5.496   2.656   6.297 -0.0222  3.4132 -0.4867
16068TIP3   OH269618   5.164   1.036   3.139  0.1178 -0.4656  0.3469
16068TIP3    H169619   5.174   1.127   3.110 -0.3858 -1.0035 -1.6272
16068TIP3    H269620   5.070   1.018   3.128  0.5785 -1.9176 -1.5357
16069TIP3   OH269621   0.649   5.815   0.314 -0.0539  1.1336  0.3677
16069TIP3    H169622   0.597   5.880   0.362 -0.9695  1.1930 -0.6673
16069TIP3    H269623   0.725   5.799   0.370 -0.3459  2.3051  1.1402
16070TIP3   OH269624   2.301   2.524  13.746 -0.3170 -0.4277  0.1379
16070TIP3    H169625   2.223   2.532  13.692 -0.2627 -0.3334  0.0715
16070TIP3    H269626   2.371   2.504  13.685 -0.1723  0.1337  0.1123
16071TIP3   OH269627   0.238   2.178   5.230  0.5689 -0.4079 -0.4830
16071TIP3    H169628   0.187   2.259   5.235  1.1720  0.1810 -2.8600
16071TIP3    H269629   0.321   2.200   5.274 -0.4228 -0.7797  1.6920
16072TIP3   OH269630   0.132   2.340   3.127  0.1212  0.7153 -0.4522
16072TIP3    H169631   0.110   2.337   3.220  2.4337  1.5774  0.2179
16072TIP3    H269632   0.065   2.287   3.084 -0.8049 -0.0163  1.7349
16073TIP3   OH269633   5.517   5.667  15.309  0.3445 -0.0101 -0.3304
16073TIP3    H169634   5.497   5.704  15.223  1.4843 -2.6069 -1.8254
16073TIP3    H269635   5.583   5.727  15.346  1.1471  0.2408 -2.0577
16074TIP3   OH269636   0.677   6.696   4.481 -0.4532 -0.3125 -0.1646
16074TIP3    H169637   0.674   6.617   4.426  1.6939 -0.3716 -0.2956
16074TIP3    H269638   0.771   6.712   4.493 -0.8723  1.0568  1.5584
16075TIP3   OH269639   5.577   1.242   6.551  0.3541  0.7213  0.2658
16075TIP3    H169640   5.536   1.174   6.496  0.5236  0.3517  0.5951
16075TIP3    H269641   5.581   1.203   6.638 -0.1481  1.4045  0.6068
16076TIP3   OH269642   5.422   3.494   6.198 -0.2626  0.4047 -0.0352
16076TIP3    H169643   5.471   3.416   6.222  0.3920  1.2788  1.6807
16076TIP3    H269644   5.412   3.489   6.103  0.2452 -1.4544 -0.0230
16077TIP3   OH269645   5.809   2.111  13.255  0.7063 -0.4302 -0.5037
16077TIP3    H169646   5.903   2.106  13.235  0.8119 -1.0377  0.0781
16077TIP3    H269647   5.769   2.044  13.199  0.5064  0.3860 -1.3452
16078TIP3   OH269648   5.642   5.386  16.636 -0.3860 -0.6840 -0.0784
16078TIP3    H169649   5.564   5.333  16.653 -0.5012 -1.0571 -1.6036
16078TIP3    H269650   5.641   5.453  16.704 -2.2689 -0.4495 -0.2783
16079TIP3   OH269651   2.537   3.376  12.069 -0.0104 -0.1416  0.2356
16079TIP3    H169652   2.467   3.439  12.048  0.9769  0.6040 -0.9290
16079TIP3    H269653   2.597   3.381  11.995  0.3099 -2.1937  0.3183
16080TIP3   OH269654   5.286   3.703  10.270  0.3027  0.0656 -0.4577
16080TIP3    H169655   5.235   3.768  10.222 -0.8751 -0.2587  0.3099
16080TIP3    H269656   5.224   3.666  10.334  0.0132 -3.8911 -2.7084
16081TIP3   OH269657   4.448   2.464   4.546  0.6818  0.4792  0.3404
16081TIP3    H169658   4.509   2.393   4.527 -0.1484 -0.7317  1.9263
16081TIP3    H269659   4.371   2.445   4.493  0.1602 -0.2937  1.3302
16082TIP3   OH269660   1.637   3.285  16.936  0.1544  0.3231 -0.0582
16082TIP3    H169661   1.547   3.288  16.903  0.5310 -0.1274 -1.2164
16082TIP3    H269662   1.645   3.198  16.975  0.0284  0.4410  0.2309
16083TIP3   OH269663   2.458   5.266  15.947  0.2404  0.2935 -0.1303
16083TIP3    H169664   2.545   5.282  15.984  0.1616  1.4218 -0.3864
16083TIP3    H269665   2.468   5.284  15.854  0.2039 -1.5837 -0.5421
16084TIP3   OH269666   2.615   6.576   4.570 -0.1528 -0.1854 -0.3990
16084TIP3    H169667   2.538   6.579   4.627 -0.0522  0.1526 -0.2790
16084TIP3    H269668   2.680   6.528   4.621  0.7861  2.2175  0.8390
16085TIP3   OH269669   1.995   1.351   0.616 -0.5870 -0.2631  0.1918
16085TIP3    H169670   2.083   1.377   0.592 -0.8850 -0.1868 -0.8928
16085TIP3    H269671   1.988   1.369   0.710  0.4101  0.0861  0.2024
16086TIP3   OH269672   2.777   4.222  17.164  0.9084  0.3783  0.3767
16086TIP3    H169673   2.842   4.207  17.096  0.0873  1.3906 -0.6758
16086TIP3    H269674   2.821   4.277  17.228  1.8005 -0.8723  0.8750
16087TIP3   OH269675   6.471   1.783   1.555  0.3786 -0.6317  0.1749
16087TIP3    H169676   6.497   1.704   1.603  0.8176 -0.2879  0.5154
16087TIP3    H269677   6.391   1.758   1.509 -2.0115 -0.0609  3.6289
16088TIP3   OH269678   6.180   0.717  14.712  0.2653  0.4520 -0.0752
16088TIP3    H169679   6.128   0.798  14.715  0.1002  0.3190  1.0822
16088TIP3    H269680   6.188   0.698  14.619 -0.2411  1.4551 -0.3442
16089TIP3   OH269681   5.380   0.426  11.582 -0.3162 -0.1709  0.1383
16089TIP3    H169682   5.399   0.349  11.636  0.1421 -0.0298  0.1867
16089TIP3    H269683   5.324   0.480  11.637 -3.0576 -1.7390 -0.9321
16090TIP3   OH269684   1.131   0.104  14.800  0.0804 -0.1060  0.2850
16090TIP3    H169685   1.114   0.094  14.707  0.4366  1.8301 -0.0178
16090TIP3    H269686   1.076   0.037  14.842 -0.3365 -0.7681 -1.2635
16091TIP3   OH269687   4.698   1.993  11.668 -0.5660  1.0793  0.0555
16091TIP3    H169688   4.745   2.053  11.610  0.1984 -1.3981 -2.0736
16091TIP3    H269689   4.765   1.958  11.727  0.3649 -1.8586 -2.4712
16092TIP3   OH269690   0.668   2.075  13.932 -0.1368 -0.0228  0.3729
16092TIP3    H169691   0.624   2.160  13.928 -1.5709 -0.7615 -0.5488
16092TIP3    H269692   0.697   2.059  13.843 -0.0907 -0.5919  0.4841
16093TIP3   OH269693   2.581   4.119  15.323  0.2175  0.2036 -0.2162
16093TIP3    H169694   2.560   4.034  15.284  0.4549  0.1098 -0.1425
16093TIP3    H269695   2.664   4.105  15.368 -0.3369  0.1447  0.8401
16094TIP3   OH269696   5.184   3.421  15.496  0.5644 -1.1574 -0.2199
16094TIP3    H169697   5.142   3.431  15.410 -3.8733  0.0063  1.7758
16094TIP3    H269698   5.211   3.509  15.520 -0.2623 -1.0725  0.4390
16095TIP3   OH269699   2.030   0.007  11.437 -0.3132  0.7717 -0.1351
16095TIP3    H169700   2.017   0.046  11.524 -2.5842  1.0987 -0.5838
16095TIP3    H269701   2.082   0.072  11.390 -1.0589  1.6652  0.2492
16096TIP3   OH269702   2.953   1.391   1.214 -0.0933 -0.5807  0.1535
16096TIP3    H169703   2.986   1.470   1.259 -1.4639 -0.4673  1.0281
16096TIP3    H269704   2.936   1.420   1.125  1.4759 -0.4699 -0.1382
16097TIP3   OH269705   1.521   4.860   5.099  0.2962  0.0765  0.0005
16097TIP3    H169706   1.508   4.947   5.061  3.1063  0.2479 -0.7698
16097TIP3    H269707   1.536   4.803   5.024 -0.2994 -0.8305  0.5643
16098TIP3   OH269708   6.510   6.251  13.605 -0.2579  0.5150 -0.3573
16098TIP3    H169709   6.485   6.269  13.515 -1.4987 -2.0919 -0.6437
16098TIP3    H269710   6.463   6.170  13.627  1.3058  0.1562  2.0703
16099TIP3   OH269711   6.084   1.307   3.900 -0.2137  0.1638 -0.0626
16099TIP3    H169712   6.116   1.275   3.984 -1.8715  0.2205  0.6173
16099TIP3    H269713   6.133   1.255   3.835  2.6879  1.6250  0.8019
16100TIP3   OH269714   5.861   1.368  14.471 -0.7976  0.6918 -0.7194
16100TIP3    H169715   5.942   1.412  14.443  0.2878  0.5823  1.9427
16100TIP3    H269716   5.815   1.433  14.523 -1.2235 -0.0359 -0.1783
16101TIP3   OH269717   0.698   3.021   3.431  0.0920  0.1491 -0.0691
16101TIP3    H169718   0.679   2.939   3.476  2.8616  0.5018  2.0466
16101TIP3    H269719   0.617   3.071   3.435 -0.5828 -0.9961  2.1058
16102TIP3   OH269720   2.115   4.099   0.688 -0.1384  0.4885  0.3046
16102TIP3    H169721   2.127   4.013   0.647  0.4360 -0.3810  2.2192
16102TIP3    H269722   2.028   4.095   0.727  0.1763  0.5078  1.0102
16103TIP3   OH269723   5.584   1.622  15.675 -0.3928 -0.2756 -0.0731
16103TIP3    H169724   5.581   1.547  15.736  2.5193  1.0708  1.9922
16103TIP3    H269725   5.669   1.614  15.632 -0.5827  1.1557 -0.7630
16104TIP3   OH269726   5.200   2.410   2.375 -0.4137  0.4480 -0.0587
16104TIP3    H169727   5.144   2.359   2.316  0.8535 -0.7932 -0.2596
16104TIP3    H269728   5.289   2.385   2.350  0.3416  3.4082 -0.7303
16105TIP3   OH269729   0.953   4.004  10.841  0.4427  0.1469  0.0982
16105TIP3    H169730   0.906   3.973  10.763 -1.4043  0.2599  1.0962
16105TIP3    H269731   0.984   3.925  10.884  2.2076  0.1160 -1.1277
16106TIP3   OH269732   2.334   5.180  13.176  0.4020 -0.8155  0.4235
16106TIP3    H169733   2.416   5.142  13.146  0.4813 -0.9234  0.7779
16106TIP3    H269734   2.266   5.122  13.141  0.4648 -0.6611  0.0311
16107TIP3   OH269735   6.610   0.082   5.205 -0.1764  0.1532  0.0917
16107TIP3    H169736   6.618   0.066   5.299  0.6288  2.1430  0.3965
16107TIP3    H269737   6.643   0.171   5.193 -1.8316  0.5568 -1.8482
16108TIP3   OH269738   5.789   6.181  12.349 -0.0762  0.1081  0.0611
16108TIP3    H169739   5.716   6.133  12.309 -1.4162  1.5925  0.6257
16108TIP3    H269740   5.866   6.153  12.300 -1.2274 -0.4379 -1.5045
16109TIP3   OH269741   4.440   4.256  13.323 -0.4348  0.4597 -0.6300
16109TIP3    H169742   4.516   4.220  13.277 -0.6623  0.2549 -0.8505
16109TIP3    H269743   4.383   4.289  13.253 -1.2137 -0.6829 -0.5772
16110TIP3   OH269744   0.226   4.177  16.506 -0.2467  0.4491 -0.3498
16110TIP3    H169745   0.217   4.271  16.490  0.8065  0.3179 -1.9486
16110TIP3    H269746   0.136   4.145  16.515 -0.7187  1.2849 -1.8426
16111TIP3   OH269747   4.217   1.477  14.662  0.2176  0.0171  0.3799
16111TIP3    H169748   4.127   1.444  14.663  0.8997 -1.9927  1.0627
16111TIP3    H269749   4.234   1.503  14.752  0.3993  0.1409  0.3110
16112TIP3   OH269750   1.788   0.027  12.467 -0.2310  0.1914 -0.4738
16112TIP3    H169751   1.821   0.011  12.379  0.0831  1.0495 -0.5174
16112TIP3    H269752   1.759   0.118  12.466  1.1795  0.6933  0.7325
16113TIP3   OH269753   4.136   4.879   4.184 -0.2363 -0.0884  0.0874
16113TIP3    H169754   4.110   4.951   4.126 -1.2783 -1.2141 -0.9094
16113TIP3    H269755   4.087   4.894   4.265 -1.2837 -0.2143 -0.4927
16114TIP3   OH269756   1.861   2.080  16.566  0.5635 -0.3881 -0.5285
16114TIP3    H169757   1.917   2.025  16.512  1.6701  0.0961  0.0980
16114TIP3    H269758   1.864   2.040  16.653  0.2505 -0.1346 -0.3997
16115TIP3   OH269759   0.494   2.383  12.559 -0.5263  0.1711  0.2690
16115TIP3    H169760   0.537   2.437  12.625  0.8431  0.9743 -1.2097
16115TIP3    H269761   0.442   2.444  12.507 -0.5510 -0.2200 -0.1790
16116TIP3   OH269762   3.691   6.041  12.017  0.1114 -0.3340 -0.1321
16116TIP3    H169763   3.781   6.010  12.012 -0.0669 -0.6237 -2.3860
16116TIP3    H269764   3.692   6.126  11.974 -0.4976  0.2248  0.9051
16117TIP3   OH269765   4.100   3.212  14.490  0.2550 -0.1889 -0.1422
16117TIP3    H169766   4.183   3.184  14.528  0.8236 -0.7228 -1.7133
16117TIP3    H269767   4.052   3.249  14.564  0.8774 -2.1272  1.3142
16118TIP3   OH269768   0.163   5.285   3.398  0.4941  0.3308  0.1579
16118TIP3    H169769   0.188   5.335   3.320 -0.6134  0.6249 -0.0282
16118TIP3    H269770   0.237   5.226   3.414  0.3315 -0.4381 -1.7010
16119TIP3   OH269771   3.515   1.164   2.304 -0.4941 -0.6614  0.3701
16119TIP3    H169772   3.493   1.219   2.380  1.1688  1.3573 -0.5167
16119TIP3    H269773   3.603   1.131   2.324 -0.3668 -0.7541 -0.3426
16120TIP3   OH269774   0.888   4.245  15.089  0.1969 -0.0965 -0.1969
16120TIP3    H169775   0.920   4.200  15.167 -1.4026 -2.2622 -0.6915
16120TIP3    H269776   0.841   4.321  15.123  2.3186  0.8834  0.7107
16121TIP3   OH269777   0.548   6.355   4.216 -0.6795  0.2789 -0.5630
16121TIP3    H169778   0.602   6.333   4.292  1.6264  0.5873 -2.0180
16121TIP3    H269779   0.591   6.431   4.177 -0.6729 -0.9324 -3.1632
16122TIP3   OH269780   4.661   3.026   0.230  0.3464  0.5740  0.0409
16122TIP3    H169781   4.648   3.118   0.252 -0.7436  0.5023 -0.2548
16122TIP3    H269782   4.745   3.004   0.269 -0.0308  1.3071  1.3280
16123TIP3   OH269783   1.166   5.355   2.963  0.0030  0.3157  0.1481
16123TIP3    H169784   1.227   5.378   3.034  0.8581 -0.2299 -0.3903
16123TIP3    H269785   1.195   5.269   2.933 -1.8322 -0.5547  0.7137
16124TIP3   OH269786   1.020   2.301   0.473 -0.2174 -0.2455 -0.6715
16124TIP3    H169787   0.981   2.271   0.391  0.0392 -0.9130 -0.5578
16124TIP3    H269788   0.946   2.323   0.528 -0.4369 -1.2035 -0.5686
16125TIP3   OH269789   3.512   1.986   2.197 -0.4615  0.3043 -0.1848
16125TIP3    H169790   3.518   1.991   2.101 -1.4425  1.7067 -0.2017
16125TIP3    H269791   3.598   2.013   2.228 -0.0604 -0.3906 -0.6582
16126TIP3   OH269792   3.707   1.406  13.396 -0.0154 -0.2658 -0.2174
16126TIP3    H169793   3.651   1.475  13.430 -1.4973 -1.3964 -0.2330
16126TIP3    H269794   3.727   1.351  13.472 -0.0326 -0.5989 -0.4490
16127TIP3   OH269795   5.066   5.789  16.308 -0.2332 -0.2615  0.1653
16127TIP3    H169796   4.999   5.849  16.275 -0.0783 -0.3897 -0.4025
16127TIP3    H269797   5.127   5.780  16.235  1.1287  0.8898  1.0803
16128TIP3   OH269798   6.623   0.100   6.379 -0.0279 -0.5049  0.3732
16128TIP3    H169799   6.636   0.132   6.290 -0.0892  0.1456  0.5896
16128TIP3    H269800   6.642   0.176   6.434 -0.8464 -0.6527  0.8726
16129TIP3   OH269801   6.722   2.196  16.788  0.1067 -0.3216 -0.1280
16129TIP3    H169802   6.736   2.268  16.850 -1.8126  1.7584 -1.9010
16129TIP3    H269803   6.797   2.202  16.728 -0.1491  0.3891 -0.3905
16130TIP3   OH269804   5.355   6.522   6.186  0.0267  0.4962 -0.1307
16130TIP3    H169805   5.265   6.497   6.203  0.1610  0.7197  0.9348
16130TIP3    H269806   5.385   6.563   6.267  1.3715 -0.3878 -0.1526
16131TIP3   OH269807   2.474   0.100   4.437 -0.3820  0.3741 -0.0733
16131TIP3    H169808   2.381   0.081   4.426 -0.9182  2.0279  1.1337
16131TIP3    H269809   2.503   0.130   4.351 -1.3450  1.2716 -0.0955
16132TIP3   OH269810   2.841   6.445  12.471 -0.2874  0.1848 -0.6681
16132TIP3    H169811   2.825   6.470  12.380 -0.6778  0.0460 -0.6358
16132TIP3    H269812   2.937   6.439  12.477 -0.2819 -0.3687 -1.2229
16133TIP3   OH269813   1.458   2.954  12.520  0.4120  0.1319  0.1392
16133TIP3    H169814   1.410   3.035  12.535 -0.0550  0.0512 -0.8478
16133TIP3    H269815   1.429   2.924  12.434 -1.2769 -2.3710  1.4773
16134TIP3   OH269816   6.578   1.614  12.352 -0.5159 -0.2628 -0.7385
16134TIP3    H169817   6.635   1.690  12.352 -1.2782  0.5750  3.2822
16134TIP3    H269818   6.494   1.647  12.384 -0.4069 -2.8459  2.9290
16135TIP3   OH269819   4.599   0.387   5.758 -0.4210  0.6721 -0.0173
16135TIP3    H169820   4.579   0.478   5.738 -1.2772  0.9741  1.9888
16135TIP3    H269821   4.543   0.366   5.833  0.5555 -1.1616  0.2548
16136TIP3   OH269822   4.267   1.547  14.937  0.0399 -0.0971 -0.1192
16136TIP3    H169823   4.340   1.519  14.992  0.9052  1.3742 -0.4759
16136TIP3    H269824   4.213   1.602  14.994 -1.1230 -1.6013  0.2990
16137TIP3   OH269825   0.829   5.288   2.534 -0.3242  0.1202 -0.4214
16137TIP3    H169826   0.764   5.340   2.582  0.0993  0.9053 -0.6736
16137TIP3    H269827   0.839   5.208   2.585 -1.5106 -0.0260 -0.4025
16138TIP3   OH269828   3.182   3.662   2.792  0.2373  0.2076 -0.2418
16138TIP3    H169829   3.143   3.642   2.877 -1.7040 -0.0725 -1.1491
16138TIP3    H269830   3.149   3.595   2.733  1.4580  0.4610 -1.2663
16139TIP3   OH269831   5.070   5.351   4.063  0.3369  0.2467  0.0087
16139TIP3    H169832   5.087   5.368   3.970 -0.4938  0.6580 -0.0766
16139TIP3    H269833   5.098   5.431   4.107  1.3267 -0.1825  0.2027
16140TIP3   OH269834   0.271   2.508  13.150 -0.0607 -0.4662 -0.1296
16140TIP3    H169835   0.282   2.422  13.109 -2.4242 -0.4995 -0.8604
16140TIP3    H269836   0.177   2.513  13.169  0.3831  1.0579  2.0130
16141TIP3   OH269837   2.354   5.066  14.078  0.6476 -0.0230  0.0932
16141TIP3    H169838   2.267   5.104  14.070  0.4384 -0.6763 -0.9537
16141TIP3    H269839   2.339   4.971  14.080  1.3001 -0.1261  0.2972
16142TIP3   OH269840   3.679   3.851   3.876 -0.4670  0.3001  0.2433
16142TIP3    H169841   3.693   3.861   3.782  1.1206 -0.5746  0.3383
16142TIP3    H269842   3.650   3.761   3.887  2.3775 -0.6816  0.7679
16143TIP3   OH269843   3.677   5.565  14.413  0.0886 -0.3427 -0.4826
16143TIP3    H169844   3.603   5.554  14.473 -0.6061 -0.3128 -1.3047
16143TIP3    H269845   3.731   5.633  14.454 -2.1235  2.2166 -1.4598
16144TIP3   OH269846   4.160   2.773  15.635  0.1028 -0.8527 -0.7046
16144TIP3    H169847   4.066   2.774  15.655 -0.0768  4.5867 -0.4192
16144TIP3    H269848   4.165   2.747  15.543 -1.2275 -4.0507 -0.0099
16145TIP3   OH269849   2.143   0.438  16.946  0.0337 -0.0574 -0.0837
16145TIP3    H169850   2.186   0.394  16.873 -1.8812 -2.1297 -0.0620
16145TIP3    H269851   2.173   0.390  17.024 -0.6890 -0.2019  0.1160
16146TIP3   OH269852   4.968   6.366  15.912 -0.5574 -0.3238 -0.4331
16146TIP3    H169853   5.001   6.454  15.932  0.2213 -0.5856 -0.5181
16146TIP3    H269854   4.991   6.352  15.820  1.8583 -1.6703  0.2882
16147TIP3   OH269855   4.564   3.007  16.645 -0.2994  0.2495 -0.4295
16147TIP3    H169856   4.493   2.950  16.614  0.1259  1.3099 -3.6734
16147TIP3    H269857   4.640   2.981  16.593  0.5082  2.2234 -0.3024
16148TIP3   OH269858   1.336   5.546  13.853  0.4844  0.3750  0.6749
16148TIP3    H169859   1.406   5.544  13.787  0.8594 -0.5094  1.0918
16148TIP3    H269860   1.381   5.564  13.935 -0.0781  2.3634  0.6054
16149TIP3   OH269861   0.597   5.430   0.094  0.6693 -0.4287  0.2421
16149TIP3    H169862   0.563   5.503   0.146  1.2079 -0.8185  1.1801
16149TIP3    H269863   0.681   5.408   0.135  0.1365 -2.1070  0.5342
16150TIP3   OH269864   5.542   5.584   1.353  0.5125 -0.5421 -0.2808
16150TIP3    H169865   5.596   5.645   1.403 -0.8849 -0.6930  1.5045
16150TIP3    H269866   5.551   5.500   1.398 -0.5726 -0.7502 -0.4131
16151TIP3   OH269867   1.455   5.207   4.562 -0.4621  0.3881 -0.5587
16151TIP3    H169868   1.399   5.277   4.594 -0.6618  0.0306 -0.1141
16151TIP3    H269869   1.487   5.238   4.477  0.5126  1.5822  0.2181
16152TIP3   OH269870   2.180   1.337   4.326 -0.4239  0.0277 -0.1496
16152TIP3    H169871   2.121   1.391   4.377  0.1627  0.2519  0.3028
16152TIP3    H269872   2.146   1.248   4.336 -0.2092  0.0395  0.7960
16153TIP3   OH269873   5.667   0.223  16.666  0.0464  0.0016  0.5659
16153TIP3    H169874   5.592   0.255  16.617  1.5239  2.2474 -0.3751
16153TIP3    H269875   5.743   0.254  16.618  1.6978 -3.3048  0.7194
16154TIP3   OH269876   2.383   1.266  12.275  0.0942  0.6395  0.1981
16154TIP3    H169877   2.472   1.290  12.247  0.0473 -0.1984 -0.7131
16154TIP3    H269878   2.376   1.300  12.364  0.6948  2.2999 -0.3518
16155TIP3   OH269879   1.674   2.515   3.772 -0.7092 -0.6340  0.2552
16155TIP3    H169880   1.600   2.575   3.781  0.2054  0.5818 -0.0540
16155TIP3    H269881   1.647   2.454   3.703 -1.2115  0.1376 -0.2476
16156TIP3   OH269882   2.625   3.813  13.200  0.0211  0.5007 -0.1737
16156TIP3    H169883   2.551   3.753  13.199 -0.3763  0.9453  1.1525
16156TIP3    H269884   2.686   3.777  13.136 -0.7115 -0.6676 -0.2326
16157TIP3   OH269885   4.513   4.044  16.006 -0.0643 -0.2296 -0.6678
16157TIP3    H169886   4.467   4.082  16.080 -0.2312 -2.6930  0.5684
16157TIP3    H269887   4.593   4.007  16.043  0.1141 -1.0333 -1.7987
16158TIP3   OH269888   6.745   2.445  13.628 -0.4451  0.2858 -0.5007
16158TIP3    H169889   6.751   2.454  13.723 -1.6245  1.2308 -0.4821
16158TIP3    H269890   6.659   2.407  13.612  0.0113 -0.4963 -1.1716
16159TIP3   OH269891   0.984   2.031  12.689 -0.1792  0.2962  0.4885
16159TIP3    H169892   0.961   2.121  12.664 -0.6288  0.0299 -0.0543
16159TIP3    H269893   0.902   1.992  12.716 -0.2492 -0.4237 -0.7341
16160TIP3   OH269894   4.061   0.279   3.585  0.0814  0.5004  0.1014
16160TIP3    H169895   4.062   0.337   3.509 -0.5645 -1.0215 -1.1391
16160TIP3    H269896   4.153   0.269   3.608  0.3763  0.2924 -1.0683
16161TIP3   OH269897   6.560   4.654  14.467  0.3472  0.5103  0.3338
16161TIP3    H169898   6.493   4.586  14.455  0.1141  0.8375 -0.2689
16161TIP3    H269899   6.575   4.688  14.378  3.0272 -1.1641  0.0166
16162TIP3   OH269900   0.382   4.801  15.224 -0.8482 -0.3742 -0.2428
16162TIP3    H169901   0.326   4.810  15.147 -1.1386 -1.5312 -0.1876
16162TIP3    H269902   0.349   4.867  15.285  0.5291  1.7931 -1.7216
16163TIP3   OH269903   1.307   4.052   0.494  0.1007  0.2627 -0.0678
16163TIP3    H169904   1.306   3.960   0.467  1.9989  0.7023 -1.8762
16163TIP3    H269905   1.217   4.082   0.478 -0.7099 -1.3665  1.0737
16164TIP3   OH269906   2.876   0.233  14.543 -1.1879 -0.5767 -0.2900
16164TIP3    H169907   2.895   0.142  14.563 -0.8705 -0.0645  2.0581
16164TIP3    H269908   2.834   0.267  14.623  0.9115  1.9455 -0.1339
16165TIP3   OH269909   3.929   1.886   1.553 -0.6041  0.1509  0.1303
16165TIP3    H169910   3.900   1.977   1.551 -0.8331  0.1544  1.8276
16165TIP3    H269911   3.985   1.880   1.631  0.0493 -0.9825 -0.3970
16166TIP3   OH269912   0.284   5.845   0.567  0.0565 -0.6408 -0.2942
16166TIP3    H169913   0.379   5.843   0.561  0.1767 -4.9515 -0.0899
16166TIP3    H269914   0.266   5.851   0.661 -0.0294  1.7555 -0.4004
16167TIP3   OH269915   2.398   1.285   2.361 -0.1671  0.3664  0.2306
16167TIP3    H169916   2.488   1.279   2.330 -0.4342  0.9219 -0.6952
16167TIP3    H269917   2.371   1.194   2.375 -0.2588  0.0350 -1.8780
16168TIP3   OH269918   1.974   3.512   3.525  0.4427  0.0613 -0.1781
16168TIP3    H169919   2.065   3.491   3.546  0.4169  0.1920  0.0651
16168TIP3    H269920   1.942   3.435   3.478  0.3233 -0.5115  0.7991
16169TIP3   OH269921   4.948   5.888   3.686  0.1432  0.0401  0.1429
16169TIP3    H169922   4.889   5.817   3.660  1.1351  0.0156 -2.4099
16169TIP3    H269923   4.890   5.957   3.717 -0.8620 -1.7900  2.7167
16170TIP3   OH269924   2.962   4.781   3.457  0.6537 -0.3667 -0.2657
16170TIP3    H169925   2.890   4.792   3.519 -0.0047 -0.7404 -0.9462
16170TIP3    H269926   2.992   4.870   3.438 -0.5973 -0.1036 -1.0895
16171TIP3   OH269927   4.266   3.861   2.150 -0.5529 -0.0566  0.2990
16171TIP3    H169928   4.199   3.894   2.091  1.0929 -0.2679 -1.7836
16171TIP3    H269929   4.347   3.903   2.121  0.9214 -2.7868  0.1555
16172TIP3   OH269930   5.250   5.905   1.956 -0.2622  0.1051 -0.1574
16172TIP3    H169931   5.313   5.835   1.941  0.4740  0.8205 -0.4430
16172TIP3    H269932   5.179   5.863   2.006  0.4131 -0.7140  0.1337
16173TIP3   OH269933   5.459   6.487   2.154 -0.2271 -0.3156  0.1297
16173TIP3    H169934   5.490   6.396   2.156 -0.8617 -0.5461 -0.3391
16173TIP3    H269935   5.456   6.513   2.246  2.1119 -0.0128  0.1870
16174TIP3   OH269936   4.494   3.018   5.391 -0.3455 -0.6294  0.6049
16174TIP3    H169937   4.411   2.976   5.368 -1.0733  0.9265  0.2634
16174TIP3    H269938   4.473   3.075   5.465  0.5292 -0.5351  0.7948
16175TIP3   OH269939   2.573   3.955  13.669  0.4030  0.6520 -0.3850
16175TIP3    H169940   2.509   4.013  13.627 -0.0037  0.1339 -0.4954
16175TIP3    H269941   2.529   3.925  13.749  0.3995  0.0826 -0.5941
16176TIP3   OH269942   6.679   1.305   4.601 -0.2944 -0.2559 -0.3190
16176TIP3    H169943   6.745   1.259   4.654  0.1476  0.2219 -0.4430
16176TIP3    H269944   6.667   1.389   4.646 -2.5639 -1.2337  1.0348
16177TIP3   OH269945   5.243   0.109  16.507  0.6629  1.0317 -0.3819
16177TIP3    H169946   5.256   0.132  16.415 -0.2368 -1.4290 -1.1937
16177TIP3    H269947   5.152   0.136  16.525  0.6752  1.0574 -0.3604
16178TIP3   OH269948   6.580   1.702   1.018  0.7595  0.7108 -0.0081
16178TIP3    H169949   6.666   1.716   0.979  0.6948  0.0711 -0.3970
16178TIP3    H269950   6.595   1.635   1.085  0.4035 -0.1075 -0.7266
16179TIP3   OH269951   6.258   0.220   4.049  0.4904 -0.2283 -0.4385
16179TIP3    H169952   6.329   0.276   4.081  0.4348 -0.9403  1.0098
16179TIP3    H269953   6.301   0.155   3.994  1.0076 -0.7705  0.5824
16180TIP3   OH269954   5.393   2.877  13.711  0.4678  0.4530  0.9399
16180TIP3    H169955   5.404   2.965  13.749  0.7349  1.2725 -0.9421
16180TIP3    H269956   5.340   2.831  13.775 -3.3025  3.2858  0.2028
16181TIP3   OH269957   2.928   3.122   0.368  0.0810 -0.1001  0.0587
16181TIP3    H169958   2.877   3.176   0.428  0.4758  2.7496 -1.9432
16181TIP3    H269959   2.999   3.085   0.422  0.5605  2.4948  1.3624
16182TIP3   OH269960   2.470   5.591   1.144  0.3827 -0.3674 -0.1109
16182TIP3    H169961   2.427   5.517   1.101 -1.2205  0.5863 -0.2414
16182TIP3    H269962   2.482   5.563   1.234 -1.6839 -0.2564  0.2468
16183TIP3   OH269963   5.823   4.298  10.409 -0.6293 -0.2172  0.1196
16183TIP3    H169964   5.762   4.229  10.384 -0.2720 -0.0731 -1.1901
16183TIP3    H269965   5.795   4.374  10.358 -0.0009  0.1405  0.3018
16184TIP3   OH269966   3.739   2.325   4.244 -0.5429 -0.9186  0.1098
16184TIP3    H169967   3.782   2.407   4.218  1.4489 -2.0110 -0.2067
16184TIP3    H269968   3.646   2.341   4.228 -0.1932  1.2267 -0.0823
16185TIP3   OH269969   3.521   4.659   0.113  0.3609  0.1777 -0.1835
16185TIP3    H169970   3.488   4.661   0.203  0.4196  2.6337 -0.1574
16185TIP3    H269971   3.577   4.736   0.106 -1.2110  1.1990 -2.8725
16186TIP3   OH269972   2.683   2.217   2.238  0.0703 -0.6321 -0.4904
16186TIP3    H169973   2.591   2.232   2.215  0.0910  0.6642  0.1684
16186TIP3    H269974   2.715   2.159   2.169 -0.7225  0.5268 -1.9272
16187TIP3   OH269975   1.429   6.723  13.237  0.7216  0.6074  0.4254
16187TIP3    H169976   1.521   6.750  13.227  0.3640  1.0384 -2.3516
16187TIP3    H269977   1.380   6.805  13.237  0.1835  0.3050 -0.6226
16188TIP3   OH269978   6.569   1.599  14.501  0.0621 -0.3895  0.5272
16188TIP3    H169979   6.496   1.607  14.563 -0.1359 -2.7762  0.6885
16188TIP3    H269980   6.554   1.515  14.457  1.7372 -0.0681 -0.7542
16189TIP3   OH269981   3.250   2.188  17.102 -0.4529 -0.6340 -0.3721
16189TIP3    H169982   3.205   2.215  17.182  0.6760 -0.1671  0.1291
16189TIP3    H269983   3.201   2.112  17.071  0.5022 -2.3919  2.1416
16190TIP3   OH269984   4.557   0.436   0.274 -0.3824 -0.5848 -0.2809
16190TIP3    H169985   4.544   0.349   0.311 -0.5800 -0.6084 -0.4039
16190TIP3    H269986   4.483   0.448   0.214 -1.2272  0.2728  0.8688
16191TIP3   OH269987   0.231   0.415   1.083  0.0004 -0.0669 -0.2050
16191TIP3    H169988   0.217   0.364   1.163  1.1131 -0.0468  0.0250
16191TIP3    H269989   0.177   0.372   1.017 -0.0802 -0.7570  0.2980
16192TIP3   OH269990   0.817   4.011   1.656  0.1890 -0.5765 -0.3731
16192TIP3    H169991   0.727   3.997   1.628  0.1211 -0.6104 -0.1329
16192TIP3    H269992   0.869   3.962   1.592  0.0011 -1.1559 -0.0899
16193TIP3   OH269993   0.967   0.870   1.962  0.2475  0.3085  0.3749
16193TIP3    H169994   1.063   0.872   1.963  0.3592  0.9506 -2.6991
16193TIP3    H269995   0.944   0.808   1.893 -1.4975  1.6054 -0.2883
16194TIP3   OH269996   1.157   1.154  16.144  0.1733 -0.4282  0.2597
16194TIP3    H169997   1.231   1.117  16.192  0.9708  0.9794  0.1651
16194TIP3    H269998   1.088   1.165  16.210  0.8829  0.4630  0.8655
16195TIP3   OH269999   0.294   4.285   4.732 -0.1603  0.2566 -0.1335
16195TIP3    H170000   0.349   4.339   4.674 -1.6244  1.2005 -0.7169
16195TIP3    H270001   0.339   4.287   4.816  0.7551  0.9010 -0.6143
16196TIP3   OH270002   5.696   5.080  12.439  0.1352  0.1144  0.5614
16196TIP3    H170003   5.762   5.021  12.400  1.3618  1.0130  1.1955
16196TIP3    H270004   5.704   5.161  12.390 -1.1536 -0.0501  0.0608
16197TIP3   OH270005   1.142   3.467  11.370 -0.1278 -0.5858  0.1531
16197TIP3    H170006   1.176   3.377  11.369  0.7439 -0.2614 -0.7898
16197TIP3    H270007   1.089   3.473  11.290  0.8120  0.0894 -0.4416
16198TIP3   OH270008   5.905   4.412   1.256 -0.1694  0.5914 -0.2750
16198TIP3    H170009   5.909   4.496   1.210 -1.2239 -0.0383 -1.5589
16198TIP3    H270010   5.843   4.427   1.327  0.4708  1.1866  0.1808
16199TIP3   OH270011   5.328   5.074  12.554  0.1790 -0.7734 -0.8606
16199TIP3    H170012   5.252   5.020  12.532 -1.2658  0.9633 -0.4209
16199TIP3    H270013   5.300   5.163  12.532  2.3824 -0.1561 -1.3795
16200TIP3   OH270014   5.457   0.548  16.751  0.0036 -0.6232  0.6345
16200TIP3    H170015   5.517   0.509  16.815 -0.4514 -1.1746  0.7340
16200TIP3    H270016   5.509   0.615  16.708  0.1807  0.0813  1.9067
16201TIP3   OH270017   3.964   0.571  12.858  0.1703 -0.1831 -0.6922
16201TIP3    H170018   3.980   0.521  12.778 -2.1167 -2.6177  0.2269
16201TIP3    H270019   4.020   0.529  12.924 -1.0635 -1.0314 -0.1324
16202TIP3   OH270020   4.445   2.876  15.645  0.6479 -0.4452  0.7892
16202TIP3    H170021   4.382   2.940  15.680  0.0723 -1.2457  1.2586
16202TIP3    H270022   4.406   2.847  15.563  0.4983 -0.8103  0.9911
16203TIP3   OH270023   0.618   0.666   5.040  0.3973 -0.4927  0.3593
16203TIP3    H170024   0.663   0.585   5.064 -0.2958 -1.0558 -0.1773
16203TIP3    H270025   0.525   0.647   5.056  0.3358  0.6497  1.4669
16204TIP3   OH270026   1.042   4.457  14.934 -0.9580  0.4531 -0.3056
16204TIP3    H170027   1.012   4.367  14.952 -1.8787  0.7898 -0.0893
16204TIP3    H270028   1.060   4.457  14.840  1.1415 -0.5408  0.0472
16205TIP3   OH270029   1.423   0.144   0.425 -0.1967  0.2550 -0.0499
16205TIP3    H170030   1.511   0.111   0.444 -0.4259 -0.5950 -0.4558
16205TIP3    H270031   1.410   0.213   0.490  0.2763 -0.4650  0.8312
16206TIP3   OH270032   0.518   5.494   1.051  0.1681  0.3985 -0.1712
16206TIP3    H170033   0.604   5.529   1.031  0.4794 -0.5530 -0.5663
16206TIP3    H270034   0.527   5.455   1.138  0.0402  0.5897 -0.0703
16207TIP3   OH270035   2.229   4.868  16.413  0.2181 -0.1251 -0.5759
16207TIP3    H170036   2.293   4.905  16.352  1.0936  0.3146  0.5711
16207TIP3    H270037   2.257   4.776  16.423  0.3237 -0.0877 -0.5227
16208TIP3   OH270038   0.913   3.052   5.972  0.2406  0.1774  0.4642
16208TIP3    H170039   0.971   3.076   5.900  0.7037  2.0889  1.4096
16208TIP3    H270040   0.972   3.034   6.045 -0.2350 -1.4627  0.4860
16209TIP3   OH270041   2.525   2.343   0.735 -0.0627 -0.3766  0.3596
16209TIP3    H170042   2.500   2.415   0.677 -2.1797 -1.0879  0.3273
16209TIP3    H270043   2.547   2.385   0.818  2.2659  0.5815 -0.6521
16210TIP3   OH270044   0.724   3.171   4.334 -0.0664 -0.2450  0.9340
16210TIP3    H170045   0.641   3.219   4.341 -0.7727 -1.4272  0.8312
16210TIP3    H270046   0.726   3.114   4.411  0.4667 -0.5105  0.7289
16211TIP3   OH270047   6.028   6.282   5.669 -0.0553 -0.6098 -0.7153
16211TIP3    H170048   5.976   6.223   5.614 -0.9990  1.1212 -1.7591
16211TIP3    H270049   6.111   6.292   5.622 -0.3243 -0.2358 -1.1142
16212TIP3   OH270050   6.704   4.982   2.988 -0.0698  0.4318 -0.2383
16212TIP3    H170051   6.708   4.987   2.893  0.3513 -1.5528 -0.3615
16212TIP3    H270052   6.746   5.062   3.018  0.9538  0.4899 -1.7256
16213TIP3   OH270053   0.439   4.971   4.366  0.1785 -0.1206  0.5508
16213TIP3    H170054   0.482   5.040   4.315  1.2975 -0.6484  0.7644
16213TIP3    H270055   0.495   4.895   4.355 -0.4832 -0.7099  1.1916
16214TIP3   OH270056   6.112   3.167  14.842  0.4781  0.5709 -0.1596
16214TIP3    H170057   6.179   3.156  14.774  0.0329  1.0014 -0.6774
16214TIP3    H270058   6.162   3.175  14.923  0.9516 -2.0117 -0.1205
16215TIP3   OH270059   4.164   5.706   1.312  0.2911  0.3025 -0.1490
16215TIP3    H170060   4.251   5.678   1.340  0.0602 -0.5003 -0.2210
16215TIP3    H270061   4.104   5.653   1.364 -0.1764  1.4303  0.5004
16216TIP3   OH270062   0.128   2.119   0.513  0.1555 -0.8646  0.5271
16216TIP3    H170063   0.148   2.159   0.428  0.7878 -0.0757  1.0381
16216TIP3    H270064   0.042   2.079   0.500 -0.1756  0.0441 -0.2170
16217TIP3   OH270065   3.142   6.409   0.022 -0.0768 -0.9955 -0.3815
16217TIP3    H170066   3.128   6.315   0.016 -0.6734 -0.8164 -3.1242
16217TIP3    H270067   3.221   6.425  -0.030  0.3219 -0.0372  0.4901
16218TIP3   OH270068   6.165   4.445  13.229  0.1726 -0.7759  0.2839
16218TIP3    H170069   6.223   4.514  13.196 -0.9009  1.4410  2.6805
16218TIP3    H270070   6.079   4.467  13.193 -0.4299  0.0034  2.0525
16219TIP3   OH270071   2.246   5.813   1.541 -0.3430 -0.7408  0.4191
16219TIP3    H170072   2.245   5.821   1.637 -1.0969  0.3208  0.3392
16219TIP3    H270073   2.338   5.801   1.519  0.1186  1.1547  1.1311
16220TIP3   OH270074   6.048   2.132  14.296 -0.1549  0.4286  0.3819
16220TIP3    H170075   5.997   2.200  14.340  1.4236  1.4999  0.6295
16220TIP3    H270076   6.072   2.170  14.211  0.8020  0.2434  0.5532
16221TIP3   OH270077   0.436   3.024  14.491 -0.5771  0.5106  0.1137
16221TIP3    H170078   0.500   3.031  14.562  0.2722 -1.4178 -0.3883
16221TIP3    H270079   0.433   3.111  14.453  4.6085  0.1107 -2.1489
16222TIP3   OH270080   5.182   0.196  15.747 -0.1935  0.6623 -0.2543
16222TIP3    H170081   5.239   0.126  15.780 -0.3886 -0.4543 -2.2033
16222TIP3    H270082   5.243   0.261  15.711 -0.0422  1.2788  1.0328
16223TIP3   OH270083   1.046   2.147  12.962  0.4104  0.0865  0.0676
16223TIP3    H170084   1.129   2.121  13.001 -0.2655 -2.0821  0.1865
16223TIP3    H270085   1.052   2.118  12.871  0.1912  0.8903 -0.2071
16224TIP3   OH270086   2.642   3.407   0.442  0.2104  0.2180  0.2127
16224TIP3    H170087   2.623   3.434   0.352 -1.0612  1.2903  0.7649
16224TIP3    H270088   2.560   3.368   0.473  0.2411  0.9565  1.2828
16225TIP3   OH270089   1.041   4.076   2.626  0.4525 -0.3994  0.6720
16225TIP3    H170090   1.049   4.102   2.718 -0.4985 -0.1393  0.6902
16225TIP3    H270091   0.963   4.122   2.595  1.1805  0.1041 -0.4761
16226TIP3   OH270092   5.436   5.655  12.003  0.1097  0.2062 -0.0058
16226TIP3    H170093   5.415   5.735  11.956 -0.3561  0.6680  0.9447
16226TIP3    H270094   5.440   5.682  12.095 -2.6062 -1.2787  0.6762
16227TIP3   OH270095   0.001   3.208   1.683  0.0731 -0.2111 -0.3254
16227TIP3    H170096  -0.034   3.128   1.722 -1.1940  1.3268  1.9007
16227TIP3    H270097   0.069   3.237   1.744 -0.8812  1.4427 -0.0002
16228TIP3   OH270098   6.540   1.534  13.209  0.1675 -0.8915  0.0313
16228TIP3    H170099   6.473   1.577  13.261 -0.3613 -1.3392 -0.2690
16228TIP3    H270100   6.498   1.455  13.175  0.5139 -0.6538 -1.0097
16229TIP3   OH270101   5.984   6.375  10.223 -0.4600  0.0262 -0.4024
16229TIP3    H170102   5.963   6.455  10.272  1.8296 -0.0582  0.8500
16229TIP3    H270103   5.944   6.305  10.274 -1.1887  0.2176 -0.6896
16230TIP3   OH270104   3.288   1.166   3.594 -0.1820  0.1116 -0.2718
16230TIP3    H170105   3.364   1.155   3.538  0.0682 -0.9310  0.2413
16230TIP3    H270106   3.227   1.098   3.567 -0.4431  0.1861  0.1059
16231TIP3   OH270107   3.067   2.261  11.205 -0.1876  0.5080 -0.5183
16231TIP3    H170108   3.072   2.274  11.300 -2.1991  1.5132 -0.4815
16231TIP3    H270109   2.978   2.228  11.191 -0.3908  1.6434 -2.1527
16232TIP3   OH270110   3.741   6.470   0.879  0.3102  0.0867 -0.1084
16232TIP3    H170111   3.736   6.510   0.966 -0.5240  0.3143 -0.2485
16232TIP3    H270112   3.819   6.508   0.840  1.1980 -0.6829  0.8587
16233TIP3   OH270113   3.777   1.585   6.531 -0.0157 -0.1278  0.2178
16233TIP3    H170114   3.847   1.520   6.524  1.1611  1.1536 -0.4267
16233TIP3    H270115   3.720   1.567   6.457 -0.1885 -0.9587  0.5436
16234TIP3   OH270116   0.450   6.125  12.972 -0.7674 -0.0432  0.1777
16234TIP3    H170117   0.460   6.031  12.989 -0.8826  0.0851  0.9929
16234TIP3    H270118   0.540   6.155  12.958 -0.7794 -0.3737 -0.6841
16235TIP3   OH270119   4.774   2.654  15.181  0.4005 -0.1218 -0.0925
16235TIP3    H170120   4.829   2.713  15.129 -0.2706  1.0786  0.5267
16235TIP3    H270121   4.784   2.683  15.271  0.2019 -1.0902  0.2621
16236TIP3   OH270122   3.874   6.111  11.393  0.2368  0.1678 -0.0091
16236TIP3    H170123   3.961   6.137  11.424  0.3189  0.1908 -0.2587
16236TIP3    H270124   3.871   6.141  11.302  0.5979 -1.3269 -0.5356
16237TIP3   OH270125   5.251   5.125   4.308  0.4005  0.3502 -0.0339
16237TIP3    H170126   5.254   5.036   4.342  0.7712  0.7299  0.9827
16237TIP3    H270127   5.260   5.116   4.213  0.4457 -0.6861  0.0673
16238TIP3   OH270128   5.990   1.851  12.922 -0.0721  0.8612  0.2305
16238TIP3    H170129   5.959   1.815  12.838 -1.5025  1.0029  0.6627
16238TIP3    H270130   6.083   1.832  12.924 -0.5488 -1.9081 -0.0457
16239TIP3   OH270131   5.580   6.766   2.523 -0.6335 -0.2736 -0.5966
16239TIP3    H170132   5.518   6.834   2.550  0.1539  0.1556  0.1693
16239TIP3    H270133   5.664   6.811   2.517 -0.5041 -0.6869 -2.3474
16240TIP3   OH270134   6.418   4.233  11.259  0.2180  0.1999  0.0436
16240TIP3    H170135   6.497   4.269  11.299  0.5502  1.1330 -1.4070
16240TIP3    H270136   6.447   4.149  11.221  0.9151  1.1918 -1.7404
16241TIP3   OH270137   4.374   1.864   4.426  0.6765  0.4383  0.1451
16241TIP3    H170138   4.454   1.858   4.478 -0.4925  1.6497  2.2313
16241TIP3    H270139   4.362   1.776   4.390  2.3373 -0.0528  0.6962
16242TIP3   OH270140   0.333   4.622   0.468 -0.8608 -0.2931 -0.7259
16242TIP3    H170141   0.309   4.550   0.409 -1.8723  1.0066 -1.9733
16242TIP3    H270142   0.290   4.699   0.430  0.3295  1.0116  0.4743
16243TIP3   OH270143   4.090   6.198   0.544  0.2907  0.3561 -0.3508
16243TIP3    H170144   4.077   6.293   0.555  1.5848  0.4560  0.6186
16243TIP3    H270145   4.103   6.186   0.450  1.8008  1.4013 -0.3113
16244TIP3   OH270146   1.469   5.382   5.659  0.1764 -0.2905  0.4540
16244TIP3    H170147   1.410   5.423   5.721 -0.1786 -1.0294  0.6100
16244TIP3    H270148   1.444   5.290   5.658  1.1590 -0.5730  0.3385
16245TIP3   OH270149   1.909   5.094   4.859 -0.1948 -0.0426  0.0760
16245TIP3    H170150   1.968   5.024   4.886 -0.1552  0.1453  0.4902
16245TIP3    H270151   1.901   5.084   4.764  1.1626  0.4229 -0.1157
16246TIP3   OH270152   5.154   0.526   3.167  0.4299  0.7257  0.5069
16246TIP3    H170153   5.216   0.516   3.238  0.5921  1.4735  0.4732
16246TIP3    H270154   5.206   0.555   3.092 -0.0367  2.0289  0.6596
16247TIP3   OH270155   3.872   2.621  16.985 -0.5504  0.7914 -0.2898
16247TIP3    H170156   3.853   2.715  16.983  2.0965  1.3743 -0.9209
16247TIP3    H270157   3.949   2.612  17.042 -1.4838 -1.1993  0.8080
16248TIP3   OH270158   5.262   3.655  16.518  0.2032 -0.0084 -0.2576
16248TIP3    H170159   5.254   3.747  16.491  2.5332 -0.2389 -2.1037
16248TIP3    H270160   5.183   3.638  16.568  0.1196  3.2852  1.0237
16249TIP3   OH270161   6.646   4.318   2.124 -0.1936  0.7829 -0.6974
16249TIP3    H170162   6.638   4.256   2.051 -1.0153  0.1013 -0.0521
16249TIP3    H270163   6.725   4.369   2.104  0.8577 -0.8619 -0.9793
16250TIP3   OH270164   4.714   0.024  13.559 -0.5449  0.5118  0.1371
16250TIP3    H170165   4.672   0.104  13.589 -0.7368 -1.2067  5.4223
16250TIP3    H270166   4.808   0.041  13.568 -0.3530  1.1129 -2.1834
16251TIP3   OH270167   4.506   0.456  11.283  0.0639 -0.0927  0.0342
16251TIP3    H170168   4.520   0.548  11.260  3.8810 -0.6160 -0.4051
16251TIP3    H270169   4.532   0.408  11.204  0.0723 -1.5901  0.9208
16252TIP3   OH270170   3.836   5.303   3.964 -0.2341  0.0942  0.1328
16252TIP3    H170171   3.855   5.396   3.953 -1.2413  0.1599 -1.1408
16252TIP3    H270172   3.822   5.293   4.058 -0.5333  1.3061  0.2320
16253TIP3   OH270173   4.025   3.666  12.963  0.5912  0.1113  0.2127
16253TIP3    H170174   4.045   3.732  12.897 -3.8939  0.9652 -0.6193
16253TIP3    H270175   4.016   3.585  12.912 -0.3235  0.2472  0.1403
16254TIP3   OH270176   4.461   1.228   0.134 -0.4717 -0.3131 -0.7812
16254TIP3    H170177   4.541   1.249   0.085 -0.2088  1.6062  0.3633
16254TIP3    H270178   4.488   1.158   0.194  0.1731 -0.1368 -0.8524
16255TIP3   OH270179   4.037   3.362  11.349 -0.4868 -0.4569 -0.0916
16255TIP3    H170180   4.107   3.419  11.381  0.0494 -0.5820 -1.0140
16255TIP3    H270181   4.026   3.387  11.257 -1.5000 -0.6032 -0.0264
16256TIP3   OH270182   0.648   3.236  16.949 -0.0661 -0.6238  0.0276
16256TIP3    H170183   0.604   3.229  16.864 -1.1122  0.3045  0.4648
16256TIP3    H270184   0.680   3.326  16.952  0.0508 -0.6805  0.5778
16257TIP3   OH270185   0.675   2.464   1.373 -0.4859 -0.3887 -0.4668
16257TIP3    H170186   0.606   2.527   1.356 -0.6128 -0.6453 -0.9182
16257TIP3    H270187   0.735   2.473   1.299  0.6075  0.6713  0.5077
16258TIP3   OH270188   6.722   0.152   4.172  0.5369 -0.3332  0.0550
16258TIP3    H170189   6.758   0.133   4.258  1.4134 -1.7738 -0.5894
16258TIP3    H270190   6.652   0.087   4.160  1.6578 -1.4144 -1.0225
16259TIP3   OH270191   5.395   0.614   4.207  0.3832 -0.8862 -0.1649
16259TIP3    H170192   5.447   0.693   4.191 -0.0061 -0.5875  0.0456
16259TIP3    H270193   5.449   0.562   4.266  1.3056 -1.4580 -1.4665
16260TIP3   OH270194   0.743   6.245   3.883  0.3906  0.3242 -0.3749
16260TIP3    H170195   0.816   6.191   3.854 -1.4470 -1.2070 -2.5776
16260TIP3    H270196   0.695   6.188   3.944 -0.9481 -0.2104 -1.8521
16261TIP3   OH270197   2.648   3.296  13.107 -0.3854 -0.5481 -0.2043
16261TIP3    H170198   2.567   3.343  13.125 -0.5712 -1.1908  0.6772
16261TIP3    H270199   2.713   3.339  13.163 -0.2342 -0.4158 -0.4754
16262TIP3   OH270200   6.088   0.682   0.380 -0.1593  0.6420  0.1186
16262TIP3    H170201   6.128   0.768   0.366 -0.6495  0.6501 -1.3969
16262TIP3    H270202   6.157   0.631   0.423  0.9410  1.1157 -1.0224
16263TIP3   OH270203   0.365   6.218  15.747 -0.1736 -0.1798  0.2643
16263TIP3    H170204   0.323   6.304  15.741  0.2901  0.1620  1.5622
16263TIP3    H270205   0.367   6.186  15.657  0.6799  1.6820 -0.4344
16264TIP3   OH270206   3.377   1.951   5.674  0.0569  0.2455 -0.1052
16264TIP3    H170207   3.397   1.882   5.612  0.4786  0.8056 -0.6085
16264TIP3    H270208   3.441   2.020   5.655  0.2016  0.4294  0.9464
16265TIP3   OH270209   0.854   2.250  12.571 -0.0615 -0.4139  0.3721
16265TIP3    H170210   0.784   2.204  12.525 -0.5064  1.0873 -0.5226
16265TIP3    H270211   0.813   2.283  12.650  0.1932 -1.3059  0.8890
16266TIP3   OH270212   1.937   5.583   3.088  0.7527 -0.0429 -0.3883
16266TIP3    H170213   2.001   5.566   3.019  0.9867 -1.7821  0.2082
16266TIP3    H270214   1.854   5.597   3.042  1.0654 -0.3572 -1.0572
16267TIP3   OH270215   4.829   5.571  10.578 -0.2278  0.3715 -0.4240
16267TIP3    H170216   4.850   5.480  10.554 -2.0779  0.5640 -3.2471
16267TIP3    H270217   4.747   5.564  10.626  1.3810  0.3861  2.6227
16268TIP3   OH270218   5.992   1.768   5.823 -0.4347  0.6436 -0.0947
16268TIP3    H170219   5.940   1.750   5.745  0.0667 -1.0121 -0.0804
16268TIP3    H270220   5.938   1.735   5.895  0.6745 -1.2784 -0.0975
16269TIP3   OH270221   0.299   6.004  12.345 -0.3024 -0.6851 -0.4677
16269TIP3    H170222   0.230   6.045  12.293  0.0661  2.5201  1.2785
16269TIP3    H270223   0.267   6.007  12.435  1.7404  0.2832  0.3028
16270TIP3   OH270224   4.943   0.416  14.152 -0.0508 -0.0573 -0.2553
16270TIP3    H170225   4.970   0.324  14.146 -0.6786 -0.3220  0.7326
16270TIP3    H270226   4.896   0.433  14.070 -1.8180 -1.2814  0.4275
16271TIP3   OH270227   6.743   6.596   1.744  0.1591  0.7051 -0.3248
16271TIP3    H170228   6.725   6.512   1.703  0.2643  0.7612 -0.4883
16271TIP3    H270229   6.657   6.637   1.755  0.1214  0.6454 -0.3951
16272TIP3   OH270230   0.461   0.334   3.555 -0.0127  0.2682 -0.5441
16272TIP3    H170231   0.464   0.289   3.639 -1.0661  0.6560 -0.2771
16272TIP3    H270232   0.552   0.357   3.536  0.2370  0.1624  0.4844
16273TIP3   OH270233   5.010   5.447   2.770  0.3329  0.1216 -0.2975
16273TIP3    H170234   5.087   5.493   2.737  0.2500  1.4266  1.2446
16273TIP3    H270235   4.992   5.381   2.703  1.5646  1.1116 -1.6817
16274TIP3   OH270236   6.565   0.904   0.622 -0.2289  0.1566  0.5548
16274TIP3    H170237   6.483   0.872   0.659 -1.0574 -0.9795 -2.0654
16274TIP3    H270238   6.576   0.856   0.540  2.3794  1.2567  0.1407
16275TIP3   OH270239   1.908   6.063  14.801  0.2270  0.0442 -0.1200
16275TIP3    H170240   1.961   6.142  14.794 -0.3744  0.5140  0.5319
16275TIP3    H270241   1.942   6.005  14.732  1.8482  0.1701  0.5316
16276TIP3   OH270242   1.320   6.254  11.345  0.0293 -0.2686  0.1904
16276TIP3    H170243   1.329   6.284  11.435  3.3452 -0.0640 -0.0898
16276TIP3    H270244   1.368   6.319  11.293  0.3235 -1.6790 -1.4009
16277TIP3   OH270245   2.197   5.247  12.786 -0.3433 -0.1626  0.1226
16277TIP3    H170246   2.164   5.158  12.782 -1.7661  0.3504 -2.6480
16277TIP3    H270247   2.268   5.249  12.721 -1.3913  1.0126 -1.0637
16278TIP3   OH270248   1.479   5.463  12.012 -0.3916 -0.4536  0.4356
16278TIP3    H170249   1.419   5.406  12.060 -1.1983 -0.0410 -0.0506
16278TIP3    H270250   1.427   5.494  11.938 -0.6390  2.4673  1.7093
16279TIP3   OH270251   3.361   0.640  10.955  0.3629  0.1774 -0.4878
16279TIP3    H170252   3.415   0.607  11.026 -0.6960  0.6076  0.5462
16279TIP3    H270253   3.289   0.685  10.998  0.3276  1.5176 -1.8274
16280TIP3   OH270254   0.848   4.048   0.387  0.5619 -0.1730 -0.2734
16280TIP3    H170255   0.822   4.076   0.299 -0.2255  0.0410  0.0153
16280TIP3    H270256   0.910   3.976   0.373 -0.1579 -0.6668 -0.9948
16281TIP3   OH270257   0.948   6.553   5.972 -0.3885  0.3852  0.0605
16281TIP3    H170258   0.911   6.474   6.010  0.2324 -0.4952 -1.1144
16281TIP3    H270259   0.889   6.623   6.000 -1.9277 -0.7200 -0.3040
16282TIP3   OH270260   1.512   2.133  16.281  0.3041 -0.7633  0.1248
16282TIP3    H170261   1.579   2.088  16.228  1.2504  0.3364  0.3550
16282TIP3    H270262   1.442   2.152  16.219  0.4841 -1.3463 -0.2691
16283TIP3   OH270263   5.623   3.119   3.247 -0.2046 -0.5431  0.8340
16283TIP3    H170264   5.713   3.151   3.248 -0.4367  0.1322  1.1818
16283TIP3    H270265   5.573   3.188   3.290 -0.8347 -1.0762  0.9772
16284TIP3   OH270266   1.330   5.029  11.458  0.2269 -0.4288  0.1703
16284TIP3    H170267   1.348   5.104  11.514 -0.2520 -0.6597  0.6391
16284TIP3    H270268   1.335   5.064  11.369 -0.1666  0.2006  0.3894
16285TIP3   OH270269   1.763   5.123  14.568  0.5406  0.2497 -0.3960
16285TIP3    H170270   1.737   5.080  14.486  0.7678  0.4242 -0.5629
16285TIP3    H270271   1.687   5.114  14.625 -0.1866  1.4158 -1.1341
16286TIP3   OH270272   0.033   0.626   0.582  0.2345 -0.3551  0.2877
16286TIP3    H170273   0.045   0.541   0.624 -0.0005 -1.2157 -1.2971
16286TIP3    H270274   0.087   0.686   0.633 -0.1632 -1.2869  1.8842
16287TIP3   OH270275   1.680   5.206  12.121  0.2730 -0.2129 -1.0542
16287TIP3    H170276   1.693   5.244  12.034  2.4537 -1.8577 -1.5571
16287TIP3    H270277   1.746   5.249  12.176 -1.4436  1.2013 -0.0184
16288TIP3   OH270278   1.421   4.544  16.782 -0.4965 -0.3479 -0.5046
16288TIP3    H170279   1.503   4.591  16.763  0.1228 -1.1344  0.1229
16288TIP3    H270280   1.375   4.542  16.699 -1.1629  2.4858 -0.3056
16289TIP3   OH270281   5.903   4.390   0.099  0.2531 -0.0445  0.3318
16289TIP3    H170282   5.933   4.394   0.190 -0.7445  2.1143  0.6158
16289TIP3    H270283   5.978   4.419   0.047  1.5800 -3.3018  0.1567
16290TIP3   OH270284   2.710   2.748   1.522 -0.3365  0.0207  0.7084
16290TIP3    H170285   2.761   2.781   1.447  0.0297 -2.7899 -0.4042
16290TIP3    H270286   2.659   2.824   1.551  2.6485  2.3887  0.3838
16291TIP3   OH270287   0.339   4.357  15.671  0.3384 -0.2218  0.5782
16291TIP3    H170288   0.385   4.372  15.588 -1.1274 -0.6201 -0.3463
16291TIP3    H270289   0.402   4.310  15.725  1.1393 -0.4467 -0.5049
16292TIP3   OH270290   6.319   3.699   0.758 -0.0705  0.5358  0.4663
16292TIP3    H170291   6.232   3.729   0.786 -0.3566  0.4447 -0.2830
16292TIP3    H270292   6.312   3.693   0.663  1.0305  1.3754  0.3046
16293TIP3   OH270293   4.189   1.769   3.910 -0.2586 -0.0762 -0.2891
16293TIP3    H170294   4.236   1.844   3.871 -1.9501  0.1861 -1.9600
16293TIP3    H270295   4.099   1.800   3.921 -0.5428 -1.2288  0.9388
16294TIP3   OH270296   4.146   0.376   2.638 -0.0562  0.8262 -0.2536
16294TIP3    H170297   4.153   0.360   2.544  1.6055 -3.1965  0.3469
16294TIP3    H270298   4.224   0.427   2.660  1.5646 -1.3135 -0.6701
16295TIP3   OH270299   5.777   5.956  14.118  0.4336 -0.1488  0.1341
16295TIP3    H170300   5.708   5.893  14.135 -0.2882  0.3072 -0.9733
16295TIP3    H270301   5.842   5.908  14.066  0.7004 -0.4277  0.7171
16296TIP3   OH270302   6.074   4.218  10.402 -0.0238  0.6125 -0.3011
16296TIP3    H170303   5.982   4.242  10.386 -0.2360 -0.7415 -1.3491
16296TIP3    H270304   6.070   4.162  10.479 -0.0535  0.7095 -0.2318
16297TIP3   OH270305   0.147   1.306   6.217  0.0797 -0.0372  0.3180
16297TIP3    H170306   0.236   1.276   6.199  0.5462  1.7220 -0.5887
16297TIP3    H270307   0.126   1.268   6.302  1.8612 -0.1709  0.7537
16298TIP3   OH270308   4.307   1.205  15.838  0.3727 -0.1354 -0.2813
16298TIP3    H170309   4.217   1.174  15.844  0.3950 -0.6173 -1.9396
16298TIP3    H270310   4.303   1.298  15.861 -0.5912 -0.0977 -0.5883
16299TIP3   OH270311   1.457   6.049  14.730 -0.4509 -0.1017 -0.3728
16299TIP3    H170312   1.409   6.092  14.659 -0.6558  1.4193  0.6379
16299TIP3    H270313   1.541   6.096  14.734 -0.7037  0.2895  0.7915
16300TIP3   OH270314   1.816   3.762  16.110 -0.5628  0.0160  0.5826
16300TIP3    H170315   1.731   3.738  16.075  0.2668 -3.0538  0.3813
16300TIP3    H270316   1.872   3.773  16.033 -0.3207  0.0645  0.7621
16301TIP3   OH270317   1.505   1.052  11.949 -0.1023  0.5235 -0.2544
16301TIP3    H170318   1.499   1.114  11.876 -2.3989  0.1173 -0.4775
16301TIP3    H270319   1.520   1.107  12.026 -1.4448  1.3409 -0.5437
16302TIP3   OH270320   0.467   4.591   5.150 -0.4218  0.2972  0.2825
16302TIP3    H170321   0.560   4.575   5.167 -0.2236  1.1026 -0.0030
16302TIP3    H270322   0.422   4.517   5.190  0.4624 -1.1479 -1.2836
16303TIP3   OH270323   1.127   4.825   3.693  0.3317 -0.7679 -0.0233
16303TIP3    H170324   1.193   4.878   3.649 -0.8985  0.6395 -0.2460
16303TIP3    H270325   1.044   4.858   3.660 -0.6569  0.0094  2.9446
16304TIP3   OH270326   4.642   6.624   2.900 -0.2546 -0.0559 -0.4935
16304TIP3    H170327   4.609   6.537   2.923  1.0738 -0.2966  0.6397
16304TIP3    H270328   4.640   6.626   2.805 -0.3201 -1.3323 -0.5390
16305TIP3   OH270329   5.469   0.903  14.602 -0.2337  0.2824 -0.4375
16305TIP3    H170330   5.495   0.987  14.564  2.3368 -0.5602 -0.7004
16305TIP3    H270331   5.381   0.919  14.635 -0.3534  2.6866 -1.6743
16306TIP3   OH270332   5.135   2.807   6.018  0.4498  0.2958 -0.0329
16306TIP3    H170333   5.223   2.823   5.986  0.0229  0.3479 -1.2110
16306TIP3    H270334   5.078   2.859   5.962 -0.1414  2.9638  2.7695
16307TIP3   OH270335   4.141   5.280   2.701 -0.0346  0.2808 -0.7667
16307TIP3    H170336   4.162   5.353   2.643 -1.1542  0.8970 -0.4481
16307TIP3    H270337   4.057   5.305   2.740  1.1905  0.4646  2.0104
16308TIP3   OH270338   4.378   1.144   5.321 -0.0714 -0.2586 -0.1096
16308TIP3    H170339   4.458   1.178   5.281 -0.7237  0.4521 -0.8497
16308TIP3    H270340   4.311   1.155   5.253 -1.2866  1.2493  1.2549
16309TIP3   OH270341   3.087   3.627  14.025  0.6001  0.1006 -0.2055
16309TIP3    H170342   3.024   3.697  14.039  0.3871 -0.1556  0.1311
16309TIP3    H270343   3.034   3.552  13.996  0.4832 -0.6976  1.8811
16310TIP3   OH270344   3.787   4.474  10.369  0.3718  0.5585 -0.4145
16310TIP3    H170345   3.777   4.570  10.375  0.6351  0.6096 -0.7557
16310TIP3    H270346   3.740   4.451  10.289 -0.5737  0.2654  0.2078
16311TIP3   OH270347   1.643   4.258   1.680  0.5565  0.6304 -0.7942
16311TIP3    H170348   1.615   4.288   1.593 -0.9367  0.1852 -0.5070
16311TIP3    H270349   1.666   4.166   1.667  0.8795  0.7130 -0.8188
16312TIP3   OH270350   2.346   0.122  15.565  0.3535  0.0894 -0.4702
16312TIP3    H170351   2.303   0.203  15.592  1.4153  1.2633 -2.1251
16312TIP3    H270352   2.341   0.122  15.470  0.5843 -1.6878 -0.5215
16313TIP3   OH270353   2.848   1.159   3.443 -0.4029  0.3318 -0.0070
16313TIP3    H170354   2.924   1.216   3.440 -0.4729  0.4572  0.4448
16313TIP3    H270355   2.855   1.115   3.528 -0.1242 -0.6390 -0.5199
16314TIP3   OH270356   0.188   5.299   5.415 -0.3011 -0.4439  0.2736
16314TIP3    H170357   0.239   5.348   5.351 -0.2904  0.7174  1.1377
16314TIP3    H270358   0.179   5.359   5.490 -0.7607 -1.5627  1.1440
16315TIP3   OH270359   3.753   2.751   3.648  0.4148  0.1313 -0.4246
16315TIP3    H170360   3.735   2.672   3.700 -1.2879  1.1917  0.6870
16315TIP3    H270361   3.710   2.821   3.696 -0.4812  1.3190 -2.8246
16316TIP3   OH270362   1.508   5.781  13.103 -0.0865 -0.2078  0.2964
16316TIP3    H170363   1.580   5.786  13.040 -0.7609  1.9864 -0.3843
16316TIP3    H270364   1.444   5.722  13.063 -0.5408  1.2275 -1.1745
16317TIP3   OH270365   3.766   0.744   0.824 -0.1050  0.5617 -0.6398
16317TIP3    H170366   3.740   0.827   0.783 -2.1075  0.2169 -0.1885
16317TIP3    H270367   3.782   0.685   0.750  0.0697  0.9770 -0.9436
16318TIP3   OH270368   4.063   5.987   4.969  0.1314  0.4088  0.2009
16318TIP3    H170369   3.992   6.011   4.910 -0.0032  1.4838  0.7823
16318TIP3    H270370   4.036   5.903   5.007 -0.6853  0.6683  0.1960
16319TIP3   OH270371   3.870   4.861   1.614  0.3823  0.2817  0.0871
16319TIP3    H170372   3.808   4.788   1.610 -1.2061  1.6397 -1.9014
16319TIP3    H270373   3.832   4.923   1.675  0.5099  0.4877 -0.0387
16320TIP3   OH270374   6.137   5.952   3.680  0.2736  0.1831 -0.1746
16320TIP3    H170375   6.101   5.957   3.591  0.1724 -0.5062 -0.1791
16320TIP3    H270376   6.231   5.939   3.667  0.3586  0.7832 -0.1732
16321TIP3   OH270377   1.574   4.938   5.814 -0.1069  0.1203 -0.2350
16321TIP3    H170378   1.611   4.974   5.895 -1.0018  2.1473 -0.6741
16321TIP3    H270379   1.483   4.919   5.836  0.3134 -1.9112 -0.0456
16322TIP3   OH270380   5.006   1.424  10.712  0.1590 -0.4357  0.2788
16322TIP3    H170381   5.058   1.500  10.740 -0.2465 -0.1554  0.2783
16322TIP3    H270382   5.064   1.377  10.652  0.2861  0.0684  0.0007
16323TIP3   OH270383   2.624   3.114   2.325  0.0025 -1.1139 -0.5645
16323TIP3    H170384   2.697   3.142   2.269 -0.8597 -0.3048 -1.3259
16323TIP3    H270385   2.546   3.129   2.271 -0.9934  1.0216  1.3102
16324TIP3   OH270386   4.337   2.236  15.290 -0.1552 -0.7562  0.2472
16324TIP3    H170387   4.341   2.297  15.364  0.3400 -0.1830 -0.2387
16324TIP3    H270388   4.254   2.257  15.247  0.3856  0.1766 -0.3987
16325TIP3   OH270389   2.394   0.248  12.737 -0.0200  0.2576 -0.5813
16325TIP3    H170390   2.414   0.241  12.644  1.7582 -0.5107 -0.1705
16325TIP3    H270391   2.451   0.184  12.779 -3.4749 -2.2431  0.7548
16326TIP3   OH270392   5.027   3.593   6.314  0.2807 -0.1747  0.4920
16326TIP3    H170393   4.967   3.639   6.373 -0.6797 -0.2782 -0.3755
16326TIP3    H270394   5.071   3.529   6.370  1.4923  1.6018  1.6748
16327TIP3   OH270395   0.493   2.701  13.180 -0.1336 -0.0601 -0.0878
16327TIP3    H170396   0.420   2.646  13.150 -1.1831  0.7546  0.8837
16327TIP3    H270397   0.568   2.670  13.130 -1.1010 -1.0620 -0.9800
16328TIP3   OH270398   1.011   2.492   6.291  0.0777  0.3193  0.3562
16328TIP3    H170399   0.925   2.453   6.305 -0.3210  1.2804  0.6291
16328TIP3    H270400   1.055   2.485   6.376  0.0865  0.2784  0.3483
16329TIP3   OH270401   4.730   6.558   0.912 -0.3589 -0.1214 -0.1253
16329TIP3    H170402   4.686   6.475   0.933  0.1117 -0.2302  0.4537
16329TIP3    H270403   4.796   6.568   0.981 -1.8399  1.8148  1.0991
16330TIP3   OH270404   5.894   3.636  14.582  0.3393  0.3811  0.3337
16330TIP3    H170405   5.904   3.546  14.613 -0.6145 -0.0316 -0.5297
16330TIP3    H270406   5.956   3.686  14.636  3.1209 -1.1957 -1.1397
16331TIP3   OH270407   0.922   1.751  16.362  0.5530  0.2357 -0.0803
16331TIP3    H170408   0.927   1.706  16.277  0.3947 -0.0017  0.0377
16331TIP3    H270409   0.960   1.838  16.345  0.4716  0.2079 -0.4067
16332TIP3   OH270410   2.141   2.793   3.951  0.0036  0.6524 -0.1150
16332TIP3    H170411   2.055   2.790   3.992 -0.8630 -1.3978 -1.8353
16332TIP3    H270412   2.202   2.766   4.019 -1.2499 -1.6507  0.1989
16333TIP3   OH270413   0.057   3.159  14.941  0.2198  0.6698 -0.7379
16333TIP3    H170414   0.004   3.105  15.000  1.0281 -1.1565 -1.5847
16333TIP3    H270415   0.009   3.158  14.858  0.7181  0.4559 -1.0244
16334TIP3   OH270416   3.875   6.712   1.863 -0.2045 -0.1838 -0.4908
16334TIP3    H170417   3.823   6.649   1.813  0.7379  0.2309 -2.0770
16334TIP3    H270418   3.886   6.787   1.804  1.9658 -0.1627 -0.1538
16335TIP3   OH270419   6.746   4.999   3.297 -0.0095  0.4009 -0.0174
16335TIP3    H170420   6.822   5.024   3.244 -0.1122 -1.1691 -0.9927
16335TIP3    H270421   6.680   5.065   3.277  0.6980  1.1113 -0.0805
16336TIP3   OH270422   0.874   1.961   2.659 -0.5379  0.2627 -0.5056
16336TIP3    H170423   0.802   1.986   2.716  0.2793  0.9114  0.2770
16336TIP3    H270424   0.832   1.921   2.582 -1.7101  0.6730 -0.0927
16337TIP3   OH270425   1.152   1.406   5.178  0.2311  0.0544  0.5619
16337TIP3    H170426   1.167   1.469   5.249  1.6406  0.0124  0.3288
16337TIP3    H270427   1.228   1.349   5.181  0.0250 -0.2959 -0.6310
16338TIP3   OH270428   4.787   0.599  16.412 -0.2017  0.3464 -0.3411
16338TIP3    H170429   4.831   0.577  16.494 -2.3445  0.4536  0.9281
16338TIP3    H270430   4.806   0.692  16.398  2.3462 -0.2766 -1.4500
16339TIP3   OH270431   6.169   2.406   5.357 -0.2113  0.2719  0.1170
16339TIP3    H170432   6.244   2.371   5.406 -1.5304 -1.3888  1.0963
16339TIP3    H270433   6.154   2.342   5.287  0.1242  1.3310 -0.9436
16340TIP3   OH270434   2.823   5.972   4.071  0.0446  0.5007 -0.1684
16340TIP3    H170435   2.763   6.042   4.097  0.0875 -0.1405  1.7519
16340TIP3    H270436   2.804   5.958   3.978  0.3522  3.3497 -0.7661
16341TIP3   OH270437   3.747   0.339   5.340  0.1441 -0.5362 -0.2602
16341TIP3    H170438   3.753   0.363   5.248  3.2790 -1.9873 -0.5785
16341TIP3    H270439   3.654   0.348   5.362 -1.0131 -1.7736 -4.0110
16342TIP3   OH270440   1.452   2.453   5.677  0.2836 -0.0785 -0.0129
16342TIP3    H170441   1.486   2.519   5.617  1.6444 -0.0546  0.7415
16342TIP3    H270442   1.388   2.500   5.731  2.2238  1.0399  1.4317
16343TIP3   OH270443   6.632   1.903   2.379 -0.2504 -0.6947 -0.1428
16343TIP3    H170444   6.695   1.859   2.322  0.6064 -0.2160  0.4210
16343TIP3    H270445   6.567   1.941   2.319 -0.7686 -2.3211 -0.6650
16344TIP3   OH270446   0.973   4.861   2.112  0.1464  0.3319  0.3759
16344TIP3    H170447   1.040   4.877   2.179 -0.5940 -0.5162  1.3510
16344TIP3    H270448   1.022   4.826   2.037  0.7938 -0.3182  1.0881
16345TIP3   OH270449   0.329   0.047  15.259 -0.1517 -0.3617  0.0839
16345TIP3    H170450   0.400   0.100  15.224 -0.0969  0.2654  1.1154
16345TIP3    H270451   0.318   0.077  15.349  0.5852 -2.8099  1.0968
16346TIP3   OH270452   4.218   4.665   3.239  0.4231 -0.4131  0.5375
16346TIP3    H170453   4.158   4.643   3.310 -0.0786  0.0409  0.2676
16346TIP3    H270454   4.166   4.653   3.159  0.7156 -0.0808  0.2936
16347TIP3   OH270455   0.139   1.400  13.793  0.6419  0.5575  0.1171
16347TIP3    H170456   0.123   1.342  13.868  0.5502 -0.3044 -0.5505
16347TIP3    H270457   0.070   1.466  13.799 -0.0337 -0.1317  0.1974
16348TIP3   OH270458   3.995   1.272  16.469  0.7401 -0.4810 -0.7237
16348TIP3    H170459   4.019   1.233  16.553  3.1671  0.0328 -1.1055
16348TIP3    H270460   3.945   1.204  16.424 -1.7924 -0.3252  1.5685
16349TIP3   OH270461   5.816   3.973   0.397  0.7080 -0.0550  0.4911
16349TIP3    H170462   5.781   4.046   0.448 -0.6083 -0.7323  0.5837
16349TIP3    H270463   5.876   3.928   0.457  1.3159  0.7637  0.5218
16350TIP3   OH270464   2.108   0.424   0.857  0.0835 -0.7244  0.0770
16350TIP3    H170465   2.202   0.406   0.861  0.4366  0.9528  0.3913
16350TIP3    H270466   2.095   0.494   0.921 -0.9818  0.5228 -1.4152
16351TIP3   OH270467   0.745   1.542   4.181  0.6238  0.3059 -0.0551
16351TIP3    H170468   0.680   1.580   4.240  0.9659 -1.0243  1.2596
16351TIP3    H270469   0.827   1.545   4.230  0.6278 -2.2721  0.2685
16352TIP3   OH270470   6.775   1.730  15.928  0.1149 -0.3471 -0.7278
16352TIP3    H170471   6.705   1.789  15.900 -1.3856 -2.0658 -0.7752
16352TIP3    H270472   6.834   1.785  15.980 -3.3436  0.4973  2.7508
16353TIP3   OH270473   3.105   3.727   5.710 -0.2064 -0.0538 -0.2657
16353TIP3    H170474   3.158   3.781   5.769  0.0986 -0.1180 -0.4756
16353TIP3    H270475   3.158   3.719   5.631  0.9837 -2.8654  0.6802
16354TIP3   OH270476   6.431   6.319   2.177 -0.4360  0.8801  0.7508
16354TIP3    H170477   6.426   6.225   2.193 -1.8269  0.9289  0.6453
16354TIP3    H270478   6.503   6.348   2.233  1.5604 -0.5768 -0.8633
16355TIP3   OH270479   6.545   6.559   2.332  0.3047 -0.0758 -0.2927
16355TIP3    H170480   6.615   6.607   2.377 -0.0557  0.6920 -0.5517
16355TIP3    H270481   6.478   6.545   2.399 -0.4529  1.5022 -0.6849
16356TIP3   OH270482   0.394   2.139  10.928 -0.3117  0.1792 -0.5320
16356TIP3    H170483   0.379   2.230  10.903 -1.3701 -0.0403 -0.7523
16356TIP3    H270484   0.489   2.132  10.940 -0.0454  0.9280 -2.0067
16357TIP3   OH270485   4.437   6.006   5.792  0.2780 -0.2775 -0.1440
16357TIP3    H170486   4.473   6.073   5.733  2.2513 -0.3686  0.8831
16357TIP3    H270487   4.419   6.054   5.873 -0.5291 -0.5537 -0.1533
16358TIP3   OH270488   0.030   5.675  12.197 -0.7596  0.1000 -0.0098
16358TIP3    H170489   0.030   5.679  12.293 -1.6867  0.1366 -0.0006
16358TIP3    H270490  -0.056   5.640  12.175  0.1676 -1.8426 -0.7693
16359TIP3   OH270491   5.710   0.247  15.722  0.4162  0.0405  0.0516
16359TIP3    H170492   5.747   0.281  15.803 -0.4951 -1.0928  0.9992
16359TIP3    H270493   5.616   0.265  15.729  0.1750 -1.0180 -0.2321
16360TIP3   OH270494   1.327   6.485  14.254 -0.1940  0.4994 -0.3973
16360TIP3    H170495   1.302   6.426  14.183 -0.2988 -0.3560  0.3458
16360TIP3    H270496   1.245   6.527  14.280 -0.6153 -1.0097  0.8549
16361TIP3   OH270497   1.932   0.103  11.700  0.3193 -0.5781  0.0665
16361TIP3    H170498   1.914   0.064  11.786  1.0112 -1.1295 -0.0353
16361TIP3    H270499   1.996   0.173  11.718  2.4991 -2.3695 -0.2967
16362TIP3   OH270500   4.361   2.248   0.806  0.3215  0.2219  0.0900
16362TIP3    H170501   4.271   2.226   0.832  0.5719 -0.0394  0.7483
16362TIP3    H270502   4.364   2.228   0.713 -1.1172  2.8291 -0.6339
16363TIP3   OH270503   4.089   0.738   4.033 -0.3777 -0.3556  0.1850
16363TIP3    H170504   4.012   0.758   3.980 -1.2791  1.6792  2.1341
16363TIP3    H270505   4.148   0.812   4.017 -0.1072 -0.3887  0.9972
16364TIP3   OH270506   2.364   5.780  11.885 -0.0928  0.0473  0.1010
16364TIP3    H170507   2.308   5.728  11.828 -0.4518  0.2578  0.2500
16364TIP3    H270508   2.321   5.775  11.971 -0.0275  0.4266  0.1576
16365TIP3   OH270509   0.089   4.132   0.792 -0.3917  0.3764  0.2017
16365TIP3    H170510   0.169   4.173   0.824 -0.4299 -1.0079  2.3136
16365TIP3    H270511   0.025   4.203   0.790  0.1457  0.9365  1.4159
16366TIP3   OH270512   4.355   5.991  13.057  0.2145  0.1725  0.1705
16366TIP3    H170513   4.275   5.964  13.102  0.1530 -0.0783 -0.0861
16366TIP3    H270514   4.327   6.060  12.998  0.7198  2.3882  2.3503
16367TIP3   OH270515   1.283   6.565  11.418  0.2464 -0.3991 -0.1618
16367TIP3    H170516   1.363   6.617  11.408 -0.4270  0.4173 -1.4337
16367TIP3    H270517   1.257   6.543  11.329 -1.8008  0.6756  0.1027
16368TIP3   OH270518   0.118   6.598  11.420  0.3337 -0.0558 -0.1572
16368TIP3    H170519   0.209   6.570  11.412 -0.0760 -1.0375 -1.9222
16368TIP3    H270520   0.067   6.518  11.404 -0.8451  0.9285 -1.5870
16369TIP3   OH270521   5.402   4.523  15.528  0.2470  0.1550 -0.4085
16369TIP3    H170522   5.393   4.616  15.547 -0.2774  0.1290 -0.5008
16369TIP3    H270523   5.490   4.514  15.492  0.1233  0.6995 -0.8648
16370TIP3   OH270524   3.454   4.823  16.961 -0.0620  0.9629  0.6269
16370TIP3    H170525   3.430   4.873  16.883 -1.0978  0.3555  0.5433
16370TIP3    H270526   3.499   4.886  17.017 -1.2392  1.9643  0.4843
16371TIP3   OH270527   2.011   2.791  11.101 -0.6312  0.6283  0.0382
16371TIP3    H170528   1.985   2.728  11.033  0.2826  0.6424 -0.3356
16371TIP3    H270529   1.961   2.765  11.178  1.8192 -2.4398  0.8078
16372TIP3   OH270530   0.138   4.644   0.770  0.7516 -0.1518  0.8621
16372TIP3    H170531   0.071   4.584   0.804  0.4190  0.6021  1.5793
16372TIP3    H270532   0.091   4.701   0.710  1.1173 -0.7481 -0.0149
16373TIP3   OH270533   5.793   5.250  13.317  0.1157  0.4209 -0.3874
16373TIP3    H170534   5.703   5.266  13.291 -0.7700  0.7225  2.5142
16373TIP3    H270535   5.807   5.157  13.298 -1.1770  0.1051  0.1084
16374TIP3   OH270536   4.394   0.132   0.186 -0.1554  0.0023 -0.1735
16374TIP3    H170537   4.474   0.173   0.151 -1.2058  2.6212  0.2614
16374TIP3    H270538   4.387   0.165   0.275 -1.9297  0.1984 -0.3450
16375TIP3   OH270539   2.483   3.475   5.484  0.0145 -0.1069 -0.2231
16375TIP3    H170540   2.578   3.480   5.493  0.0252  0.7031 -0.6824
16375TIP3    H270541   2.468   3.476   5.390 -0.4776  0.2824 -0.1416
16376TIP3   OH270542   6.616   3.227   1.431 -0.2299  0.2724 -0.2843
16376TIP3    H170543   6.675   3.202   1.360  3.7386  1.3369  2.3326
16376TIP3    H270544   6.641   3.170   1.504 -2.2390  1.0267  1.0783
16377TIP3   OH270545   1.005   3.129   4.630 -0.1463  0.2061  0.0020
16377TIP3    H170546   1.056   3.185   4.572 -1.4864 -0.1360 -1.5886
16377TIP3    H270547   0.919   3.171   4.633 -0.4317 -0.4128  0.8402
16378TIP3   OH270548   4.538   3.966   0.917  0.0066 -0.2223 -0.4027
16378TIP3    H170549   4.625   3.932   0.939  0.2865  0.3337 -0.6332
16378TIP3    H270550   4.527   3.945   0.825 -1.1462 -2.5035  0.1791
16379TIP3   OH270551   3.069   5.216   5.946 -0.1855 -0.2831 -0.0997
16379TIP3    H170552   3.014   5.294   5.948 -0.6453 -0.6117  0.1858
16379TIP3    H270553   3.012   5.145   5.973  0.3271 -0.6617  0.0105
16380TIP3   OH270554   6.512   2.745   2.451 -0.0317  0.0674 -0.6026
16380TIP3    H170555   6.565   2.813   2.492  0.3935  0.0406 -1.0902
16380TIP3    H270556   6.435   2.790   2.418  0.0779  0.2478 -0.6095
16381TIP3   OH270557   2.494   0.921   2.749 -0.3456 -0.3118  0.2432
16381TIP3    H170558   2.517   0.908   2.657 -1.8813  0.7212 -0.3268
16381TIP3    H270559   2.577   0.936   2.793  0.5412 -2.0295 -0.7296
16382TIP3   OH270560   4.082   0.783   1.989 -0.2453  0.1951 -0.1131
16382TIP3    H170561   4.083   0.687   1.983  0.0493  0.2140 -0.4355
16382TIP3    H270562   4.059   0.812   1.900  0.6424  0.4373 -0.2742
16383TIP3   OH270563   1.981   2.331  15.339 -0.4182 -0.1766  0.1887
16383TIP3    H170564   1.995   2.277  15.416 -0.6180  0.1629  0.4640
16383TIP3    H270565   2.020   2.281  15.267  2.3898  0.8287  0.9243
16384TIP3   OH270566   1.060   3.295   0.675 -0.5414  0.2682 -0.3528
16384TIP3    H170567   1.041   3.293   0.769 -0.5546 -0.7454 -0.3615
16384TIP3    H270568   1.145   3.338   0.668  0.1814 -0.9881  0.2811
16385TIP3   OH270569   0.195   0.800   2.779 -0.3902  0.6590 -0.1468
16385TIP3    H170570   0.105   0.810   2.810 -0.1860  0.4048  0.5473
16385TIP3    H270571   0.202   0.708   2.755 -0.3597  0.7112 -0.3368
16386TIP3   OH270572   2.920   2.898  12.519 -0.3705  0.3069  0.4381
16386TIP3    H170573   2.873   2.980  12.537 -1.9832 -0.4093 -0.3723
16386TIP3    H270574   3.009   2.915  12.551 -0.5267  2.5425 -0.1037
16387TIP3   OH270575   2.190   2.753  10.633 -0.2988  0.4433  0.7584
16387TIP3    H170576   2.204   2.684  10.568  1.0416  0.6662  0.7841
16387TIP3    H270577   2.249   2.731  10.705  0.3215  1.7320  0.6693
16388TIP3   OH270578   0.290   3.638  13.093 -0.2606 -0.4155 -0.3834
16388TIP3    H170579   0.260   3.597  13.012  2.6957 -2.2199 -0.7098
16388TIP3    H270580   0.308   3.729  13.068 -0.1261 -0.7531 -1.5835
16389TIP3   OH270581   3.294   5.106   4.151  0.4722 -0.2749 -0.1399
16389TIP3    H170582   3.320   5.067   4.067  0.9271  0.9837 -0.6115
16389TIP3    H270583   3.376   5.117   4.199  0.2493 -0.6854  0.3353
16390TIP3   OH270584   3.305   5.010   3.904  0.2105  0.3556  0.1705
16390TIP3    H170585   3.221   4.986   3.865  0.5410 -2.1927  0.7887
16390TIP3    H270586   3.328   5.093   3.864  0.1709 -1.6207 -4.5688
16391TIP3   OH270587   2.378   5.685  14.629  0.2652 -0.8453 -0.1062
16391TIP3    H170588   2.446   5.618  14.624 -0.5835 -1.6620 -0.7814
16391TIP3    H270589   2.296   5.638  14.622 -0.3904  0.1491  0.5898
16392TIP3   OH270590   5.260   4.570   3.792 -0.2499  0.0447  0.1702
16392TIP3    H170591   5.200   4.495   3.791  1.7080 -1.5883 -0.1720
16392TIP3    H270592   5.311   4.559   3.872  1.5712 -0.3175 -0.9676
16393TIP3   OH270593   5.798   3.463  12.526 -0.7019  0.2170  0.4361
16393TIP3    H170594   5.792   3.456  12.431 -1.5259  1.8995  0.3220
16393TIP3    H270595   5.869   3.526  12.541  0.4659 -1.1671  1.0227
16394TIP3   OH270596   0.057   5.811  13.823 -0.3189 -0.3087  0.1040
16394TIP3    H170597   0.058   5.718  13.848 -0.5304 -0.1812  0.5937
16394TIP3    H270598   0.148   5.831  13.802 -0.4680 -0.9767 -1.3281
16395TIP3   OH270599   4.393   0.664   2.391  0.6641  0.1627 -0.4087
16395TIP3    H170600   4.412   0.612   2.313  1.6259 -1.8735  1.0931
16395TIP3    H270601   4.479   0.691   2.423  0.3095  0.6162  0.1840
16396TIP3   OH270602   4.665   0.800   0.613  0.1697 -0.1672  0.1763
16396TIP3    H170603   4.727   0.727   0.622  0.5779  0.0482 -0.7960
16396TIP3    H270604   4.636   0.796   0.522  0.1521  0.8562  0.1245
16397TIP3   OH270605   1.995   6.548  12.377  0.3784  0.1051 -0.1829
16397TIP3    H170606   2.031   6.463  12.352  0.6678 -0.3785  1.7283
16397TIP3    H270607   2.029   6.564  12.465 -2.1113  0.7616  0.7527
16398TIP3   OH270608   3.028   3.353  16.187  0.6884 -0.1118  0.0753
16398TIP3    H170609   3.117   3.331  16.160  0.4410  0.9048 -1.7484
16398TIP3    H270610   3.036   3.439  16.228  0.3427  0.8287 -1.7436
16399TIP3   OH270611   1.043   3.327   3.050 -0.9845 -0.7211  0.5711
16399TIP3    H170612   1.017   3.283   2.969 -1.5915 -1.2902  1.0569
16399TIP3    H270613   1.125   3.370   3.029 -0.2968 -2.2012  0.0922
16400TIP3   OH270614   1.124   1.165  13.942 -0.1368 -0.5394  0.2402
16400TIP3    H170615   1.056   1.182  13.877 -0.4607 -1.3879  0.3456
16400TIP3    H270616   1.200   1.214  13.911 -0.8003  0.4385  0.1336
16401TIP3   OH270617   2.875   4.424   0.767 -0.1537 -0.2776 -0.0069
16401TIP3    H170618   2.948   4.370   0.738  0.5372  1.3101 -1.4061
16401TIP3    H270619   2.859   4.484   0.694 -3.7159 -1.3630 -0.3272
16402TIP3   OH270620   3.051   2.154  16.182 -0.2035  0.1956 -0.0285
16402TIP3    H170621   3.062   2.247  16.203  1.9359  0.1698 -0.7292
16402TIP3    H270622   3.101   2.108  16.250 -0.0845 -0.3420 -0.4679
16403TIP3   OH270623   0.708   2.671  14.098  0.0161  0.4928  0.5289
16403TIP3    H170624   0.801   2.657  14.116  0.1009  1.8005  1.2334
16403TIP3    H270625   0.706   2.712  14.011 -0.1079 -1.8613 -0.6509
16404TIP3   OH270626   4.222   6.003  16.262 -0.1996  0.3325 -0.1004
16404TIP3    H170627   4.293   6.007  16.197 -0.2548  0.8827 -0.1270
16404TIP3    H270628   4.144   6.026  16.212 -0.2362  0.8006  0.1742
16405TIP3   OH270629   5.176   5.101  13.519 -0.1172 -0.0412  0.8327
16405TIP3    H170630   5.115   5.084  13.448  1.0382 -1.4804  0.1247
16405TIP3    H270631   5.139   5.055  13.595  1.1745 -3.0432 -0.1806
16406TIP3   OH270632   0.862   1.773   1.989  0.4773  0.8140  0.3368
16406TIP3    H170633   0.889   1.855   2.031 -0.4471  2.0214 -1.2653
16406TIP3    H270634   0.808   1.802   1.915 -1.0643 -1.3234  0.5602
16407TIP3   OH270635   6.106   5.834  13.089  0.0625  0.5880  0.0429
16407TIP3    H170636   6.129   5.926  13.100 -0.4107  0.8296 -0.8684
16407TIP3    H270637   6.133   5.792  13.171  0.0864  1.5708  0.5476
16408TIP3   OH270638   0.086   4.767   3.011  0.5131  0.4430 -0.0667
16408TIP3    H170639   0.057   4.702   2.947 -0.2384  2.3743 -1.8031
16408TIP3    H270640   0.015   4.831   3.015  1.0158  0.9729  1.9197
16409TIP3   OH270641   4.310   3.604   2.257 -0.3312  0.0996 -0.6166
16409TIP3    H170642   4.312   3.680   2.200 -0.9498 -0.8558 -1.9617
16409TIP3    H270643   4.393   3.608   2.305 -1.2284  2.7134  0.9200
16410TIP3   OH270644   6.559   4.021  11.153  0.0103  0.4478  0.3968
16410TIP3    H170645   6.587   3.945  11.205  0.2105 -0.5150 -1.0755
16410TIP3    H270646   6.635   4.043  11.099 -1.0082 -0.2627 -1.4067
16411TIP3   OH270647   1.644   2.735   4.632 -0.0070  0.1522  0.0203
16411TIP3    H170648   1.637   2.765   4.723 -0.2917 -0.8084  0.3349
16411TIP3    H270649   1.592   2.797   4.582  0.6433  1.0429  0.4274
16412TIP3   OH270650   5.895   0.697   0.872 -0.0305  0.7404 -0.3427
16412TIP3    H170651   5.910   0.603   0.883 -0.0229  0.8792  0.9588
16412TIP3    H270652   5.921   0.715   0.782  0.7549 -0.3481 -0.3489
16413TIP3   OH270653   5.822   6.548   3.100  0.6873  0.4478 -0.1576
16413TIP3    H170654   5.855   6.573   3.014 -0.3225 -1.3352 -1.1284
16413TIP3    H270655   5.731   6.576   3.100  0.9789  1.4657  0.8092
16414TIP3   OH270656   4.159   5.533  15.218  0.1700  0.3777  0.1679
16414TIP3    H170657   4.145   5.490  15.302 -1.2568 -0.1839 -0.3324
16414TIP3    H270658   4.195   5.464  15.162  4.1600  1.4423  1.0406
16415TIP3   OH270659   5.237   2.924  12.918  0.0649  0.2158  0.1276
16415TIP3    H170660   5.331   2.910  12.929  0.2638  1.7201  0.5371
16415TIP3    H270661   5.196   2.879  12.992  0.5545  0.5658  0.6111
16416TIP3   OH270662   1.217   4.377   5.064  0.5210 -0.2829 -0.5281
16416TIP3    H170663   1.286   4.316   5.037  0.8926  0.6814 -1.8535
16416TIP3    H270664   1.259   4.463   5.065 -0.6426  0.3224 -1.3377
16417TIP3   OH270665   0.990   0.879  14.468 -0.3884  0.6652 -0.1637
16417TIP3    H170666   0.943   0.900  14.548 -0.2724  0.7350 -0.1132
16417TIP3    H270667   1.002   0.784  14.471 -1.0827  0.5602 -0.4837
16418TIP3   OH270668   1.320   5.171   5.713 -0.4557  0.4783  0.2214
16418TIP3    H170669   1.308   5.149   5.806  1.7937  0.1188  0.4833
16418TIP3    H270670   1.330   5.086   5.670 -1.3161  0.6539 -0.3359
16419TIP3   OH270671   6.604   1.520   1.232  0.0514 -0.9452  0.4906
16419TIP3    H170672   6.619   1.450   1.296  0.1867 -0.6108  0.8250
16419TIP3    H270673   6.613   1.601   1.282 -1.6711 -0.7012  0.4672
16420TIP3   OH270674   4.071   1.505  13.902 -0.0131  0.2451 -0.4132
16420TIP3    H170675   4.118   1.586  13.920 -1.5313  1.1571 -0.4143
16420TIP3    H270676   4.066   1.460  13.986  0.3002  0.4478 -0.2879
16421TIP3   OH270677   5.955   2.515   1.114  0.2986  0.1334  0.7280
16421TIP3    H170678   5.866   2.547   1.102  0.2805  1.2786  3.3184
16421TIP3    H270679   6.009   2.594   1.117  0.8341 -0.2415  2.9417
16422TIP3   OH270680   5.003   5.051  13.314  0.2644  0.0508  0.1788
16422TIP3    H170681   4.907   5.056  13.318  0.3410  1.7315  0.7164
16422TIP3    H270682   5.022   5.029  13.223 -0.6476 -2.2306  0.4685
16423TIP3   OH270683   2.816   6.690   3.499  0.2088  0.2359 -0.2633
16423TIP3    H170684   2.754   6.676   3.428  0.7076 -0.4782 -0.5631
16423TIP3    H270685   2.761   6.701   3.577 -0.3297  0.8009 -0.7111
16424TIP3   OH270686   6.764   3.523   3.184  0.2207 -0.2403 -0.0226
16424TIP3    H170687   6.678   3.533   3.226 -0.2157 -0.6449 -0.7886
16424TIP3    H270688   6.827   3.548   3.252 -0.5088  0.3413  0.4599
16425TIP3   OH270689   1.152   5.169   1.004 -0.1542  0.2823  0.3560
16425TIP3    H170690   1.176   5.097   1.063  3.8759  1.7502  0.8474
16425TIP3    H270691   1.147   5.129   0.917  2.0095 -0.6982  0.6138
16426TIP3   OH270692   6.244   5.462   3.077 -0.5638  0.5964 -0.0163
16426TIP3    H170693   6.265   5.369   3.070  0.9940  0.9685 -0.6504
16426TIP3    H270694   6.211   5.486   2.991 -0.5059  0.7345 -0.0013
16427TIP3   OH270695   4.182   5.979   4.464 -0.2764  0.2268  0.7055
16427TIP3    H170696   4.223   5.945   4.384 -2.1395  0.3065 -0.3273
16427TIP3    H270697   4.089   5.982   4.444 -0.7632  0.5261  2.8045
16428TIP3   OH270698   5.244   3.792   1.360 -0.4333 -0.2870 -0.1658
16428TIP3    H170699   5.279   3.816   1.446  0.1386  1.0971 -0.7574
16428TIP3    H270700   5.305   3.727   1.327 -0.0916 -0.0867  0.0591
16429TIP3   OH270701   6.100   0.130   1.759 -0.0196  0.8065 -0.2103
16429TIP3    H170702   6.056   0.182   1.827  0.1643  1.6785 -0.7430
16429TIP3    H270703   6.085   0.039   1.786  1.1065  1.1256  1.6871
16430TIP3   OH270704   3.804   2.441  11.537 -0.2273  0.1190  0.0756
16430TIP3    H170705   3.731   2.382  11.551 -0.1739  0.0881  0.2213
16430TIP3    H270706   3.764   2.521  11.503 -0.2859 -0.0525 -0.2717
16431TIP3   OH270707   6.680   4.494   5.442  0.0476 -0.3533  1.1910
16431TIP3    H170708   6.733   4.427   5.399  0.2928  1.0149 -0.7917
16431TIP3    H270709   6.726   4.513   5.523  1.6112 -0.4832  0.3678
16432TIP3   OH270710   0.183   1.644  14.351 -0.5270 -0.2898 -0.1214
16432TIP3    H170711   0.238   1.722  14.355  0.6005 -1.1064  1.8670
16432TIP3    H270712   0.222   1.591  14.282  1.8815 -1.2596  1.8451
16433TIP3   OH270713   0.502   0.312   0.116  0.1509 -0.7464 -0.4571
16433TIP3    H170714   0.549   0.229   0.130 -0.1851 -0.9051 -0.2430
16433TIP3    H270715   0.460   0.301   0.030 -0.7211 -1.2091  0.0136
16434TIP3   OH270716   4.121   1.586   2.242 -0.0262  0.1299  0.0167
16434TIP3    H170717   4.152   1.583   2.332  1.4817  0.3621 -0.4571
16434TIP3    H270718   4.054   1.518   2.236 -0.2322  0.2000  1.3235
16435TIP3   OH270719   2.452   5.542  10.888  0.4667 -0.1223  0.0349
16435TIP3    H170720   2.447   5.574  10.798 -1.8042  2.0165  0.8132
16435TIP3    H270721   2.384   5.474  10.893 -0.4510  0.7943  0.4521
16436TIP3   OH270722   4.256   2.484   0.283  0.2457 -0.7081  0.1231
16436TIP3    H170723   4.316   2.551   0.313 -0.9336  0.5349 -0.2095
16436TIP3    H270724   4.313   2.417   0.243  1.3523  0.8140 -0.9466
16437TIP3   OH270725   1.172   0.680  15.378 -0.6122  0.4443 -0.4093
16437TIP3    H170726   1.197   0.657  15.288 -1.3768  1.4281 -0.8887
16437TIP3    H270727   1.203   0.606  15.431  0.9029  0.3859 -1.3105
16438TIP3   OH270728   6.117   6.301  12.698 -0.2262  0.7452 -0.7653
16438TIP3    H170729   6.164   6.280  12.779 -0.1022  3.3983 -0.0791
16438TIP3    H270730   6.185   6.296  12.630  0.0497  0.2126 -0.4606
16439TIP3   OH270731   4.254   3.302   6.088  0.2192 -0.0913  0.0554
16439TIP3    H170732   4.232   3.218   6.049  1.8547 -1.3816  1.7197
16439TIP3    H270733   4.178   3.358   6.070 -0.7551 -1.7941 -1.4034
16440TIP3   OH270734   4.621   0.918  15.217  0.3930 -0.3513 -0.2681
16440TIP3    H170735   4.686   0.969  15.266 -0.7103  0.0604  0.8362
16440TIP3    H270736   4.566   0.878  15.285 -1.9708  1.2562 -1.1040
16441TIP3   OH270737   1.022   3.594   0.531  0.1729  0.5999 -0.5216
16441TIP3    H170738   1.036   3.632   0.618 -4.2846 -1.4310  1.3842
16441TIP3    H270739   0.958   3.652   0.490  1.0076  0.6405 -1.7882
16442TIP3   OH270740   5.535   5.056   1.278 -0.8134 -0.1424 -0.3412
16442TIP3    H170741   5.495   4.971   1.259  0.6030 -1.2743  1.4090
16442TIP3    H270742   5.484   5.090   1.351 -0.6596 -0.0549 -0.2735
16443TIP3   OH270743   0.997   5.586  15.427  0.0685 -0.1102 -0.3182
16443TIP3    H170744   0.978   5.661  15.371  2.1876  0.1182 -0.7900
16443TIP3    H270745   0.937   5.596  15.501  0.2564  1.9987 -0.3953
16444TIP3   OH270746   0.612   6.045  16.788 -0.1729  0.2072 -0.6486
16444TIP3    H170747   0.616   6.004  16.875  0.7411  1.4618 -0.0685
16444TIP3    H270748   0.553   6.120  16.800 -0.6797 -0.0688 -1.3325
16445TIP3   OH270749   2.935   2.222  12.625  0.0066  0.3085 -0.5569
16445TIP3    H170750   2.948   2.316  12.610 -0.7960  0.2080 -2.0377
16445TIP3    H270751   3.023   2.185  12.618  0.2970  0.9165 -0.1982
16446TIP3   OH270752   1.953   6.619   3.821  0.5012  0.6096 -0.3353
16446TIP3    H170753   1.940   6.650   3.731  3.0168  0.0827 -0.9342
16446TIP3    H270754   1.982   6.528   3.812 -0.8831 -0.0418  1.1410
16447TIP3   OH270755   6.186   4.790  13.885 -0.5725  0.0666  0.0201
16447TIP3    H170756   6.195   4.728  13.813 -2.1627  0.5300 -0.6014
16447TIP3    H270757   6.236   4.867  13.858  0.8000 -0.6256  0.4789
16448TIP3   OH270758   5.104   6.424   6.243 -0.3916  0.4677  0.4987
16448TIP3    H170759   5.107   6.331   6.265  2.5488  0.6215  1.0951
16448TIP3    H270760   5.077   6.467   6.325 -2.1954  0.1535  0.0999
16449TIP3   OH270761   6.598   3.659  11.935 -0.0569 -0.2858  0.1655
16449TIP3    H170762   6.622   3.706  12.014 -0.2690 -0.6532  0.4516
16449TIP3    H270763   6.596   3.726  11.866 -1.1051  0.2633  0.7074
16450TIP3   OH270764   3.403   3.984   0.912 -0.6154  0.2850  0.1232
16450TIP3    H170765   3.313   4.001   0.943 -1.0738 -1.0446 -0.4065
16450TIP3    H270766   3.453   3.971   0.992 -1.1136  0.0322  0.4010
16451TIP3   OH270767   2.819   0.013  12.351 -0.1891  0.2098  0.1047
16451TIP3    H170768   2.891   0.075  12.348 -1.1468  1.3566  0.0239
16451TIP3    H270769   2.742   0.066  12.370 -1.1484 -0.8599 -0.6333
16452TIP3   OH270770   4.793   0.733  15.900  0.3380  0.4213  0.1896
16452TIP3    H170771   4.783   0.781  15.818  0.9465  1.5929  0.7828
16452TIP3    H270772   4.805   0.800  15.966 -1.9365 -0.3966  1.5640
16453TIP3   OH270773   1.524   2.992  13.926  0.3738 -0.2479  0.0770
16453TIP3    H170774   1.450   2.997  13.865 -0.8902 -2.2943  1.3324
16453TIP3    H270775   1.526   3.078  13.969 -1.2175 -0.1159 -0.0568
16454TIP3   OH270776   0.531   6.541  13.999 -0.1333 -0.5505  0.6925
16454TIP3    H170777   0.623   6.514  13.998 -0.3218 -1.5462 -2.7665
16454TIP3    H270778   0.533   6.631  13.965 -0.4558 -0.8374 -0.1074
16455TIP3   OH270779   1.884   5.323  12.286 -0.1740 -0.4509 -0.9318
16455TIP3    H170780   1.918   5.252  12.340  0.2199 -0.2928 -0.9691
16455TIP3    H270781   1.840   5.382  12.347  0.7215 -0.0058 -0.7172
16456TIP3   OH270782   2.837   4.494  12.101  0.3739 -0.2776  0.4037
16456TIP3    H170783   2.787   4.437  12.043 -0.6909  1.4326 -0.4319
16456TIP3    H270784   2.927   4.463  12.094 -0.0396 -1.2855 -0.7100
16457TIP3   OH270785   6.303   1.603  13.316  0.0482  0.2570 -0.1584
16457TIP3    H170786   6.246   1.540  13.361  0.4330 -0.2865 -0.4238
16457TIP3    H270787   6.280   1.687  13.355 -2.3837  0.3671 -1.6735
16458TIP3   OH270788   1.714   3.840   1.914 -0.1252  0.0407  0.0573
16458TIP3    H170789   1.752   3.827   2.001 -0.6453 -0.4424  0.2200
16458TIP3    H270790   1.624   3.809   1.923 -0.4845  0.9394 -0.3850
16459TIP3   OH270791   1.575   5.850  14.863  0.1370 -0.1303 -0.6344
16459TIP3    H170792   1.528   5.925  14.827  1.3443 -0.1392 -2.3405
16459TIP3    H270793   1.584   5.789  14.789  1.9841 -0.5214 -0.1322
16460TIP3   OH270794   0.166   4.647   1.048  0.3942 -0.0514 -0.1068
16460TIP3    H170795   0.135   4.627   0.959 -0.3280  1.7716 -0.3009
16460TIP3    H270796   0.194   4.562   1.083 -1.2023 -1.1422 -1.3323
16461TIP3   OH270797   3.409   1.835   2.618 -0.0400  0.4342 -0.1183
16461TIP3    H170798   3.394   1.919   2.662 -0.4138 -0.3694  1.3434
16461TIP3    H270799   3.402   1.855   2.525 -0.3268  1.9857  0.2128
16462TIP3   OH270800   3.743   1.373  12.289 -0.0671  0.0198  0.9616
16462TIP3    H170801   3.795   1.298  12.319 -0.9446  0.1557  3.0329
16462TIP3    H270802   3.652   1.347  12.304 -0.6355  0.0519 -1.9528
16463TIP3   OH270803   1.161   5.967  11.666  0.5164 -0.2712  0.4225
16463TIP3    H170804   1.163   5.955  11.571  2.7840  0.2287  0.3542
16463TIP3    H270805   1.072   5.942  11.692 -0.7396  1.3546 -2.0294
16464TIP3   OH270806   6.136   5.769  16.775  0.4071 -0.2665 -0.5155
16464TIP3    H170807   6.150   5.684  16.734  2.5717 -0.2197  0.0320
16464TIP3    H270808   6.174   5.761  16.862  1.7644  1.6148 -0.8800
16465TIP3   OH270809   0.781   5.651   4.876 -0.4984  0.1841 -0.1316
16465TIP3    H170810   0.789   5.703   4.796  1.4890 -0.3895 -0.3517
16465TIP3    H270811   0.866   5.658   4.918 -1.2259 -0.2532  1.5222
16466TIP3   OH270812   5.411   6.108   3.826 -0.3042  0.4120  0.0350
16466TIP3    H170813   5.484   6.118   3.887  0.2669 -0.4064 -0.4892
16466TIP3    H270814   5.337   6.081   3.881 -0.2558  1.3656  0.5859
16467TIP3   OH270815   6.684   0.861  12.385 -0.6109 -0.0007 -0.1435
16467TIP3    H170816   6.744   0.916  12.335 -0.7893  0.9098  0.6144
16467TIP3    H270817   6.604   0.858  12.332 -0.5925  0.4694 -0.2020
16468TIP3   OH270818   6.613   2.353  12.842 -0.0192  0.4082 -0.4170
16468TIP3    H170819   6.605   2.439  12.801  0.5207  1.6945  1.9402
16468TIP3    H270820   6.553   2.357  12.917  0.4440 -1.0613  0.0583
16469TIP3   OH270821   0.903   3.215   2.821 -0.2291  0.5792 -0.4839
16469TIP3    H170822   0.848   3.140   2.798  0.2654 -0.0218  0.2417
16469TIP3    H270823   0.844   3.291   2.817 -0.6546  0.2116 -1.5628
16470TIP3   OH270824   5.611   0.894  12.558  0.7523 -0.1693  0.0447
16470TIP3    H170825   5.701   0.861  12.550  0.9602  0.0738  1.2327
16470TIP3    H270826   5.557   0.815  12.559  0.9640 -0.3262 -0.3810
16471TIP3   OH270827   1.608   5.197  11.270  0.1545  0.1733  0.1509
16471TIP3    H170828   1.513   5.208  11.277  0.2451  0.6817  0.6822
16471TIP3    H270829   1.626   5.194  11.176 -0.3053  0.8119  0.0401
16472TIP3   OH270830   4.752   6.170  13.649  0.3970  0.0254 -0.2108
16472TIP3    H170831   4.781   6.129  13.568 -0.7502  1.3944 -1.3737
16472TIP3    H270832   4.806   6.249  13.656  0.7830 -0.3016  0.6054
16473TIP3   OH270833   5.022   5.702   1.977  0.2587 -0.3820  0.0637
16473TIP3    H170834   4.993   5.750   2.055  2.3396 -0.2621  0.8328
16473TIP3    H270835   5.015   5.610   2.002 -0.7425 -0.4112 -0.2750
16474TIP3   OH270836   0.115   3.186   2.135  0.1055  0.0266 -0.5007
16474TIP3    H170837   0.083   3.140   2.058  0.9541 -0.2473 -0.7042
16474TIP3    H270838   0.118   3.118   2.203 -1.7842  0.5219  0.1374
16475TIP3   OH270839   0.168   5.478  15.040 -0.4059 -0.1146  0.0841
16475TIP3    H170840   0.228   5.489  14.966 -0.2452 -0.6337  0.1386
16475TIP3    H270841   0.137   5.388  15.033  0.2960 -0.4549  1.1711
16476TIP3   OH270842   1.944   6.355  11.246  0.1109  0.7059 -0.0323
16476TIP3    H170843   1.937   6.260  11.248 -1.3445  0.7847 -0.5576
16476TIP3    H270844   2.012   6.373  11.180  0.0699  0.0485 -0.2568
16477TIP3   OH270845   0.537   0.035  16.452  1.1804 -0.5246  0.1046
16477TIP3    H170846   0.632   0.022  16.452  1.1782 -0.5809  0.8948
16477TIP3    H270847   0.520   0.088  16.529  0.4375 -1.5526  0.6644
16478TIP3   OH270848   0.644   4.787  15.746  0.7760  0.3259 -0.1403
16478TIP3    H170849   0.614   4.822  15.662 -0.2376 -0.8005 -0.2573
16478TIP3    H270850   0.701   4.714  15.723  3.8567  2.4276  0.0655
16479TIP3   OH270851   2.289   6.246   4.817  0.3572  0.0412  0.6084
16479TIP3    H170852   2.376   6.206   4.818  1.6201  2.5044  3.1099
16479TIP3    H270853   2.237   6.191   4.875  1.3970  0.6142  2.1435
16480TIP3   OH270854   6.066   5.597   2.094 -0.2930 -0.6790  0.1475
16480TIP3    H170855   5.997   5.533   2.106 -0.2414 -0.8692 -0.5520
16480TIP3    H270856   6.132   5.573   2.159  0.3564 -2.2020 -1.0201
16481TIP3   OH270857   6.251   5.267  13.633  0.2124  0.5791  0.2444
16481TIP3    H170858   6.328   5.227  13.673 -0.3875 -0.3436  0.5143
16481TIP3    H270859   6.226   5.206  13.563 -0.8448  0.3376  0.8029
16482TIP3   OH270860   4.635   1.082   6.129  0.3141 -0.0070  0.9507
16482TIP3    H170861   4.539   1.079   6.137  0.1698  0.1089 -0.4865
16482TIP3    H270862   4.655   1.015   6.064  1.1189  0.6127  0.5510
16483TIP3   OH270863   0.520   3.612   2.926 -0.2367  0.3066 -0.1880
16483TIP3    H170864   0.431   3.578   2.920  0.1992 -0.9173 -0.0099
16483TIP3    H270865   0.572   3.554   2.872  0.7178  0.0301  0.9790
16484TIP3   OH270866   0.158   6.090  13.530 -0.3485  0.0026 -0.0998
16484TIP3    H170867   0.232   6.120  13.478  0.6586 -0.0358  1.2547
16484TIP3    H270868   0.106   6.168  13.547  0.0311  0.2456 -0.0575
16485TIP3   OH270869   3.495   1.621   2.139 -0.3180 -0.3647  0.3604
16485TIP3    H170870   3.570   1.668   2.175  0.1917 -1.3266  0.5829
16485TIP3    H270871   3.532   1.541   2.103 -0.8586  0.3598 -1.9616
16486TIP3   OH270872   2.557   6.431  11.012 -0.2167  0.3440 -0.7040
16486TIP3    H170873   2.545   6.336  11.004  0.4660  0.2518 -0.7204
16486TIP3    H270874   2.612   6.454  10.937  0.8165  0.5143  0.0706
16487TIP3   OH270875   6.691   1.041  15.352 -0.2021  0.1162  0.0329
16487TIP3    H170876   6.713   1.116  15.298  0.0911  0.7256  0.9812
16487TIP3    H270877   6.771   1.021  15.400 -0.4320 -0.4647  0.1842
16488TIP3   OH270878   1.725   0.805  13.393  0.6820  0.0473 -0.5105
16488TIP3    H170879   1.728   0.712  13.416  1.3454  0.0317 -0.6351
16488TIP3    H270880   1.634   0.831  13.409  0.6295 -0.4790  0.0968
16489TIP3   OH270881   0.437   1.444  14.357  0.0003 -0.5417 -0.0903
16489TIP3    H170882   0.405   1.427  14.445  1.1681 -0.3670  0.3890
16489TIP3    H270883   0.532   1.430  14.363  0.2932  0.9195 -0.9640
16490TIP3   OH270884   4.158   1.177   5.155 -0.6025  0.4359 -0.3724
16490TIP3    H170885   4.113   1.132   5.084 -0.3126  0.3205 -0.4822
16490TIP3    H270886   4.194   1.256   5.115  0.6678 -0.2634 -0.6575
16491TIP3   OH270887   3.006   3.335   1.646 -0.1693  0.1075  0.0336
16491TIP3    H170888   3.073   3.306   1.707 -0.1979  1.4246  0.7362
16491TIP3    H270889   3.048   3.333   1.560  0.2443 -0.6313  0.2477
16492TIP3   OH270890   5.712   6.411  12.858 -0.0626 -0.0113 -0.3538
16492TIP3    H170891   5.650   6.417  12.931 -0.9080 -2.3338 -0.8005
16492TIP3    H270892   5.678   6.340  12.804  1.6282  0.3570 -1.9879
16493TIP3   OH270893   3.084   3.237   4.331  0.3230  0.5771 -0.4605
16493TIP3    H170894   3.146   3.209   4.397 -0.5625 -3.1086 -0.9871
16493TIP3    H270895   3.127   3.220   4.247 -0.1370  1.2008 -0.8405
16494TIP3   OH270896   3.629   3.411  15.046 -0.0332  0.1112 -0.1718
16494TIP3    H170897   3.724   3.402  15.058  0.4124  3.7377  0.1796
16494TIP3    H270898   3.614   3.388  14.954  0.8474 -2.0528  0.1602
16495TIP3   OH270899   1.830   6.487  14.454  0.6068  0.2864  0.6616
16495TIP3    H170900   1.904   6.491  14.394  1.3034 -1.5653  1.3373
16495TIP3    H270901   1.760   6.446  14.405  0.3690  1.0394  0.3617
16496TIP3   OH270902   5.181   6.132   3.166  0.4818  0.1431 -0.1990
16496TIP3    H170903   5.274   6.130   3.191  0.5901 -0.8052 -0.6494
16496TIP3    H270904   5.145   6.051   3.202  0.2808 -0.4662 -1.7038
16497TIP3   OH270905   5.391   0.706  12.587  0.2064 -0.4673 -0.3295
16497TIP3    H170906   5.340   0.641  12.539 -0.3993  0.2462 -0.6672
16497TIP3    H270907   5.397   0.671  12.676 -2.0085  0.0336  0.0631
16498TIP3   OH270908   2.374   0.071  11.033  0.3181  0.1429  0.0354
16498TIP3    H170909   2.416  -0.014  11.044  1.6665  1.0525  3.5838
16498TIP3    H270910   2.281   0.055  11.047  0.4655 -0.8592 -0.1078
16499TIP3   OH270911   1.124   3.387   0.367  0.8687 -0.3979 -0.4819
16499TIP3    H170912   1.053   3.397   0.303  0.0372 -1.0195  0.3250
16499TIP3    H270913   1.087   3.421   0.449  1.0879 -1.7583  0.2056
16500TIP3   OH270914   3.020   1.016  12.678 -0.3176 -0.3007 -0.4073
16500TIP3    H170915   3.056   0.997  12.591  1.6526 -1.8991  0.6569
16500TIP3    H270916   3.095   1.006  12.737 -1.0140  3.1498  1.2855
16501TIP3   OH270917   0.662   2.112  11.042  0.1291 -0.7095 -0.4620
16501TIP3    H170918   0.657   2.033  11.097 -0.1190 -0.1699  0.3041
16501TIP3    H270919   0.729   2.166  11.084  0.8791 -0.8434 -1.4410
16502TIP3   OH270920   6.129   3.202   5.072 -0.1852 -0.1836  0.6447
16502TIP3    H170921   6.168   3.282   5.038 -0.4972  0.0415  0.8029
16502TIP3    H270922   6.131   3.141   4.998 -0.1933  0.0610  0.4390
16503TIP3   OH270923   5.067   0.935   4.245  0.0350  0.3008 -0.0363
16503TIP3    H170924   5.062   0.951   4.340  0.3870 -0.7293  0.1771
16503TIP3    H270925   5.156   0.960   4.221  0.2638 -0.3475  0.1058
16504TIP3   OH270926   2.042   2.716   5.133  0.1663 -0.3729 -0.1100
16504TIP3    H170927   2.076   2.651   5.194  0.1717  0.0327  0.3217
16504TIP3    H270928   1.947   2.708   5.139  0.1686 -0.4101 -0.1279
16505TIP3   OH270929   0.817   2.538  11.556 -0.0092  0.5349  0.0229
16505TIP3    H170930   0.807   2.551  11.650 -1.3499 -0.2321  0.0121
16505TIP3    H270931   0.845   2.623  11.523 -1.1715  1.2828  0.9059
16506TIP3   OH270932   5.291   2.149  16.344  0.2230 -0.4953 -0.5916
16506TIP3    H170933   5.239   2.077  16.378  0.2460 -0.7642 -1.1158
16506TIP3    H270934   5.269   2.153  16.251 -0.0361  0.3984 -0.4988
16507TIP3   OH270935   0.174   5.379  12.235  0.3285  0.0403 -0.2489
16507TIP3    H170936   0.079   5.378  12.225  0.1746 -0.0641  0.9878
16507TIP3    H270937   0.206   5.423  12.156 -0.7627  0.3301 -0.5532
16508TIP3   OH270938   0.619   2.529   1.092 -0.2618  0.0532 -0.6836
16508TIP3    H170939   0.677   2.599   1.062 -0.4205  0.9464  0.9399
16508TIP3    H270940   0.641   2.453   1.039  1.0922  0.8899 -1.3486
16509TIP3   OH270941   0.252   0.950   5.478  0.0969 -0.0276 -0.1354
16509TIP3    H170942   0.203   1.032   5.488  0.2437  0.3597 -2.1184
16509TIP3    H270943   0.342   0.974   5.500  0.7139  1.1953 -3.3431
16510TIP3   OH270944   6.101   6.726  14.426 -0.1026 -0.0353 -0.0948
16510TIP3    H170945   6.139   6.684  14.503  1.7107 -1.6514 -1.7574
16510TIP3    H270946   6.163   6.795  14.403 -0.4811  0.2492 -0.2791
16511TIP3   OH270947   3.761   4.937  11.750 -0.1374  0.2326 -0.0380
16511TIP3    H170948   3.681   4.916  11.702  1.0506 -1.4741 -1.4157
16511TIP3    H270949   3.771   5.032  11.742 -1.1195  0.2420 -1.2959
16512TIP3   OH270950   0.640   3.299   0.701  0.8164 -0.0810 -0.4682
16512TIP3    H170951   0.676   3.348   0.627  1.3305  0.7688  0.3289
16512TIP3    H270952   0.590   3.228   0.660  2.7727 -0.8810 -1.6232
16513TIP3   OH270953   5.842   2.065  12.512  0.4446  0.1987  0.2833
16513TIP3    H170954   5.762   2.118  12.519  0.3166  0.0815 -0.2779
16513TIP3    H270955   5.813   1.980  12.479  0.6279 -0.2970  1.3527
16514TIP3   OH270956   3.765   3.931  16.116 -0.5566 -0.2804 -0.0462
16514TIP3    H170957   3.680   3.962  16.087  0.5600  2.5526 -0.5728
16514TIP3    H270958   3.771   3.958  16.208 -0.0968 -0.1632 -0.1052
16515TIP3   OH270959   4.384   5.105  13.923  0.6125 -0.1944 -0.5441
16515TIP3    H170960   4.429   5.022  13.907  0.4238 -0.4460  0.2211
16515TIP3    H270961   4.309   5.104  13.863 -0.1386 -1.1648  0.3886
16516TIP3   OH270962   0.340   4.369  16.988  0.0857 -0.3377 -0.0895
16516TIP3    H170963   0.360   4.425  16.913  2.6742  1.1873  1.6032
16516TIP3    H270964   0.289   4.297  16.951  1.1599  0.3966 -3.2892
16517TIP3   OH270965   2.417   3.079   1.377 -0.0046 -0.1659 -0.5780
16517TIP3    H170966   2.400   3.104   1.286 -2.5934 -2.0068 -0.7438
16517TIP3    H270967   2.452   3.157   1.418 -0.7752  1.3694 -2.6744
16518TIP3   OH270968   4.890   6.161  15.289  0.8965 -0.6548  0.0982
16518TIP3    H170969   4.917   6.083  15.239  0.8228 -0.2338 -0.6199
16518TIP3    H270970   4.902   6.136  15.380  1.0549 -1.4466 -0.1271
16519TIP3   OH270971   2.683   5.984  12.400  0.7200 -0.2789 -0.2874
16519TIP3    H170972   2.774   5.971  12.427  1.0352  2.0176 -0.0419
16519TIP3    H270973   2.683   5.968  12.306  1.6099  0.6964 -0.4642
16520TIP3   OH270974   4.889   0.637   3.957 -0.0208 -0.1923 -0.0784
16520TIP3    H170975   4.820   0.630   3.891  0.4691 -0.2411 -0.5946
16520TIP3    H270976   4.845   0.672   4.034 -1.1707 -2.4797  0.4036
16521TIP3   OH270977   4.485   5.745   0.555 -0.3394  0.1255 -0.0661
16521TIP3    H170978   4.443   5.659   0.560  0.9891 -0.6239 -1.0714
16521TIP3    H270979   4.578   5.726   0.569 -0.2941  1.7730  2.6023
16522TIP3   OH270980   5.323   0.081  11.566 -0.2654  0.1714 -0.0633
16522TIP3    H170981   5.318   0.056  11.473 -0.8663 -2.1034  0.5133
16522TIP3    H270982   5.232   0.083  11.595 -0.0323 -0.5793  0.7903
16523TIP3   OH270983   4.123   6.074  15.459 -0.0228 -0.3561  0.8491
16523TIP3    H170984   4.090   6.143  15.515 -0.4516 -0.8286  1.1883
16523TIP3    H270985   4.164   6.011  15.519 -0.2047 -0.7105  0.6113
16524TIP3   OH270986   1.975   2.590  14.525 -0.0259  0.5291  0.0451
16524TIP3    H170987   1.998   2.520  14.464 -0.1598  1.0232 -0.5878
16524TIP3    H270988   1.984   2.671  14.474 -1.4528  0.8641  0.2640
16525TIP3   OH270989   0.825   5.100   5.525 -0.1858 -0.5247  0.4123
16525TIP3    H170990   0.920   5.090   5.526  0.0143  1.0368  0.3104
16525TIP3    H270991   0.795   5.033   5.463  0.7926 -1.3456  0.7924
16526TIP3   OH270992   5.732   6.077   1.674  0.4401 -0.8487  0.0854
16526TIP3    H170993   5.768   6.029   1.749 -0.7625 -0.1319  1.1893
16526TIP3    H270994   5.637   6.066   1.683  0.2948 -1.7500 -2.0665
16527TIP3   OH270995   5.348   0.767   1.904  0.3028 -0.2510  0.0548
16527TIP3    H170996   5.325   0.779   1.812  0.4546 -1.0460 -0.0942
16527TIP3    H270997   5.302   0.838   1.949 -2.3451 -1.6350 -0.2571
16528TIP3   OH270998   4.854   3.803   1.479  0.9099 -0.0616 -0.2721
16528TIP3    H170999   4.894   3.717   1.467  0.2884 -0.5063  0.6957
16528TIP3    H271000   4.760   3.785   1.488  0.9566  0.4869  1.8405
16529TIP3   OH271001   3.692   2.826  16.951 -0.1672  0.0422  0.1684
16529TIP3    H171002   3.612   2.875  16.933  0.3819  0.4745 -1.1836
16529TIP3    H271003   3.663   2.754  17.007 -1.0101  1.8098  2.1492
16530TIP3   OH271004   4.645   2.228  13.948 -0.0060 -0.2269 -0.2009
16530TIP3    H171005   4.656   2.174  13.869  1.1161 -0.0293 -0.1923
16530TIP3    H271006   4.721   2.285  13.948 -0.5564  0.5188  0.4600
16531TIP3   OH271007   0.889   6.169  11.616  0.5331  0.5902  0.3075
16531TIP3    H171008   0.844   6.251  11.634  0.0754  0.2547  0.7060
16531TIP3    H271009   0.981   6.187  11.634  0.7759  1.6568 -1.7247
16532TIP3   OH271010   2.447   5.995   4.933  0.1746 -0.3721  0.2863
16532TIP3    H171011   2.408   6.033   5.012 -0.7338 -1.7384  0.5307
16532TIP3    H271012   2.462   5.904   4.956  1.0690 -0.4905 -0.7197
16533TIP3   OH271013   3.320   3.924   6.264  0.5664 -0.1969  0.2953
16533TIP3    H171014   3.268   3.957   6.337  3.3698  4.0133  0.7471
16533TIP3    H271015   3.355   3.840   6.294 -1.5991 -0.5532  2.0262
16534TIP3   OH271016   3.150   4.190   3.231 -0.0067 -0.4488  0.0484
16534TIP3    H171017   3.130   4.161   3.320  0.3530  2.4240  1.1806
16534TIP3    H271018   3.065   4.219   3.196 -0.0595 -1.1157 -0.4099
16535TIP3   OH271019   4.595   0.425   0.917 -0.2382  0.0332  0.3507
16535TIP3    H171020   4.567   0.340   0.951 -0.5131 -1.0737 -2.4015
16535TIP3    H271021   4.691   0.421   0.919 -0.2214  0.5367  2.1315
16536TIP3   OH271022   6.117   5.164  16.383 -0.0356  0.0406  0.8786
16536TIP3    H171023   6.139   5.086  16.434 -0.0926 -2.4279 -2.5547
16536TIP3    H271024   6.201   5.204  16.363  0.1530 -0.3591  0.8684
16537TIP3   OH271025   0.476   4.121  11.294 -0.2064  0.1394 -0.5344
16537TIP3    H171026   0.398   4.165  11.329 -0.3271 -0.6649  0.2655
16537TIP3    H271027   0.455   4.028  11.302  0.8136 -0.0820 -0.3575
16538TIP3   OH271028   1.702   5.077   0.734  0.1550  0.3564  0.0375
16538TIP3    H171029   1.696   5.070   0.829 -4.0687  0.5763 -0.0186
16538TIP3    H271030   1.653   5.002   0.701 -0.8361  1.7488 -1.8436
16539TIP3   OH271031   5.772   5.796   5.420 -0.2982 -0.3230 -0.4059
16539TIP3    H171032   5.695   5.785   5.476 -0.9554 -0.4109 -1.3125
16539TIP3    H271033   5.806   5.707   5.408  0.7953 -0.1519  1.1360
16540TIP3   OH271034   6.291   0.049  16.030  0.5116 -0.0960  0.1040
16540TIP3    H171035   6.307   0.101  16.108  0.0763 -0.0944  0.1964
16540TIP3    H271036   6.196   0.050  16.020  0.6314  1.1341 -1.2544
16541TIP3   OH271037   2.716   6.623  14.279  0.7094 -0.5890  0.1995
16541TIP3    H171038   2.811   6.632  14.269  0.6116  2.3648  0.9244
16541TIP3    H271039   2.687   6.711  14.304 -2.1094 -1.6445  0.9563
16542TIP3   OH271040   5.911   5.295   3.596 -0.2099 -0.2073  0.2949
16542TIP3    H171041   5.924   5.201   3.592  1.7062  0.0407 -0.3093
16542TIP3    H271042   5.873   5.311   3.683 -0.1371 -1.4710  0.5658
16543TIP3   OH271043   1.923   6.460   4.946 -0.0339 -0.0111  0.0195
16543TIP3    H171044   1.994   6.496   4.893 -0.0523 -0.0732 -0.0472
16543TIP3    H271045   1.901   6.377   4.904 -0.5433  0.2812 -0.3034
16544TIP3   OH271046   0.473   1.276  16.887 -0.0727 -0.5512  0.7287
16544TIP3    H171047   0.449   1.184  16.896 -1.1099 -0.1462  2.6203
16544TIP3    H271048   0.390   1.322  16.873  0.5711 -0.0120 -2.0609
16545TIP3   OH271049   1.751   3.528  15.069 -0.1614 -0.1436 -0.0314
16545TIP3    H171050   1.707   3.473  15.134  0.4432  1.0869  1.4803
16545TIP3    H271051   1.830   3.479  15.046 -0.1498 -0.3846  0.5148
16546TIP3   OH271052   0.089   2.936  12.343  0.5166  0.1906 -0.4510
16546TIP3    H171053   0.034   3.014  12.359  0.5820  0.5193 -1.7328
16546TIP3    H271054   0.175   2.960  12.377  0.7845  1.0634 -1.6768
16547TIP3   OH271055   4.894   5.693   4.639 -0.0578 -0.2003  0.8754
16547TIP3    H171056   4.853   5.639   4.571  0.2639  0.5752  0.0489
16547TIP3    H271057   4.986   5.669   4.636  0.1357  0.5913  0.3056
16548TIP3   OH271058   5.977   6.739  11.347 -0.0990  0.2618  0.1921
16548TIP3    H171059   5.997   6.818  11.397  1.8561  0.1352 -0.3161
16548TIP3    H271060   5.997   6.667  11.408  3.1562  0.0779 -0.9041
16549TIP3   OH271061   4.886   5.255  15.386  0.1160  0.0088 -0.1475
16549TIP3    H171062   4.961   5.225  15.437  0.0589 -0.0729 -0.1129
16549TIP3    H271063   4.834   5.307  15.447 -0.4052 -0.7994  0.1138
16550TIP3   OH271064   1.371   0.071  14.889 -0.1888 -0.5192 -0.2682
16550TIP3    H171065   1.354  -0.012  14.933 -0.3871 -0.0099  0.6374
16550TIP3    H271066   1.294   0.086  14.835 -0.1075 -0.9716 -0.5105
16551TIP3   OH271067   0.647   0.809  10.780 -0.1112  0.7666  0.3489
16551TIP3    H171068   0.633   0.714  10.772  0.8206  0.6608 -0.0596
16551TIP3    H271069   0.730   0.817  10.826  0.0033  1.3956  0.0339
16552TIP3   OH271070   2.372   0.658   3.491 -0.4295  0.2099 -0.3061
16552TIP3    H171071   2.366   0.644   3.397  0.7193  0.8904 -0.4998
16552TIP3    H271072   2.419   0.581   3.524 -1.1650 -0.2124 -0.2239
16553TIP3   OH271073   1.702   2.198  15.181  0.0786 -0.1453  0.6317
16553TIP3    H171074   1.739   2.234  15.100 -0.2399 -1.3493 -0.0768
16553TIP3    H271075   1.774   2.150  15.220  0.9076  2.2186  2.2700
16554TIP3   OH271076   2.833   0.380  10.818  0.1609  0.5694 -0.1935
16554TIP3    H171077   2.799   0.300  10.779  0.2583  0.8234 -0.8104
16554TIP3    H271078   2.926   0.380  10.797  0.4640  0.1272  1.0601
16555TIP3   OH271079   0.103   2.648   1.351  0.5632 -0.0902 -0.2601
16555TIP3    H171080   0.164   2.720   1.367  0.5353 -0.1625  0.1742
16555TIP3    H271081   0.044   2.649   1.426 -0.5236  0.5294 -1.0913
16556TIP3   OH271082   1.741   2.535  10.663 -0.5548  0.1592 -0.2483
16556TIP3    H171083   1.716   2.546  10.755 -0.8934  0.1552 -0.3356
16556TIP3    H271084   1.757   2.441  10.654 -0.5682  0.1524 -0.2036
16557TIP3   OH271085   3.301   2.105  16.794  0.7789 -0.1083 -0.0330
16557TIP3    H171086   3.348   2.087  16.875  1.3919 -1.6455 -0.6959
16557TIP3    H271087   3.337   2.043  16.731 -2.8201 -2.1542 -0.3405
16558TIP3   OH271088   5.813   0.061  15.064 -0.0193 -0.5050 -0.2995
16558TIP3    H171089   5.893   0.014  15.041  0.7770  0.6371  0.1008
16558TIP3    H271090   5.840   0.124  15.131 -1.5577 -1.1860  1.0509
16559TIP3   OH271091   1.400   3.393   5.442  0.0398  0.1415 -0.6331
16559TIP3    H171092   1.437   3.318   5.489 -1.4600 -0.9746 -1.1529
16559TIP3    H271093   1.305   3.383   5.452 -0.2565  0.8768 -2.3281
16560TIP3   OH271094   5.871   0.717  15.026  0.3663  0.0019 -0.1723
16560TIP3    H171095   5.859   0.798  14.977  2.4552  0.7791  0.5122
16560TIP3    H271096   5.949   0.676  14.989  0.3469 -0.8267  0.6398
16561TIP3   OH271097   0.806   3.532   6.899  1.1133 -0.8777  0.1679
16561TIP3    H171098   0.822   3.507   6.808  0.3688 -0.0186 -0.2176
16561TIP3    H271099   0.893   3.543   6.936  1.4606  0.1206 -0.8479
16562TIP3   OH271100   1.849   0.210  16.868 -0.5567 -0.0618 -0.6038
16562TIP3    H171101   1.937   0.171  16.873 -2.0930 -3.9407  0.1117
16562TIP3    H271102   1.814   0.178  16.784 -1.7000  0.3935 -0.3084
16563TIP3   OH271103   2.117   3.235  15.624 -0.9532  0.2523  0.4581
16563TIP3    H171104   2.061   3.167  15.662  0.2006 -0.1386  1.5433
16563TIP3    H271105   2.107   3.225  15.530  0.9740 -3.0612  0.4345
16564TIP3   OH271106   1.736   5.230   5.342  0.0663  0.0071 -0.2856
16564TIP3    H171107   1.687   5.170   5.398  2.4094 -3.3172 -1.4945
16564TIP3    H271108   1.813   5.255   5.394  1.3729 -1.7310 -1.2708
16565TIP3   OH271109   4.277   1.634   5.711 -0.4467 -0.5034 -0.6428
16565TIP3    H171110   4.329   1.554   5.702  0.3759 -0.0187 -0.3494
16565TIP3    H271111   4.271   1.669   5.623 -2.8116 -2.0701 -1.1941
16566TIP3   OH271112   1.375   2.962  15.294 -0.6536 -0.1724 -0.3108
16566TIP3    H171113   1.326   3.041  15.317 -2.8136 -1.4892 -0.0924
16566TIP3    H271114   1.383   2.965  15.199 -0.6942  0.3046 -0.3017
16567TIP3   OH271115   4.161   4.244   0.334  0.3546  0.0199  0.1203
16567TIP3    H171116   4.116   4.195   0.402 -0.1210  0.8911  0.4531
16567TIP3    H271117   4.181   4.328   0.374  0.6222  0.3217 -0.6196
16568TIP3   OH271118   3.880   6.586   4.850 -0.9249  0.4374 -0.5012
16568TIP3    H171119   3.941   6.652   4.884 -0.8927  0.2287 -0.1549
16568TIP3    H271120   3.795   6.630   4.850 -1.2319 -0.0829  1.4287
16569TIP3   OH271121   6.643   0.641   4.015 -0.3487  0.2925  0.3452
16569TIP3    H171122   6.704   0.638   4.089 -0.4830 -1.0611  0.4214
16569TIP3    H271123   6.577   0.575   4.035 -1.3781  1.1437 -0.1492
16570TIP3   OH271124   4.386   4.001  16.619 -0.2735  0.5223  0.0100
16570TIP3    H171125   4.359   3.965  16.535 -0.6206 -0.1563  0.4027
16570TIP3    H271126   4.458   3.943  16.647 -1.2849 -0.3206  0.9664
16571TIP3   OH271127   5.282   3.201  14.781  0.3322  0.5406 -0.1039
16571TIP3    H171128   5.291   3.114  14.741  1.9736  1.5639 -2.1472
16571TIP3    H271129   5.189   3.206  14.807 -0.3275 -1.0002 -1.9479
16572TIP3   OH271130   3.203   3.750   4.827  0.4888  0.2136 -0.4459
16572TIP3    H171131   3.124   3.697   4.821  1.2648 -1.0977  0.3769
16572TIP3    H271132   3.205   3.800   4.745 -0.6257 -0.5280 -0.9467
16573TIP3   OH271133   2.175   2.502   4.087  0.4917 -0.5125  0.1695
16573TIP3    H171134   2.165   2.471   3.997 -1.2924 -0.6328  0.3885
16573TIP3    H271135   2.130   2.587   4.089  0.6947 -0.4112  0.9071
16574TIP3   OH271136   1.889   4.906   3.131  0.7143 -0.0953  0.0326
16574TIP3    H171137   1.982   4.913   3.108  0.7703 -1.2244 -0.1132
16574TIP3    H271138   1.853   4.992   3.108  1.8224  0.5584  0.6130
16575TIP3   OH271139   3.540   2.241   3.056  0.5592  0.1817 -0.2156
16575TIP3    H171140   3.446   2.247   3.041  0.3423  0.7574  1.2573
16575TIP3    H271141   3.555   2.148   3.077  0.1978  0.2290  0.2654
16576TIP3   OH271142   1.894   3.253   3.383  0.5308  0.1114 -0.3737
16576TIP3    H171143   1.953   3.182   3.360  0.7825  0.8664 -2.2022
16576TIP3    H271144   1.895   3.311   3.307  0.9982  2.5308  1.3779
16577TIP3   OH271145   2.255   2.495  13.269  0.4086  0.0399  0.1208
16577TIP3    H171146   2.202   2.432  13.221 -1.7879 -0.4060  2.8734
16577TIP3    H271147   2.204   2.576  13.267  1.1657  0.5368  0.1954
16578TIP3   OH271148   1.583   5.851   4.025 -0.2042 -0.3483  0.1697
16578TIP3    H171149   1.627   5.882   3.946  2.4611 -1.5270  1.0639
16578TIP3    H271150   1.490   5.865   4.008  0.4044  1.4047 -2.2775
16579TIP3   OH271151   1.809   5.918   2.441 -0.0709  0.3761 -0.1621
16579TIP3    H171152   1.754   5.991   2.415 -2.9588 -2.3470 -2.3898
16579TIP3    H271153   1.886   5.925   2.385 -0.4311  1.5154 -0.5437
16580TIP3   OH271154   1.432   1.218  11.692  0.0918  0.1696 -0.1969
16580TIP3    H171155   1.381   1.285  11.738  0.3946  0.5720 -0.4346
16580TIP3    H271156   1.514   1.262  11.669 -0.4830  0.3659 -2.1187
16581TIP3   OH271157   6.058   0.104  12.612  0.4211 -0.4481  0.0714
16581TIP3    H171158   6.015   0.134  12.532 -0.6191 -2.6136 -0.2621
16581TIP3    H271159   6.037   0.011  12.617  0.0797 -0.3164  3.0962
16582TIP3   OH271160   5.336   4.521  15.882  0.2507 -0.6387  0.1396
16582TIP3    H171161   5.285   4.551  15.956  1.2893 -0.2032  0.7061
16582TIP3    H271162   5.358   4.600  15.834 -1.6709 -1.0348 -1.5208
16583TIP3   OH271163   4.117   2.407  12.786  0.2467 -0.0203  0.2074
16583TIP3    H171164   4.211   2.422  12.791  0.5643 -2.0063  1.1744
16583TIP3    H271165   4.080   2.462  12.856  0.6466  0.8474 -0.2465
16584TIP3   OH271166   0.267   5.027   2.249 -0.3070 -0.2173 -0.3466
16584TIP3    H171167   0.359   5.007   2.269 -0.3457 -0.8358 -0.7680
16584TIP3    H271168   0.272   5.076   2.166 -0.3437 -0.0450 -0.2479
16585TIP3   OH271169   2.968   5.309  12.650 -0.0341 -0.6252 -0.0255
16585TIP3    H171170   3.010   5.392  12.673 -2.0819  0.5672 -0.3935
16585TIP3    H271171   2.934   5.275  12.733 -1.3764  0.1964 -0.2153
16586TIP3   OH271172   5.563   0.875   4.285  0.7004  0.0636  0.1925
16586TIP3    H171173   5.573   0.856   4.192  2.4653  0.8826  0.1892
16586TIP3    H271174   5.635   0.829   4.327 -0.0862 -0.3102  1.1861
16587TIP3   OH271175   0.140   1.984   0.959 -1.0687 -0.0414 -0.0921
16587TIP3    H171176   0.082   2.056   0.981 -0.5937  0.1097  0.7246
16587TIP3    H271177   0.223   2.026   0.938 -1.2639 -0.2506 -1.3304
16588TIP3   OH271178   1.984   2.126   0.521 -0.4435  0.4121  0.0151
16588TIP3    H171179   2.031   2.106   0.602  0.8485  2.2374 -0.2254
16588TIP3    H271180   1.897   2.155   0.550 -0.0181  0.9731  0.7599
16589TIP3   OH271181   3.460   6.419   5.200  0.2789  0.3565 -0.2024
16589TIP3    H171182   3.393   6.487   5.214 -0.2229 -0.0631 -0.5461
16589TIP3    H271183   3.470   6.414   5.105  1.1632  0.7547 -0.1433
16590TIP3   OH271184   4.913   1.272   5.365 -0.8826  0.5116  0.5436
16590TIP3    H171185   4.968   1.329   5.419 -0.1742  0.2412  0.1160
16590TIP3    H271186   4.975   1.219   5.315 -1.2924  3.0991 -3.1959
16591TIP3   OH271187   4.762   5.938   3.306  0.2942  0.8656 -0.2276
16591TIP3    H171188   4.829   5.959   3.242  0.7419 -0.1521 -0.1096
16591TIP3    H271189   4.783   5.850   3.336 -2.0450 -0.1973 -1.3982
16592TIP3   OH271190   6.661   5.751   0.536 -0.5322  0.6179 -0.5200
16592TIP3    H171191   6.614   5.741   0.453 -1.6056 -1.7187  0.2986
16592TIP3    H271192   6.647   5.669   0.582  3.6750  0.0684  0.2055
16593TIP3   OH271193   3.218   4.058   1.868 -0.3677 -0.7320 -0.1608
16593TIP3    H171194   3.232   3.964   1.856 -1.5440 -1.0023  0.4009
16593TIP3    H271195   3.140   4.063   1.924 -0.6624  0.5799 -0.6614
16594TIP3   OH271196   2.197   5.225   3.310  0.3043  0.1884  0.2723
16594TIP3    H171197   2.225   5.205   3.221 -0.0963 -0.6539  0.3278
16594TIP3    H271198   2.146   5.306   3.302  1.0836  0.6497 -0.1115
16595TIP3   OH271199   1.944   4.127   0.018  0.0621 -0.0090  0.2815
16595TIP3    H171200   1.903   4.208   0.048 -0.6648  0.6531 -2.2483
16595TIP3    H271201   1.965   4.079   0.098 -1.3981  1.7335  1.7892
16596TIP3   OH271202   5.013   2.468  11.645  0.0462  0.0837 -0.3013
16596TIP3    H171203   5.085   2.461  11.583  0.9673 -0.6195  0.8009
16596TIP3    H271204   4.940   2.502  11.594  1.6949  2.8447 -0.9985
16597TIP3   OH271205   5.506   4.865   4.190  0.6493  0.2907 -0.3094
16597TIP3    H171206   5.559   4.840   4.114 -0.6658 -0.4655 -1.0249
16597TIP3    H271207   5.558   4.931   4.235  2.2984 -0.5940 -0.8275
16598TIP3   OH271208   0.898   5.068  15.275 -0.4615  0.2084 -0.0340
16598TIP3    H171209   0.914   5.044  15.366  1.9421 -0.1109 -0.4701
16598TIP3    H271210   0.972   5.125  15.252 -2.1459  2.0609 -1.1954
16599TIP3   OH271211   2.296   6.436  12.930 -0.2389  0.2667 -0.2305
16599TIP3    H171212   2.214   6.386  12.927  0.8123 -1.5724  0.2600
16599TIP3    H271213   2.355   6.383  12.983  0.3759  2.9774  2.0414
16600TIP3   OH271214   1.747   5.976  14.136 -0.5472  0.0201  0.1549
16600TIP3    H171215   1.834   5.982  14.097 -0.4293 -0.1401  0.3917
16600TIP3    H271216   1.761   5.991  14.229 -0.7671 -0.0481  0.2010
16601TIP3   OH271217   0.784   6.165  12.604  0.1117 -0.1169  0.4481
16601TIP3    H171218   0.743   6.252  12.602  1.8212  0.7304 -0.6043
16601TIP3    H271219   0.714   6.104  12.581 -1.2916  0.8817  1.8559
16602TIP3   OH271220   3.882   5.913   4.751  0.0584  0.1488 -0.3674
16602TIP3    H171221   3.844   5.998   4.729  1.0173  0.1397 -2.2261
16602TIP3    H271222   3.901   5.872   4.667 -1.6564 -2.5605  0.4432
16603TIP3   OH271223   5.373   5.827  11.356  0.1672 -0.0743  0.1582
16603TIP3    H171224   5.351   5.781  11.274 -0.8722 -2.2210  1.5427
16603TIP3    H271225   5.295   5.879  11.376  1.3950  2.6120 -1.4797
16604TIP3   OH271226   2.228   6.738  12.233  0.1270  0.0509 -0.1927
16604TIP3    H171227   2.144   6.770  12.201  0.0615 -1.5190 -1.7669
16604TIP3    H271228   2.236   6.651  12.194  2.2309 -0.0538  0.3798
16605TIP3   OH271229   5.745   1.655  16.149  0.0945 -0.1454 -0.0107
16605TIP3    H171230   5.717   1.640  16.058  0.3244 -1.6549  0.1584
16605TIP3    H271231   5.790   1.575  16.174 -0.8692 -0.1720  1.7892
16606TIP3   OH271232   4.602   6.634  16.211  0.2492  0.3136 -0.2525
16606TIP3    H171233   4.560   6.719  16.201 -0.1691  0.0333 -1.0077
16606TIP3    H271234   4.695   6.652  16.204  0.1882  0.7778  0.1279
16607TIP3   OH271235   0.019   1.596   3.137 -0.1491 -0.0672  0.3747
16607TIP3    H171236   0.051   1.637   3.217  0.5685 -0.0071  0.0621
16607TIP3    H271237   0.081   1.526   3.119  1.0763  1.4063 -1.4174
16608TIP3   OH271238   6.226   3.559  14.300 -0.0356  0.1951  0.2604
16608TIP3    H171239   6.304   3.573  14.247  0.7043 -1.1117  0.9583
16608TIP3    H271240   6.222   3.635  14.357  1.1274 -0.0397  0.6773
16609TIP3   OH271241   3.834   3.508   4.386  0.6106 -0.2593  0.1122
16609TIP3    H171242   3.869   3.451   4.455  0.3752  0.6583  1.0016
16609TIP3    H271243   3.823   3.593   4.428  1.8735  0.7246 -1.4447
16610TIP3   OH271244   1.471   1.242   0.134 -0.1196  0.3356  0.2811
16610TIP3    H171245   1.429   1.161   0.105  0.0982  0.2502  0.2000
16610TIP3    H271246   1.561   1.235   0.102 -0.6243  1.5399 -1.5517
16611TIP3   OH271247   1.368   3.152   3.296 -0.1491  0.5461  0.3019
16611TIP3    H171248   1.438   3.205   3.257 -0.1522 -0.1368 -0.6634
16611TIP3    H271249   1.341   3.092   3.227  0.0373 -0.9063  1.4207
16612TIP3   OH271250   5.342   1.506   3.586  0.2394 -0.2165 -0.2354
16612TIP3    H171251   5.248   1.520   3.602  0.6464  1.6458  0.8691
16612TIP3    H271252   5.378   1.487   3.672  1.2381  1.6646 -0.1931
16613TIP3   OH271253   5.072   4.676   2.808  0.3023  0.0619  0.1196
16613TIP3    H171254   5.062   4.651   2.717  1.9708 -0.5100  0.0648
16613TIP3    H271255   4.983   4.681   2.842 -0.4522  1.7782 -1.9117
16614TIP3   OH271256   5.087   6.751   2.667  0.0775 -0.6611  0.2349
16614TIP3    H171257   5.153   6.683   2.685 -0.6865 -1.2951  0.7462
16614TIP3    H271258   5.003   6.706   2.678 -0.4490  0.0571 -0.6883
16615TIP3   OH271259   3.835   3.676   0.403  0.7149  0.4144 -0.1410
16615TIP3    H171260   3.925   3.661   0.435  0.7227 -1.1546 -0.7781
16615TIP3    H271261   3.805   3.588   0.378 -1.5503  0.6711  1.4350
16616TIP3   OH271262   2.598   5.123  13.969 -0.4579 -0.1709  0.6086
16616TIP3    H171263   2.504   5.108  13.976 -0.5022  0.4643  1.4396
16616TIP3    H271264   2.607   5.218  13.966  0.1603 -0.2280  0.5021
16617TIP3   OH271265   1.087   2.608   5.532 -0.5789 -0.5699 -0.8287
16617TIP3    H171266   1.068   2.662   5.455 -0.8715 -2.6426 -2.2919
16617TIP3    H271267   1.006   2.559   5.548 -0.6911  0.1426  1.1437
16618TIP3   OH271268   3.198   6.070   0.349  0.5945  0.3027 -0.2498
16618TIP3    H171269   3.264   6.131   0.318  0.5353 -0.3004 -1.6417
16618TIP3    H271270   3.142   6.122   0.407  1.3425  1.2098 -0.3186
16619TIP3   OH271271   1.931   3.192   1.769 -0.3671 -0.6406  0.0292
16619TIP3    H171272   1.884   3.266   1.806 -1.1871 -0.5056 -1.2178
16619TIP3    H271273   2.015   3.191   1.814 -0.7694  0.3873  0.8159
16620TIP3   OH271274   4.571   5.744   5.310  0.3632 -0.4993  0.0750
16620TIP3    H171275   4.664   5.725   5.297  0.1850 -0.5854 -1.1761
16620TIP3    H271276   4.567   5.787   5.396  1.8360  1.3963 -0.7319
16621TIP3   OH271277   0.648   4.847   5.940 -0.7517  0.2029 -0.0890
16621TIP3    H171278   0.568   4.813   5.980 -1.1099 -0.1208 -1.0479
16621TIP3    H271279   0.718   4.810   5.993 -1.1792 -1.0394 -0.3450
16622TIP3   OH271280   5.076   1.343  16.659 -0.6237  1.0238  0.1004
16622TIP3    H171281   4.999   1.298  16.692  0.6536 -0.4798  1.1906
16622TIP3    H271282   5.134   1.273  16.630  0.6154  2.0638 -0.0074
16623TIP3   OH271283   2.182   1.212  12.697 -0.2626  0.5854 -0.2556
16623TIP3    H171284   2.134   1.293  12.712  0.1882  0.9237 -0.6295
16623TIP3    H271285   2.138   1.148  12.753 -0.5786  1.0980  0.0916
16624TIP3   OH271286   0.746   1.272  16.848  0.4934 -0.3894  0.3247
16624TIP3    H171287   0.738   1.203  16.915 -0.8055  0.4114  1.0461
16624TIP3    H271288   0.656   1.292  16.824  0.9266 -2.2030 -3.3940
16625TIP3   OH271289   2.216   5.107   4.370  0.5014 -0.3576 -0.2527
16625TIP3    H171290   2.260   5.034   4.414  0.2251  0.2426  1.0573
16625TIP3    H271291   2.214   5.081   4.278  1.8778 -1.2598 -0.0583
16626TIP3   OH271292   4.859   3.901  13.546 -0.0206 -0.4122 -0.0033
16626TIP3    H171293   4.912   3.845  13.603  2.9005 -0.2065 -2.2551
16626TIP3    H271294   4.860   3.856  13.461 -1.5577  0.8117 -0.7127
16627TIP3   OH271295   3.989   6.598  13.660 -0.6972 -0.1005  0.3680
16627TIP3    H171296   3.973   6.531  13.726 -0.2480 -0.6195 -0.0348
16627TIP3    H271297   4.037   6.667  13.706 -0.5576 -0.3739  0.6336
16628TIP3   OH271298   4.535   2.445  11.726  0.3266 -0.5199 -0.6738
16628TIP3    H171299   4.584   2.505  11.670 -2.0700 -0.7628 -3.2396
16628TIP3    H271300   4.600   2.381  11.756  2.2722  1.3682 -0.5998
16629TIP3   OH271301   6.151   4.842   5.605 -0.2905 -0.3968  0.4040
16629TIP3    H171302   6.184   4.822   5.692  2.3861 -0.8484 -0.6157
16629TIP3    H271303   6.091   4.770   5.584  1.1156 -1.7477  0.8530
16630TIP3   OH271304   1.967   1.832  12.796  0.2354  0.1647 -0.3556
16630TIP3    H171305   1.882   1.808  12.759  1.0503 -1.2838 -1.4379
16630TIP3    H271306   1.960   1.809  12.889 -0.7450  0.6738 -0.2865
16631TIP3   OH271307   2.218   5.757   2.101 -0.0499  0.1380  0.0970
16631TIP3    H171308   2.247   5.673   2.136  0.3206 -0.7057 -2.1279
16631TIP3    H271309   2.226   5.817   2.176  0.3234 -1.6224  1.5496
16632TIP3   OH271310   3.341   0.902  14.455 -0.1141  0.9131 -0.3517
16632TIP3    H171311   3.348   0.978  14.512 -1.3931  1.7655 -1.2889
16632TIP3    H271312   3.248   0.880  14.455 -0.3563  1.6360 -2.9387
16633TIP3   OH271313   3.437   0.166   0.175  0.2058  0.5969  0.6399
16633TIP3    H171314   3.528   0.152   0.147  0.0913 -0.0907  0.5933
16633TIP3    H271315   3.413   0.251   0.138 -0.0965 -0.4478 -1.7291
16634TIP3   OH271316   2.627   5.393  15.718 -0.3443  0.6581  0.4459
16634TIP3    H171317   2.705   5.426  15.762  0.6294  0.6720 -1.2121
16634TIP3    H271318   2.648   5.303  15.695 -0.5696  0.8459 -0.5362
16635TIP3   OH271319   3.002   3.917   5.299 -0.4019 -0.2372  0.3341
16635TIP3    H171320   2.965   3.889   5.215  0.2814 -1.0214  0.2868
16635TIP3    H271321   3.051   3.997   5.277 -2.7428  1.3824  0.5571
16636TIP3   OH271322   3.808   4.365  16.601  0.2839  0.7282 -0.2471
16636TIP3    H171323   3.861   4.417  16.541 -0.5858  0.5235 -1.2121
16636TIP3    H271324   3.847   4.380  16.687 -0.8518  4.1813 -0.2115
16637TIP3   OH271325   3.001   5.396   4.278 -0.1222  0.3420 -0.7135
16637TIP3    H171326   3.003   5.472   4.335  0.4129  1.7417 -2.4943
16637TIP3    H271327   3.060   5.333   4.319 -1.0195  0.6394  1.0905
16638TIP3   OH271328   0.724   2.131  10.749  0.2306 -0.2491 -0.4240
16638TIP3    H171329   0.685   2.073  10.683  2.9445 -0.9735 -1.5256
16638TIP3    H271330   0.728   2.077  10.828 -0.0031 -0.5370 -0.6056
16639TIP3   OH271331   3.054   4.594   1.689 -0.0973 -0.3559  0.6814
16639TIP3    H171332   3.101   4.668   1.729  1.4679 -0.5364 -0.7529
16639TIP3    H271333   3.090   4.517   1.732  1.3121 -0.5253 -0.7474
16640TIP3   OH271334   2.801   1.305  16.158 -0.4221  0.3747  0.2415
16640TIP3    H171335   2.896   1.312  16.142 -0.4489 -0.8241 -0.5516
16640TIP3    H271336   2.774   1.395  16.176  0.7288  0.8761 -0.3603
16641TIP3   OH271337   3.291   2.536   3.099  0.2404 -0.6019  0.2447
16641TIP3    H171338   3.359   2.542   3.032  0.4026 -1.0416  0.3688
16641TIP3    H271339   3.311   2.456   3.147  0.4173 -0.0155  1.1573
16642TIP3   OH271340   6.182   1.606   3.842  0.0493  0.5209 -0.2138
16642TIP3    H171341   6.180   1.510   3.843 -1.9178  0.5255 -0.0242
16642TIP3    H271342   6.099   1.632   3.882  0.8681  2.3273  0.4040
16643TIP3   OH271343   3.908   0.906   1.741  0.3008 -0.4951 -0.2415
16643TIP3    H171344   3.845   0.963   1.784  1.1410  0.8457 -0.6996
16643TIP3    H271345   3.903   0.930   1.649  0.0786 -1.7756 -0.5756
16644TIP3   OH271346   0.799   3.160   1.031  0.5349 -0.7027  0.4202
16644TIP3    H171347   0.738   3.234   1.034  0.5910 -0.6791  1.7384
16644TIP3    H271348   0.885   3.201   1.023  0.4827 -0.6815 -0.0628
16645TIP3   OH271349   6.403   5.512   4.230 -0.4659  0.7102 -0.1668
16645TIP3    H171350   6.462   5.564   4.283 -0.1570  0.3115 -0.1136
16645TIP3    H271351   6.323   5.564   4.224 -0.9102  0.2818  1.6294
16646TIP3   OH271352   1.671   1.791   3.101 -0.2137  0.2623  0.4829
16646TIP3    H171353   1.587   1.755   3.072 -0.2743 -0.2896  1.3108
16646TIP3    H271354   1.703   1.728   3.165  1.1111  0.1787 -0.2298
16647TIP3   OH271355   6.689   6.061  11.852 -0.0666  0.5380  0.6528
16647TIP3    H171356   6.684   5.983  11.796  1.2590  1.1351 -0.3409
16647TIP3    H271357   6.765   6.046  11.908  0.7521  1.4803 -0.1691
16648TIP3   OH271358   1.859   4.824  14.152  0.0995 -0.2905  0.3095
16648TIP3    H171359   1.763   4.826  14.151  0.0718 -0.7768  0.9837
16648TIP3    H271360   1.884   4.831  14.060 -0.6487 -2.2788 -0.0994
16649TIP3   OH271361   0.476   5.229  16.145  0.1775  0.2272 -0.4527
16649TIP3    H171362   0.538   5.167  16.106 -2.1377 -2.2344 -0.5692
16649TIP3    H271363   0.480   5.211  16.239  0.3736  0.7976 -0.3502
16650TIP3   OH271364   6.627   3.557   4.649 -0.6707  0.1705  0.6459
16650TIP3    H171365   6.626   3.524   4.739 -1.1334 -0.2316  0.4975
16650TIP3    H271366   6.602   3.482   4.596 -1.7832  0.7571  0.3122
16651TIP3   OH271367   3.235   2.563   1.230 -0.2822 -0.0625  0.1480
16651TIP3    H171368   3.253   2.626   1.299  0.7076 -0.2979  0.1105
16651TIP3    H271369   3.219   2.616   1.152 -0.5478  0.1707  0.3593
16652TIP3   OH271370   0.782   6.466  14.601  0.2270 -0.4193  0.1172
16652TIP3    H171371   0.698   6.509  14.584  0.2801  0.1342  1.1998
16652TIP3    H271372   0.826   6.467  14.516 -0.4778  0.1301 -0.2592
16653TIP3   OH271373   0.270   0.691  11.886 -0.1668  0.2134 -0.1239
16653TIP3    H171374   0.341   0.627  11.890 -0.1708  0.1178 -1.1369
16653TIP3    H271375   0.311   0.774  11.913  0.2475  0.0940 -0.3662
16654TIP3   OH271376   6.667   3.664  11.644 -0.3970  0.6390  0.6066
16654TIP3    H171377   6.621   3.703  11.569  0.8546  0.0851 -0.4743
16654TIP3    H271378   6.756   3.698  11.639 -0.0793 -0.0352  1.3915
16655TIP3   OH271379   2.785   1.756  14.653  0.2038 -0.6581  0.2143
16655TIP3    H171380   2.745   1.818  14.592 -1.1512 -1.4231  0.2748
16655TIP3    H271381   2.862   1.722  14.606  1.2937  1.4078  0.3913
16656TIP3   OH271382   0.257   4.855   5.794  0.3820  0.0112 -0.5917
16656TIP3    H171383   0.253   4.833   5.700 -0.1959  1.6205 -0.9740
16656TIP3    H271384   0.270   4.949   5.796 -2.4139  0.4898  0.8971
16657TIP3   OH271385   5.479   5.782   2.971 -0.0175 -0.0607 -0.4640
16657TIP3    H171386   5.542   5.770   3.042 -0.7210  1.5701  0.4923
16657TIP3    H271387   5.476   5.877   2.957 -1.1272 -0.2219 -1.5409
16658TIP3   OH271388   3.189   3.594   5.299 -0.1253  0.3012  0.4964
16658TIP3    H171389   3.190   3.639   5.383 -0.4365 -0.2035  0.7741
16658TIP3    H271390   3.281   3.589   5.273 -0.0688  0.8878  0.5678
16659TIP3   OH271391   3.099   4.859  13.166 -0.2087  0.1703  0.5486
16659TIP3    H171392   3.058   4.925  13.222  0.4706  0.2780  0.9284
16659TIP3    H271393   3.178   4.902  13.132 -0.9718  0.3613 -1.0799
16660TIP3   OH271394   0.923   4.138  15.558  0.4474 -0.3724 -0.2074
16660TIP3    H171395   0.843   4.185  15.579 -0.9865 -2.4147 -0.8192
16660TIP3    H271396   0.928   4.068  15.624  0.4432 -1.6778 -1.5367
16661TIP3   OH271397   4.430   6.020  14.019 -0.1313 -0.0330  0.4594
16661TIP3    H171398   4.500   6.001  13.957  0.4631  1.3066  0.6840
16661TIP3    H271399   4.351   5.984  13.978  0.5613 -0.9787 -0.1004
16662TIP3   OH271400   2.528   6.023   2.737  0.4074  0.3550  0.5964
16662TIP3    H171401   2.507   6.115   2.749 -2.6413  0.0350 -1.1034
16662TIP3    H271402   2.591   6.022   2.665  1.4345  1.1395  1.4629
16663TIP3   OH271403   5.367   3.278  13.541 -0.0864  0.5018 -0.3376
16663TIP3    H171404   5.414   3.199  13.566  0.5196  1.4047  1.5312
16663TIP3    H271405   5.422   3.318  13.474 -0.0266 -0.2629 -0.7606
16664TIP3   OH271406   0.959   5.582   3.738 -0.0860 -0.1942  0.6645
16664TIP3    H171407   0.870   5.617   3.733 -0.2150 -0.4419  1.1391
16664TIP3    H271408   0.950   5.501   3.788  0.4331 -0.1407  0.8503
16665TIP3   OH271409   3.495   0.516  14.632 -0.1921 -0.5036 -0.3947
16665TIP3    H171410   3.546   0.435  14.634 -0.2235 -0.5447 -1.2267
16665TIP3    H271411   3.540   0.571  14.569 -1.4790 -0.7439 -1.5697
16666TIP3   OH271412   5.875   0.782   1.143  0.2607  0.4283  0.4228
16666TIP3    H171413   5.889   0.744   1.056  1.8562 -0.7307  1.1370
16666TIP3    H271414   5.836   0.868   1.126  0.3332  0.1319 -1.4140
16667TIP3   OH271415   5.397   0.572   5.056  0.5424  0.0500  0.3844
16667TIP3    H171416   5.485   0.602   5.078  0.2384  1.0268  0.3215
16667TIP3    H271417   5.405   0.477   5.048  0.8825 -0.3300  3.7513
16668TIP3   OH271418   3.395   3.813   4.380  0.0917  1.0375 -0.0779
16668TIP3    H171419   3.480   3.800   4.338  0.1191  1.2116 -0.0797
16668TIP3    H271420   3.331   3.801   4.310  0.2273  3.6792 -0.7748
16669TIP3   OH271421   4.770   3.121   5.445  0.4967  0.0741  0.4294
16669TIP3    H171422   4.720   3.167   5.513 -0.6954 -1.3444  0.5777
16669TIP3    H271423   4.708   3.111   5.373  0.6834 -1.3449  0.4431
16670TIP3   OH271424   3.615   2.428  10.795  0.2749  0.1213  0.2188
16670TIP3    H171425   3.572   2.490  10.737  0.6734  0.8804  0.7172
16670TIP3    H271426   3.697   2.471  10.820 -0.1383  0.0644  1.7822
16671TIP3   OH271427   1.669   4.388  11.161  0.3925  0.9270 -0.2580
16671TIP3    H171428   1.718   4.306  11.152 -1.8140 -0.6039  0.5718
16671TIP3    H271429   1.610   4.389  11.085 -0.1642  1.2905  0.1697
16672TIP3   OH271430   4.938   1.855  12.777  0.3878  0.0956  0.9464
16672TIP3    H171431   4.927   1.823  12.866 -0.5142 -0.5267  0.6339
16672TIP3    H271432   4.850   1.880  12.749  0.1725 -2.1413 -0.6412
16673TIP3   OH271433   4.771   1.861   0.343  0.0178 -0.3162 -0.3876
16673TIP3    H171434   4.693   1.838   0.394 -0.1350 -0.2931 -0.6074
16673TIP3    H271435   4.845   1.838   0.400 -0.0870 -2.2403 -0.9683
16674TIP3   OH271436   1.862   1.714   0.629  0.3558  0.1467  0.0060
16674TIP3    H171437   1.844   1.664   0.709  1.8897  0.4158  0.5612
16674TIP3    H271438   1.886   1.801   0.662 -1.2873  0.9732 -0.8867
16675TIP3   OH271439   2.765   4.380  11.244  0.2936  0.6149  0.6360
16675TIP3    H171440   2.844   4.428  11.220  0.0792  1.3521  1.3631
16675TIP3    H271441   2.732   4.345  11.161  1.1040  0.7203  0.2618
16676TIP3   OH271442   6.500   4.606   2.909  0.2763  0.1102  0.0267
16676TIP3    H171443   6.498   4.640   2.819  1.2993 -2.5503 -1.1041
16676TIP3    H271444   6.419   4.557   2.918  0.5118 -0.2349  0.2759
16677TIP3   OH271445   2.592   6.270  12.666 -0.5151  0.2956 -0.1755
16677TIP3    H171446   2.629   6.194  12.713  0.2255  1.0286  0.4620
16677TIP3    H271447   2.509   6.238  12.631  0.0262 -0.9750 -0.3771
16678TIP3   OH271448   4.059   1.734   0.422  0.1833  0.0452 -0.0067
16678TIP3    H171449   3.973   1.722   0.383  0.6112 -0.2716 -0.8828
16678TIP3    H271450   4.064   1.828   0.440 -0.8945 -0.1410  1.4050
16679TIP3   OH271451   1.475   0.336  13.957 -0.0243  0.1126 -0.1828
16679TIP3    H171452   1.514   0.423  13.966 -0.5032  0.2118  1.1297
16679TIP3    H271453   1.477   0.299  14.045 -3.4793  0.4086  0.1490
16680TIP3   OH271454   5.348   0.776   1.607 -0.3927  0.0018  0.1203
16680TIP3    H171455   5.343   0.776   1.511  1.7431 -3.5158 -0.1792
16680TIP3    H271456   5.389   0.860   1.629  1.3800 -0.1147 -2.3188
16681TIP3   OH271457   3.900   1.046  16.319 -0.3448  0.1701 -0.6024
16681TIP3    H171458   3.808   1.042  16.292 -0.8172 -0.3507  0.9843
16681TIP3    H271459   3.923   0.956  16.341  0.6941  0.2265 -1.4103
16682TIP3   OH271460   6.494   4.575  16.352 -0.3600  0.2095 -0.5385
16682TIP3    H171461   6.545   4.587  16.272 -0.4417 -0.3768 -0.6872
16682TIP3    H271462   6.557   4.542  16.416 -0.0443  1.7552 -0.0152
16683TIP3   OH271463   1.754   2.387   3.052  0.1795 -0.1387  0.0500
16683TIP3    H171464   1.827   2.359   3.108 -1.0034 -2.0264  0.7413
16683TIP3    H271465   1.676   2.356   3.097 -0.8695 -1.2717 -2.3690
16684TIP3   OH271466   2.753   5.639   3.154 -0.3159  0.1123 -0.6895
16684TIP3    H171467   2.698   5.585   3.211  0.8032 -1.1392 -0.7499
16684TIP3    H271468   2.737   5.729   3.183  0.0934 -0.4647  1.5161
16685TIP3   OH271469   3.991   4.123  17.053  0.6390  0.1592  0.3402
16685TIP3    H171470   4.040   4.133  17.135  0.1514 -0.6361  0.7363
16685TIP3    H271471   3.914   4.178  17.064  1.4852  1.5433 -0.3484
16686TIP3   OH271472   1.950   1.052  14.495  0.0570  0.1228 -0.1705
16686TIP3    H171473   1.876   1.101  14.529 -1.0483 -0.5474 -1.5122
16686TIP3    H271474   2.022   1.072  14.555 -1.0155  1.3351  0.7626
16687TIP3   OH271475   2.949   0.596  11.786  0.1962 -0.1841  0.2766
16687TIP3    H171476   2.949   0.504  11.814  0.5736 -0.0034  0.8807
16687TIP3    H271477   2.879   0.636  11.837  1.0307  0.1952  1.1337
16688TIP3   OH271478   6.581   1.500   2.412 -0.7385 -0.1749 -0.4776
16688TIP3    H171479   6.493   1.484   2.378 -1.6549  0.1654  1.5770
16688TIP3    H271480   6.610   1.415   2.445 -0.5355 -0.1639 -0.6282
16689TIP3   OH271481   2.216   5.420  15.190 -0.2011  0.3371  0.1435
16689TIP3    H171482   2.173   5.417  15.104  1.4825 -1.3895 -0.7209
16689TIP3    H271483   2.152   5.383  15.250 -1.2496  1.1673 -0.4334
16690TIP3   OH271484   5.185   4.809  16.412  0.1255  0.0211  0.0470
16690TIP3    H171485   5.157   4.767  16.330  1.5476 -0.2330 -0.3451
16690TIP3    H271486   5.198   4.735  16.473  0.1572  0.1071  0.1437
16691TIP3   OH271487   4.283   3.592   5.753  0.7422  0.1025 -0.3244
16691TIP3    H171488   4.210   3.549   5.708  0.5324 -0.1595  0.2459
16691TIP3    H271489   4.299   3.672   5.704  0.7083 -0.3122 -1.0266
16692TIP3   OH271490   1.668   0.258   0.153  0.0811 -0.2734 -0.0362
16692TIP3    H171491   1.635   0.283   0.066 -1.7515 -0.7717  0.4766
16692TIP3    H271492   1.622   0.177   0.174 -0.7946  0.7133  2.0980
16693TIP3   OH271493   6.622   3.222   1.931 -0.0577  0.6325  0.8512
16693TIP3    H171494   6.577   3.285   1.874  0.5715  2.4467  2.2682
16693TIP3    H271495   6.552   3.169   1.969 -0.6036  0.5122 -0.2683
16694TIP3   OH271496   0.760   1.536  12.428 -0.3384 -0.5078  0.1739
16694TIP3    H171497   0.758   1.500  12.517  1.1859 -0.7441  0.1287
16694TIP3    H271498   0.676   1.581  12.419 -0.0147  0.6324  2.2033
16695TIP3   OH271499   2.609   0.956   1.475 -0.0282  0.3497  0.2124
16695TIP3    H171500   2.537   0.996   1.522  0.9705  0.4687  1.7083
16695TIP3    H271501   2.657   0.906   1.541  0.1646 -1.3407 -1.1142
16696TIP3   OH271502   6.725   2.070  13.971 -0.2213 -0.2130  0.2871
16696TIP3    H171503   6.791   2.004  13.945  1.4712  1.0444  1.1816
16696TIP3    H271504   6.712   2.055  14.065 -2.4544 -1.4405 -0.1484
16697TIP3   OH271505   1.661   2.898   0.436  0.4755  0.4467 -0.0723
16697TIP3    H171506   1.703   2.813   0.422 -0.3233  0.1829 -0.9799
16697TIP3    H271507   1.688   2.923   0.524  0.3011 -0.9951  0.4257
16698TIP3   OH271508   6.668   5.816   2.059  0.1853  0.5340  0.2107
16698TIP3    H171509   6.660   5.728   2.023 -1.1108  0.7967 -0.2143
16698TIP3    H271510   6.763   5.833   2.062  0.3953 -0.1481 -1.5090
16699TIP3   OH271511   0.063   3.810   5.929  0.4159  0.6207 -0.1278
16699TIP3    H171512   0.115   3.790   6.007  0.7158 -1.5729 -0.8213
16699TIP3    H271513  -0.023   3.773   5.948  0.8191 -0.9827 -1.2468
16700TIP3   OH271514   3.229   3.795  14.236  0.6007  0.5799  0.0798
16700TIP3    H171515   3.281   3.732  14.285  1.2131  0.9184 -0.1172
16700TIP3    H271516   3.203   3.749  14.156  1.3032  0.6727 -0.2060
16701TIP3   OH271517   2.728   2.748  12.791 -0.2317  0.0306  0.0859
16701TIP3    H171518   2.637   2.756  12.762 -0.5441 -0.6808  0.8139
16701TIP3    H271519   2.751   2.836  12.822 -1.5635 -0.3377  2.3254
16702TIP3   OH271520   4.621   2.223   5.744 -0.4503 -0.1175 -0.2750
16702TIP3    H171521   4.686   2.265   5.688 -0.4800 -0.5042 -0.6088
16702TIP3    H271522   4.641   2.253   5.832 -0.1254  0.1517 -0.4420
16703TIP3   OH271523   6.094   3.581   5.449 -0.6241  0.0175  0.0555
16703TIP3    H171524   6.046   3.509   5.409 -2.1067  0.2903  1.2468
16703TIP3    H271525   6.106   3.645   5.379 -0.4128 -0.8243 -0.6909
16704TIP3   OH271526   5.367   0.188   6.392 -0.4369  0.7364  0.5462
16704TIP3    H171527   5.320   0.152   6.317  0.0078  0.5997  0.3306
16704TIP3    H271528   5.459   0.192   6.364 -0.5010  2.3039  0.4519
16705TIP3   OH271529   0.241   3.389   1.071 -0.1731  0.7293  0.3854
16705TIP3    H171530   0.281   3.307   1.099 -0.0949  0.0560 -1.5695
16705TIP3    H271531   0.279   3.407   0.985 -1.8364  1.6454 -0.2141
16706TIP3   OH271532   6.230   1.710  12.901  0.2126  0.2728  0.2388
16706TIP3    H171533   6.324   1.718  12.887  0.1217 -0.6238 -1.0172
16706TIP3    H271534   6.221   1.635  12.960  0.3088  0.8586  1.0201
16707TIP3   OH271535   2.059   0.697   4.404 -0.3050 -0.6045  0.0515
16707TIP3    H171536   1.964   0.700   4.398 -0.2296  2.5124 -1.3895
16707TIP3    H271537   2.081   0.757   4.475  0.6204 -0.9180  0.0479
16708TIP3   OH271538   1.344   4.374  12.781 -0.0548  0.3788  0.3009
16708TIP3    H171539   1.288   4.440  12.742 -1.5300 -0.3671  1.0705
16708TIP3    H271540   1.305   4.290  12.756  0.4316 -0.1566  1.2322
16709TIP3   OH271541   0.617   6.675  15.226  0.3948 -0.4359  0.5821
16709TIP3    H171542   0.594   6.710  15.312  0.5595 -1.2630  0.9703
16709TIP3    H271543   0.626   6.752  15.170 -1.4204  0.0390  0.8674
16710TIP3   OH271544   4.271   6.712  13.194 -0.3049  0.3492  0.0811
16710TIP3    H171545   4.338   6.710  13.262  0.1498  0.3569 -0.3624
16710TIP3    H271546   4.193   6.675  13.236  0.3385 -0.9122  0.2090
16711TIP3   OH271547   6.610   4.580   4.380  0.1431  0.2857 -0.5750
16711TIP3    H171548   6.675   4.606   4.315  1.1553  0.2278  0.3838
16711TIP3    H271549   6.541   4.645   4.372  0.5674  0.6696 -1.2397
16712TIP3   OH271550   0.263   3.621  15.129 -0.1514 -0.6351  0.1835
16712TIP3    H171551   0.211   3.701  15.127 -0.6950 -0.9402  1.3571
16712TIP3    H271552   0.204   3.552  15.100  0.0165 -0.7766  0.1724
16713TIP3   OH271553   0.106   1.483  12.172 -0.0096 -0.1657 -0.0143
16713TIP3    H171554   0.120   1.571  12.139  0.0736  0.6966  2.1435
16713TIP3    H271555   0.088   1.495  12.265 -1.9119 -2.2856 -0.0239
16714TIP3   OH271556   0.084   6.084  13.825  0.1032 -0.5910  0.0524
16714TIP3    H171557   0.041   5.998  13.817  1.6644 -1.3238 -1.0934
16714TIP3    H271558   0.167   6.073  13.779  0.9536  1.1455  1.0849
16715TIP3   OH271559   6.248   3.643   1.338 -0.1787 -0.2491  0.1839
16715TIP3    H171560   6.303   3.565   1.329 -1.0676 -0.8140 -0.5350
16715TIP3    H271561   6.310   3.715   1.349  0.6689 -1.3735  4.4056
16716TIP3   OH271562   0.827   5.844   0.094  0.6481 -0.2642  0.1586
16716TIP3    H171563   0.815   5.932   0.059  0.7152 -0.1154  0.5087
16716TIP3    H271564   0.750   5.828   0.148  1.8535  0.6164  2.2364
16717TIP3   OH271565   4.929   2.032  12.088  0.2603 -0.3413 -0.0826
16717TIP3    H171566   4.920   1.965  12.020  0.7086  0.9888 -1.5202
16717TIP3    H271567   4.875   2.105  12.057 -0.6857 -0.2139  1.7358
16718TIP3   OH271568   4.099   1.938  11.958 -0.0917  0.1710  0.2576
16718TIP3    H171569   4.086   1.947  11.863  0.4842  0.5406  0.2131
16718TIP3    H271570   4.084   1.844  11.975 -2.0007  0.4048  0.0960
16719TIP3   OH271571   5.879   2.930   2.715 -0.3933  0.1017  0.4698
16719TIP3    H171572   5.829   3.010   2.727 -2.3079 -1.2581  2.3808
16719TIP3    H271573   5.826   2.876   2.657  0.4079 -0.1901 -0.0178
16720TIP3   OH271574   5.737   0.416   2.302 -0.0396  0.0328  0.1483
16720TIP3    H171575   5.779   0.474   2.365  1.5218 -1.0525  0.1684
16720TIP3    H271576   5.755   0.456   2.217  0.3296 -0.0076  0.2082
16721TIP3   OH271577   6.166   4.658   4.053 -0.1936 -0.3634  0.0309
16721TIP3    H171578   6.243   4.702   4.016 -0.4199  0.5673  0.6251
16721TIP3    H271579   6.179   4.663   4.148 -0.7991 -0.5612  0.1306
16722TIP3   OH271580   6.468   0.576   3.262  0.4056 -0.0181  0.3834
16722TIP3    H171581   6.388   0.605   3.306  0.1437  1.2952 -0.8845
16722TIP3    H271582   6.516   0.529   3.330 -0.7220  0.5058  1.6044
16723TIP3   OH271583   0.039   4.930  17.114  0.9583 -0.2543 -0.2954
16723TIP3    H171584   0.017   5.001  17.174  1.6192  0.0203 -0.3713
16723TIP3    H271585   0.030   4.969  17.027  0.6574 -0.4617 -0.3601
16724TIP3   OH271586   2.532   1.399  16.986 -0.5830  0.6350  0.3236
16724TIP3    H171587   2.487   1.409  17.069 -0.2691  1.3382  0.4123
16724TIP3    H271588   2.576   1.483  16.971  2.0634 -0.5122  1.0371
16725TIP3   OH271589   4.814   6.333   1.501  0.2745  0.5302  0.7034
16725TIP3    H171590   4.812   6.279   1.580 -0.3494 -1.1970 -0.4339
16725TIP3    H271591   4.900   6.317   1.463  0.0825  0.3124  0.3536
16726TIP3   OH271592   0.172   0.941  11.106 -0.0692  0.1303  0.2410
16726TIP3    H171593   0.094   0.963  11.158 -0.5440 -0.2173 -0.3207
16726TIP3    H271594   0.167   0.846  11.094  0.3257  0.1382  0.0088
16727TIP3   OH271595   5.573   5.109  14.174 -0.0461  0.2770  0.0089
16727TIP3    H171596   5.489   5.143  14.206 -0.8577 -2.7141  1.3963
16727TIP3    H271597   5.573   5.130  14.080 -1.8567  1.2335  0.1772
16728TIP3   OH271598   6.196   1.928  14.411  0.1517 -0.3839  0.3463
16728TIP3    H171599   6.128   1.975  14.364  1.2790 -0.2115 -1.2120
16728TIP3    H271600   6.270   1.924  14.350  0.8480 -2.3315  1.1964
16729TIP3   OH271601   5.251   4.119   6.282  0.0766 -0.1607 -0.6738
16729TIP3    H171602   5.192   4.058   6.327  0.6567 -1.6684 -1.9102
16729TIP3    H271603   5.337   4.078   6.287  0.4170  0.3730 -1.8347
16730TIP3   OH271604   0.203   1.449   4.702  0.1294 -0.3310  0.6394
16730TIP3    H171605   0.117   1.491   4.694  0.9427  1.1415 -1.3391
16730TIP3    H271606   0.184   1.356   4.715 -1.7864 -0.2116 -0.9222
16731TIP3   OH271607   2.807   3.165  13.841  0.1946 -0.1232 -0.5911
16731TIP3    H171608   2.880   3.160  13.903 -0.6163  0.6535  0.4604
16731TIP3    H271609   2.729   3.146  13.894 -0.5188  0.5468 -1.3716
16732TIP3   OH271610   5.316   0.343   2.645  0.3921 -0.7635  0.6841
16732TIP3    H171611   5.397   0.380   2.610  1.2175 -3.4426 -0.5051
16732TIP3    H271612   5.264   0.419   2.670  1.6821  1.2148 -2.0755
16733TIP3   OH271613   2.421   3.948  15.155  0.2722 -0.5717 -0.3274
16733TIP3    H171614   2.507   3.909  15.140  1.6229  1.5510  1.3642
16733TIP3    H271615   2.392   3.976  15.069  1.8469 -0.2208 -0.7711
16734TIP3   OH271616   5.375   2.618   6.526 -0.5699 -0.2014 -0.3073
16734TIP3    H171617   5.314   2.627   6.453 -1.3522  0.1422  0.3642
16734TIP3    H271618   5.392   2.708   6.555 -1.8333 -0.3828  1.1579
16735TIP3   OH271619   4.704   6.318   5.652  0.4065 -0.1481 -0.1249
16735TIP3    H171620   4.795   6.341   5.671  0.6103  0.9594 -2.1588
16735TIP3    H271621   4.659   6.402   5.641 -1.4466 -0.5752  2.9038
16736TIP3   OH271622   3.241   5.144   2.373 -0.5069  0.3736  0.1132
16736TIP3    H171623   3.252   5.122   2.281 -1.0663  0.6880 -0.0310
16736TIP3    H271624   3.179   5.079   2.406 -0.3687  0.3100  0.2501
16737TIP3   OH271625   4.889   0.238   1.739 -1.0149 -0.1024  0.2932
16737TIP3    H171626   4.907   0.222   1.647  0.7277  0.5200  0.4668
16737TIP3    H271627   4.804   0.199   1.755 -1.0548 -0.7964 -1.4178
16738TIP3   OH271628   6.242   4.825   5.230  0.4065  0.0213  0.3586
16738TIP3    H171629   6.314   4.844   5.170 -1.0215 -0.3275 -1.5161
16738TIP3    H271630   6.196   4.908   5.240 -1.6774 -0.6810 -2.2665
16739TIP3   OH271631   3.545   2.758  13.480 -0.2999 -0.2858  0.1078
16739TIP3    H171632   3.633   2.720  13.469 -0.4126 -0.7008  0.5629
16739TIP3    H271633   3.496   2.729  13.403 -0.5318 -1.5272  0.6906
16740TIP3   OH271634   3.482   3.015  16.901 -0.1104 -0.1384 -0.2142
16740TIP3    H171635   3.405   2.963  16.924  0.6123 -0.9961  0.3188
16740TIP3    H271636   3.461   3.052  16.816 -2.1520  1.7141  0.9839
16741TIP3   OH271637   6.024   1.157   3.336 -0.5258 -0.2177  0.1907
16741TIP3    H171638   6.011   1.246   3.370  0.9741  0.8862 -1.8951
16741TIP3    H271639   5.966   1.152   3.260  1.3570  0.0289 -1.3323
16742TIP3   OH271640   5.370   3.155  11.374 -0.4245 -0.2812 -0.2456
16742TIP3    H171641   5.281   3.179  11.398  0.3364  0.7619  1.8227
16742TIP3    H271642   5.393   3.215  11.302 -1.6299 -1.1365 -1.3906
16743TIP3   OH271643   1.269   4.828   2.878 -0.0067  0.0065  0.4028
16743TIP3    H171644   1.182   4.832   2.836  0.1497  1.9855  0.1457
16743TIP3    H271645   1.279   4.737   2.905 -2.4570 -0.1406  1.0565
16744TIP3   OH271646   5.331   2.150   3.453  0.6250 -0.7268 -0.4472
16744TIP3    H171647   5.279   2.207   3.396  1.9330 -0.1682 -1.1307
16744TIP3    H271648   5.387   2.210   3.503  0.7960 -1.3207  0.0919
16745TIP3   OH271649   6.746   1.428  14.757 -0.1303  0.1888 -0.8794
16745TIP3    H171650   6.791   1.466  14.833 -1.6443  0.7562 -0.2320
16745TIP3    H271651   6.755   1.494  14.689 -0.0704  0.3480 -0.7201
16746TIP3   OH271652   0.810   3.582   2.725 -0.1671  0.5726 -0.1055
16746TIP3    H171653   0.743   3.648   2.708 -0.6463 -0.3662 -2.2190
16746TIP3    H271654   0.774   3.528   2.795 -1.6178  0.1395 -1.1351
16747TIP3   OH271655   3.215   2.415  15.458 -0.2438  0.0350 -0.2282
16747TIP3    H171656   3.217   2.328  15.419 -2.2738  0.5372 -1.5859
16747TIP3    H271657   3.214   2.475  15.384  0.0292  1.1984  0.6764
16748TIP3   OH271658   4.363   0.079  12.490 -0.0564  0.4350  0.1078
16748TIP3    H171659   4.277   0.103  12.454 -0.5979 -0.5935  0.6803
16748TIP3    H271660   4.345   0.055  12.581  0.7443 -0.4353  0.0432
16749TIP3   OH271661   6.781   2.036  12.681 -0.4604 -0.5711  0.6420
16749TIP3    H171662   6.804   2.129  12.679  1.3765 -0.9864  0.3231
16749TIP3    H271663   6.686   2.034  12.690 -0.6017  1.3397 -0.0756
16750TIP3   OH271664   4.758   1.478  16.508  0.6923  0.0237 -0.1849
16750TIP3    H171665   4.740   1.454  16.599 -0.5750  1.6863  0.0453
16750TIP3    H271666   4.704   1.419  16.456 -0.2391  0.4873  0.2439
16751TIP3   OH271667   0.465   3.528   3.877  0.0835 -0.0079  0.2773
16751TIP3    H171668   0.468   3.583   3.799 -1.0067 -0.6263 -0.2314
16751TIP3    H271669   0.551   3.537   3.917  0.6258  0.3985 -0.9545
16752TIP3   OH271670   6.545   4.707  17.156  0.0977 -0.1827 -0.1587
16752TIP3    H171671   6.636   4.735  17.165  0.9607 -2.3923 -1.3538
16752TIP3    H271672   6.517   4.743  17.072 -0.5179  1.2788  0.6132
16753TIP3   OH271673   5.717   5.847  11.962  0.0232 -0.0939 -0.2569
16753TIP3    H171674   5.795   5.900  11.945  0.5093 -0.8479 -0.3865
16753TIP3    H271675   5.699   5.803  11.879 -1.4624  1.2399 -0.7043
16754TIP3   OH271676   1.353   2.531  14.064 -0.7756 -0.4402 -0.4007
16754TIP3    H171677   1.286   2.549  14.131  0.4853  0.2423  0.7301
16754TIP3    H271678   1.414   2.604  14.071 -0.0475 -0.9104 -1.5880
16755TIP3   OH271679   0.336   2.502   2.757  0.2349 -0.2521 -0.1227
16755TIP3    H171680   0.290   2.418   2.761  0.0538 -0.1206  0.7460
16755TIP3    H271681   0.365   2.509   2.666 -0.6563 -0.7705 -0.4602
16756TIP3   OH271682   4.748   4.785   1.845  0.3892 -0.4462  0.1691
16756TIP3    H171683   4.794   4.864   1.819  0.5577 -1.0832 -1.6362
16756TIP3    H271684   4.656   4.806   1.833  0.3722 -0.1623  0.7914
16757TIP3   OH271685   6.003   0.613  10.565 -0.0929  0.0334  0.1241
16757TIP3    H171686   6.030   0.524  10.590  0.4753 -0.2481 -1.4168
16757TIP3    H271687   5.929   0.632  10.624 -1.0683 -1.9763 -0.3506
16758TIP3   OH271688   3.018   4.584   0.306 -0.1115 -0.0762 -0.3804
16758TIP3    H171689   3.075   4.558   0.379  0.7718 -2.2971 -1.7248
16758TIP3    H271690   3.068   4.651   0.259  0.8263 -0.9883 -0.7365
16759TIP3   OH271691   4.937   1.806  13.715 -0.4957  0.0379  0.3891
16759TIP3    H171692   4.881   1.807  13.638  0.8734  3.3322 -0.7289
16759TIP3    H271693   5.016   1.761  13.687 -0.7405 -0.4539  0.4830
16760TIP3   OH271694   4.252   5.979  12.597 -0.0993 -0.3750 -0.0242
16760TIP3    H171695   4.220   5.902  12.550  0.9129 -0.6375 -0.3031
16760TIP3    H271696   4.175   6.015  12.641 -0.6890 -1.2085 -0.3735
16761TIP3   OH271697   3.258   4.817   2.917  0.5346  0.1898  0.2818
16761TIP3    H171698   3.256   4.854   2.828 -0.5633 -1.5650 -0.4777
16761TIP3    H271699   3.351   4.803   2.934  0.8518  1.6231 -0.0837
16762TIP3   OH271700   2.015   3.872   0.904 -0.1583  0.3644  0.1975
16762TIP3    H171701   2.054   3.937   0.962 -0.3387 -0.1051  0.8508
16762TIP3    H271702   1.940   3.918   0.865  0.7304  1.1105 -0.6979
16763TIP3   OH271703   3.570   0.607   4.772 -0.1625 -0.2083  0.7669
16763TIP3    H171704   3.542   0.556   4.848 -0.7332 -0.6121  0.2934
16763TIP3    H271705   3.491   0.617   4.719  0.3354 -0.3505 -0.0159
16764TIP3   OH271706   1.336   0.871  14.512  0.6430  0.0482 -0.2181
16764TIP3    H171707   1.278   0.805  14.475  0.0986  0.4127 -0.0183
16764TIP3    H271708   1.350   0.843  14.602  1.7136 -0.6651 -0.5772
16765TIP3   OH271709   3.061   3.601  14.474  0.4401 -0.1147 -0.1964
16765TIP3    H171710   3.021   3.684  14.448 -0.4529  0.0106  1.5008
16765TIP3    H271711   2.987   3.544  14.495  1.0603 -1.1892 -0.8406
16766TIP3   OH271712   2.301   2.280   1.446 -0.2786 -0.5514 -0.3566
16766TIP3    H171713   2.243   2.334   1.500 -0.5457  0.0893 -1.2716
16766TIP3    H271714   2.290   2.314   1.357  1.3380 -0.5518 -0.5875
16767TIP3   OH271715   2.726   0.236  12.691  0.2513 -0.0060 -0.3556
16767TIP3    H171716   2.675   0.163  12.725 -1.3433  1.2953  0.1889
16767TIP3    H271717   2.748   0.288  12.768  2.5261 -0.5707 -0.5707
16768TIP3   OH271718   6.171   3.516   3.698  0.0116  0.5937 -0.0976
16768TIP3    H171719   6.181   3.573   3.621  0.5887 -0.8688 -1.1465
16768TIP3    H271720   6.165   3.577   3.772 -0.0339  2.0305 -1.2354
16769TIP3   OH271721   5.699   2.984   2.106 -0.1167  0.8863  0.2421
16769TIP3    H171722   5.776   2.929   2.123 -1.8972 -1.8966 -0.0405
16769TIP3    H271723   5.672   3.014   2.193  0.2636  0.3834  0.5419
16770TIP3   OH271724   4.557   2.109  15.216 -0.3033 -0.2666  0.4108
16770TIP3    H171725   4.499   2.184  15.204 -0.8401 -0.5503  1.1697
16770TIP3    H271726   4.616   2.135  15.287  0.4420 -0.0227 -0.2821
16771TIP3   OH271727   4.832   4.409   5.439  0.0127 -0.1296  0.1357
16771TIP3    H171728   4.902   4.345   5.428 -0.7367 -1.0798  0.7904
16771TIP3    H271729   4.752   4.357   5.448 -0.7339  0.9214 -0.1822
16772TIP3   OH271730   0.341   5.256   0.113  1.0913  0.2696 -0.0125
16772TIP3    H171731   0.415   5.304   0.149  0.6638  0.9012  0.0259
16772TIP3    H271732   0.267   5.278   0.169  0.7935 -0.0903 -0.2523
16773TIP3   OH271733   2.719   6.396   3.415 -0.0621  0.3732  0.3194
16773TIP3    H171734   2.626   6.400   3.436 -0.0169 -1.2656  0.9695
16773TIP3    H271735   2.761   6.442   3.488 -0.3880  1.7723 -0.3544
16774TIP3   OH271736   1.114   2.876  15.563 -0.4556 -0.5684 -0.5906
16774TIP3    H171737   1.108   2.821  15.485 -0.6110 -2.8595  0.9439
16774TIP3    H271738   1.200   2.917  15.557  0.3449 -2.2549 -1.0183
16775TIP3   OH271739   6.479   1.737  15.179  0.1648  0.4111 -0.1240
16775TIP3    H171740   6.387   1.764  15.175 -0.3881 -1.4814 -1.7669
16775TIP3    H271741   6.509   1.768  15.265 -1.5644  2.3189 -0.1242
16776TIP3   OH271742   1.340   6.106  15.411 -0.3426  0.1562 -0.0164
16776TIP3    H171743   1.364   6.199  15.415 -0.3692  0.1416  0.7559
16776TIP3    H271744   1.421   6.061  15.389 -0.6150  0.4662 -1.7405
16777TIP3   OH271745   4.035   3.382   3.528 -0.3469  0.2949 -0.1365
16777TIP3    H171746   4.068   3.295   3.547  0.0805  0.6318  0.7029
16777TIP3    H271747   4.067   3.401   3.440  1.3354  0.4328  0.4802
16778TIP3   OH271748   1.501   3.350   5.148 -0.2743 -0.6330  0.5287
16778TIP3    H171749   1.592   3.321   5.152  0.7032  2.1163  0.4536
16778TIP3    H271750   1.467   3.336   5.236 -0.3689 -3.1543  0.1709
16779TIP3   OH271751   2.192   0.896   2.716 -0.4570 -0.1569  0.2757
16779TIP3    H171752   2.126   0.945   2.765  0.9224  2.5930 -0.4138
16779TIP3    H271753   2.275   0.934   2.744  0.4664  1.0065 -3.5138
16780TIP3   OH271754   3.146   3.046   6.674  0.2244  0.2187  0.3336
16780TIP3    H171755   3.134   3.134   6.709 -0.6817 -0.0634  0.7556
16780TIP3    H271756   3.069   3.031   6.619  1.1798  0.3052 -1.0712
16781TIP3   OH271757   1.573   3.829  15.108 -0.6774  0.0873 -0.4840
16781TIP3    H171758   1.657   3.785  15.098 -0.3273  0.6315  0.0568
16781TIP3    H271759   1.570   3.891  15.034 -0.1196  0.8308  0.0987
16782TIP3   OH271760   3.863   0.727  12.240  0.5934  0.0357 -0.2054
16782TIP3    H171761   3.835   0.769  12.321 -0.0783  1.5840 -1.1913
16782TIP3    H271762   3.823   0.640  12.243 -3.4111  1.6249 -0.8900
16783TIP3   OH271763   2.532   0.205   1.920 -0.2910 -0.7595  0.2071
16783TIP3    H171764   2.594   0.194   1.848 -0.5858 -0.3876 -0.1164
16783TIP3    H271765   2.554   0.137   1.983 -0.4031 -1.4737 -0.5063
16784TIP3   OH271766   1.779   0.679   0.973  0.0498 -0.1729  0.4273
16784TIP3    H171767   1.756   0.745   0.908  0.0392 -0.3584  0.2391
16784TIP3    H271768   1.787   0.598   0.922  1.2564 -0.0974  0.4656
16785TIP3   OH271769   2.462   3.389   6.020 -0.0571 -0.7361 -0.0942
16785TIP3    H171770   2.483   3.356   5.932 -1.0436 -0.0250 -0.6163
16785TIP3    H271771   2.399   3.325   6.054 -1.9649  0.4745 -1.1047
16786TIP3   OH271772   2.345   0.496   3.234  0.0801  0.1999  0.2867
16786TIP3    H171773   2.390   0.577   3.211  1.9466 -0.4951  1.2654
16786TIP3    H271774   2.413   0.441   3.273 -1.9046 -0.2870  3.4748
16787TIP3   OH271775   3.518   0.746   4.511 -0.2150 -0.2497  0.7686
16787TIP3    H171776   3.431   0.748   4.553 -0.4204  0.1188  0.3352
16787TIP3    H271777   3.580   0.753   4.584 -0.5441 -0.6270  1.0917
16788TIP3   OH271778   4.125   2.032  14.949  0.0016 -0.1495  0.2917
16788TIP3    H171779   4.049   1.975  14.954 -0.3769  0.4232  1.3133
16788TIP3    H271780   4.180   1.993  14.881 -0.8053 -1.0406  0.1338
16789TIP3   OH271781   0.989   3.789   2.823  0.3423  0.1827 -0.3485
16789TIP3    H171782   1.022   3.844   2.752 -2.4032  0.9286 -1.1513
16789TIP3    H271783   0.922   3.734   2.781  1.8410 -2.7250  0.7609
16790TIP3   OH271784   0.340   0.722   3.075 -0.1785  0.2062 -0.1679
16790TIP3    H171785   0.344   0.665   3.151 -0.2135  0.4124 -0.0095
16790TIP3    H271786   0.248   0.721   3.048  0.0341 -0.7483 -0.8899
16791TIP3   OH271787   0.686   1.352  12.675  0.5523 -0.5023 -0.5927
16791TIP3    H171788   0.738   1.385  12.748  0.7609 -0.2162 -0.8651
16791TIP3    H271789   0.676   1.258  12.692  0.1411 -0.3384  0.0763
16792TIP3   OH271790   5.346   2.201   1.352  0.6164 -0.2457 -0.1023
16792TIP3    H171791   5.363   2.268   1.285 -0.3831 -0.2397 -0.3627
16792TIP3    H271792   5.263   2.162   1.325  0.8991 -1.1876  0.3801
16793TIP3   OH271793   5.528   3.022   0.604 -0.0668 -0.1535 -0.5284
16793TIP3    H171794   5.539   3.087   0.673  0.9572  1.2092 -1.9090
16793TIP3    H271795   5.531   3.072   0.523 -1.2071 -1.7120 -1.5904
16794TIP3   OH271796   4.779   0.274  11.608 -0.2180 -0.0401  0.4950
16794TIP3    H171797   4.875   0.273  11.604 -0.2571  0.0272 -0.9015
16794TIP3    H271798   4.759   0.296  11.699  1.1061  1.2440  0.5107
16795TIP3   OH271799   4.573   3.221  16.819 -0.6193 -0.1752  0.1302
16795TIP3    H171800   4.478   3.224  16.807 -1.3019 -1.8814  3.7644
16795TIP3    H271801   4.603   3.157  16.755 -2.1546 -0.7990 -0.0080
16796TIP3   OH271802   4.829   0.925   5.366  0.3372 -0.0470  0.3109
16796TIP3    H171803   4.885   0.863   5.413  1.5188  1.3519  0.7858
16796TIP3    H271804   4.819   0.886   5.279  1.5434 -0.6161  0.4105
16797TIP3   OH271805   5.077   3.310  14.188  0.3305  0.0064 -0.2823
16797TIP3    H171806   5.019   3.352  14.251 -0.4614  0.8958 -1.5654
16797TIP3    H271807   5.165   3.321  14.225  0.0765  2.1423 -0.2004
16798TIP3   OH271808   6.319   0.526  13.540  0.0159  0.3376  0.1668
16798TIP3    H171809   6.400   0.575  13.527 -1.0679  2.4519  0.8075
16798TIP3    H271810   6.308   0.522  13.635 -1.7478  2.2470  0.1403
16799TIP3   OH271811   0.171   0.847   5.244 -0.3957  0.9303  0.1453
16799TIP3    H171812   0.201   0.889   5.324 -0.3001  0.7243  0.2181
16799TIP3    H271813   0.248   0.844   5.187  0.1565 -1.0268  0.9289
16800TIP3   OH271814   1.442   4.765  15.065 -0.0475  0.1410  0.2172
16800TIP3    H171815   1.485   4.766  15.150 -0.0660  0.6217  0.2235
16800TIP3    H271816   1.480   4.690  15.019  1.2171  0.8863  0.0067
16801TIP3   OH271817   1.824   3.356  13.752 -0.6562  0.0687  0.3604
16801TIP3    H171818   1.828   3.398  13.666 -0.1495 -0.3343  0.1788
16801TIP3    H271819   1.892   3.400  13.803 -1.4091  0.7660  0.7698
16802TIP3   OH271820   3.214   3.377  13.547 -0.8225 -0.5290 -0.3159
16802TIP3    H171821   3.189   3.356  13.637 -0.0358  0.1506  0.0763
16802TIP3    H271822   3.249   3.466  13.552 -0.5828 -0.5583 -1.2579
16803TIP3   OH271823   6.253   1.473  11.717 -0.5573 -0.5242  0.3032
16803TIP3    H171824   6.178   1.490  11.774 -0.8365 -0.7701  0.0112
16803TIP3    H271825   6.254   1.378  11.706 -2.8271 -0.3066 -3.1519
16804TIP3   OH271826   1.098   5.424   1.524 -0.8941  0.1427  0.3074
16804TIP3    H171827   1.109   5.448   1.432 -0.5478  0.4687  0.4329
16804TIP3    H271828   1.187   5.411   1.556 -1.0194 -0.0861  0.5701
16805TIP3   OH271829   2.736   6.578  15.731  0.2562  0.2164 -0.0892
16805TIP3    H171830   2.768   6.652  15.782 -0.0327 -0.3569  0.9675
16805TIP3    H271831   2.653   6.607  15.694 -0.7273 -0.1349  1.7545
16806TIP3   OH271832   6.743   4.561  16.523 -0.0971 -0.2470  0.1510
16806TIP3    H171833   6.728   4.469  16.499  1.2387 -0.9220  1.7135
16806TIP3    H271834   6.701   4.571  16.608  0.6436  0.2949  0.4600
16807TIP3   OH271835   2.389   0.489   2.017 -0.0241 -0.2787  0.2273
16807TIP3    H171836   2.408   0.395   2.013 -3.4560 -1.0583 -0.5575
16807TIP3    H271837   2.383   0.508   2.111  2.0465 -0.4391  0.4467
16808TIP3   OH271838   2.165   5.643   2.891  0.0795  0.4335 -0.5416
16808TIP3    H171839   2.202   5.590   2.821  2.0745  0.9512  0.0479
16808TIP3    H271840   2.238   5.697   2.922 -1.1798  1.5022  0.7486
16809TIP3   OH271841   0.938   1.159  13.759 -0.2161  0.3015  0.5776
16809TIP3    H171842   0.884   1.191  13.687  0.5673  2.0710  0.7208
16809TIP3    H271843   0.883   1.094  13.803 -1.0044 -0.2342 -1.1249
16810TIP3   OH271844   5.671   4.883  10.752  0.1959 -0.2725 -0.4602
16810TIP3    H171845   5.582   4.849  10.745  0.6878 -1.3593 -1.8970
16810TIP3    H271846   5.674   4.955  10.688  0.2022  0.1368 -0.0075
16811TIP3   OH271847   1.236   2.495  16.165 -0.5269  0.5473 -0.5249
16811TIP3    H171848   1.205   2.475  16.077 -0.2959  1.1296 -0.7433
16811TIP3    H271849   1.327   2.525  16.153 -0.3741  0.2885 -0.0527
16812TIP3   OH271850   3.127   2.337  13.850  0.3045  0.3497  0.1904
16812TIP3    H171851   3.076   2.257  13.867 -0.0497  0.1926 -1.4960
16812TIP3    H271852   3.063   2.401  13.822  0.7729  0.8367  0.2171
16813TIP3   OH271853   5.718   5.709  14.630 -0.5606  0.1683  0.2559
16813TIP3    H171854   5.795   5.655  14.646  0.0829  1.1737  0.5626
16813TIP3    H271855   5.663   5.697  14.708 -0.4261 -0.0440  0.3184
16814TIP3   OH271856   6.492   3.193   3.517 -0.0155 -0.7640 -0.5562
16814TIP3    H171857   6.484   3.174   3.611 -0.1436  1.7875  0.0266
16814TIP3    H271858   6.563   3.136   3.487  0.0268 -1.6322  1.0953
16815TIP3   OH271859   3.280   5.640   1.169  0.0747  0.6613  0.3312
16815TIP3    H171860   3.255   5.729   1.145 -0.3263  0.5315  0.2739
16815TIP3    H271861   3.251   5.630   1.260  0.8077  0.8504  0.5982
16816TIP3   OH271862   5.590   0.521  13.649 -0.6341 -0.1449  0.7325
16816TIP3    H171863   5.663   0.534  13.589 -0.4627  0.8436  1.1435
16816TIP3    H271864   5.546   0.442  13.616  1.1238 -1.2950  1.0202
16817TIP3   OH271865   1.636   1.596  14.944 -0.8752  0.2869 -0.4393
16817TIP3    H171866   1.708   1.579  15.003 -0.4357  0.1563 -1.0026
16817TIP3    H271867   1.677   1.630  14.864 -1.2230 -1.7253 -1.5474
16818TIP3   OH271868   0.699   1.766  14.160 -0.1994 -0.1157  0.3133
16818TIP3    H171869   0.748   1.684  14.161  0.2187 -0.0698  4.7729
16818TIP3    H271870   0.754   1.828  14.207 -1.5734  2.0568 -0.7850
16819TIP3   OH271871   2.312   6.027  11.199  0.4725  0.7154 -0.7204
16819TIP3    H171872   2.292   6.111  11.241 -1.2391 -0.4113  0.8208
16819TIP3    H271873   2.250   5.965  11.237  1.9648 -1.3677 -1.4947
16820TIP3   OH271874   6.287   3.064   3.422  0.4762 -0.1016  0.6603
16820TIP3    H171875   6.360   3.098   3.474 -0.5468  1.9574  0.8280
16820TIP3    H271876   6.321   3.059   3.333  1.3170 -0.7823  1.0019
16821TIP3   OH271877   2.757   5.303   5.943 -0.5785 -0.3467  0.3536
16821TIP3    H171878   2.715   5.382   5.910  1.9836  0.8212 -0.4068
16821TIP3    H271879   2.798   5.330   6.025 -0.9626 -1.3439  0.8947
16822TIP3   OH271880   4.339   1.952  12.093 -0.3973  0.8798 -0.6219
16822TIP3    H171881   4.299   1.976  12.177 -0.3381 -2.0426  0.3634
16822TIP3    H271882   4.266   1.944  12.032 -0.6969  0.8126 -0.2561
16823TIP3   OH271883   0.459   0.346   4.101 -0.1143 -0.0480  0.2602
16823TIP3    H171884   0.458   0.439   4.122  0.5792 -0.5524  2.9684
16823TIP3    H271885   0.381   0.311   4.145 -0.4689 -0.7364 -0.8827
16824TIP3   OH271886   0.831   1.497   1.997  0.2504 -0.0865  0.0566
16824TIP3    H171887   0.773   1.509   1.921 -0.0460 -2.6423 -0.2354
16824TIP3    H271888   0.850   1.585   2.027 -0.8568  0.9659 -2.0717
16825TIP3   OH271889   0.064   2.774   3.586 -0.5283  0.2077 -0.1585
16825TIP3    H171890  -0.022   2.750   3.622 -0.3994  1.6186  1.1863
16825TIP3    H271891   0.051   2.771   3.491 -1.4456 -1.6695 -0.0232
16826TIP3   OH271892   0.233   2.716  16.536 -0.2473  0.3958 -0.2764
16826TIP3    H171893   0.313   2.767  16.544  0.0704 -0.1230 -0.0813
16826TIP3    H271894   0.181   2.762  16.470  0.6130  0.2123 -1.1013
16827TIP3   OH271895   2.626   4.644   6.357 -0.3138  0.2206  0.6322
16827TIP3    H171896   2.712   4.608   6.334 -1.0659 -1.3966  0.1652
16827TIP3    H271897   2.645   4.714   6.419  1.3915  0.5105 -0.1415
16828TIP3   OH271898   1.212   5.556  14.206 -0.4717  0.0612  0.0483
16828TIP3    H171899   1.303   5.541  14.178  0.1102  0.1282  1.7888
16828TIP3    H271900   1.199   5.650  14.196  0.1766  0.2933  1.1909
16829TIP3   OH271901   6.075   2.231  11.300  0.6504  0.0744  0.3097
16829TIP3    H171902   6.100   2.228  11.207  0.9943  2.0025  0.2898
16829TIP3    H271903   6.138   2.292  11.339  0.3092 -0.4693  1.7530
16830TIP3   OH271904   4.554   2.509   1.592 -0.1304  0.0709  0.3546
16830TIP3    H171905   4.501   2.530   1.668  0.4969 -1.1954  1.1773
16830TIP3    H271906   4.580   2.417   1.605  0.2549 -0.0799 -1.2205
16831TIP3   OH271907   1.538   5.473  13.716 -0.4872  0.0603 -0.1201
16831TIP3    H171908   1.571   5.384  13.704 -1.0725  0.0240 -1.6718
16831TIP3    H271909   1.596   5.527  13.662 -0.5820  0.5280  0.2426
16832TIP3   OH271910   0.190   2.583  11.807  0.3568  0.2201  0.2811
16832TIP3    H171911   0.107   2.623  11.782  0.4864  1.1134  1.2276
16832TIP3    H271912   0.182   2.492  11.780 -0.0379  0.8089 -1.7130
16833TIP3   OH271913   4.232   5.885   0.516  0.1014 -0.0468 -0.2913
16833TIP3    H171914   4.306   5.843   0.560  0.6932  1.8756  0.6593
16833TIP3    H271915   4.260   5.893   0.425  0.0312 -1.5224 -0.4613
16834TIP3   OH271916   3.057   6.779   2.751  0.1397 -0.9487 -0.0456
16834TIP3    H171917   2.991   6.720   2.787  0.5810 -1.0159  0.6838
16834TIP3    H271918   3.091   6.825   2.828  2.7210 -2.7162  0.0033
16835TIP3   OH271919   2.700   0.632  15.512  0.2133  0.2603 -0.0512
16835TIP3    H171920   2.640   0.558  15.521  0.3754  0.1615  0.2227
16835TIP3    H271921   2.747   0.615  15.430  0.9905 -0.4893  0.5260
16836TIP3   OH271922   3.337   2.438  12.157  0.3762  0.8346 -0.0524
16836TIP3    H171923   3.265   2.412  12.214  1.2256  0.4878  0.8991
16836TIP3    H271924   3.414   2.396  12.196  1.0105  0.7758 -1.3415
16837TIP3   OH271925   2.795   2.604  12.113 -0.1310  0.0903 -0.1283
16837TIP3    H171926   2.710   2.594  12.156  0.3148 -1.9482  0.3762
16837TIP3    H271927   2.844   2.664  12.169 -0.6326 -0.0983  0.5216
16838TIP3   OH271928   3.521   2.602   2.912  0.4445  0.5619 -0.0696
16838TIP3    H171929   3.538   2.564   2.998  1.9285  1.0743 -0.1120
16838TIP3    H271930   3.543   2.533   2.850  0.3674  0.5369 -0.0694
16839TIP3   OH271931   0.074   6.734   2.802  0.0148  0.4282  0.2880
16839TIP3    H171932  -0.002   6.790   2.818 -1.0119 -0.5334 -1.0394
16839TIP3    H271933   0.087   6.686   2.884 -1.0174  0.3530  0.4176
16840TIP3   OH271934   2.130   4.503   0.355 -0.7202 -0.2696 -0.1092
16840TIP3    H171935   2.194   4.572   0.371 -1.4294  0.2602  0.5054
16840TIP3    H271936   2.114   4.507   0.261 -0.3195  0.0181 -0.1685
16841TIP3   OH271937   1.354   5.387  12.256 -0.0376  0.4465 -0.4670
16841TIP3    H171938   1.297   5.348  12.190 -0.9297 -0.9431  1.0544
16841TIP3    H271939   1.334   5.481  12.252  0.5524  0.5484 -2.6967
16842TIP3   OH271940   3.161   4.814   0.209 -0.7873  0.4226  0.2556
16842TIP3    H171941   3.202   4.842   0.290  0.4106  0.9871 -0.5225
16842TIP3    H271942   3.187   4.880   0.144 -0.2013 -0.9767 -0.9949
16843TIP3   OH271943   1.053   0.709  11.736  0.3910 -0.7046  0.1156
16843TIP3    H171944   1.084   0.642  11.675  0.8883 -0.4689  0.1086
16843TIP3    H271945   0.959   0.715  11.719  0.4630 -0.9063 -0.3688
16844TIP3   OH271946   1.978   2.031  15.567  0.1861  0.2236  0.5093
16844TIP3    H171947   2.001   1.940  15.585 -0.6407  0.0928  0.9694
16844TIP3    H271948   2.057   2.068  15.528  0.5938 -0.6409  0.4733
16845TIP3   OH271949   3.171   5.340  13.120 -0.0827  0.2990 -0.1747
16845TIP3    H171950   3.234   5.390  13.068 -1.2362  2.0204 -0.0007
16845TIP3    H271951   3.142   5.402  13.187  1.0057 -1.7080  2.2880
16846TIP3   OH271952   2.518   6.688   1.959  0.0860  0.5479 -0.0771
16846TIP3    H171953   2.513   6.688   2.054  0.0428  0.4705 -0.0791
16846TIP3    H271954   2.427   6.695   1.930  0.1607  1.4891 -0.1096
16847TIP3   OH271955   2.601   1.201   4.816  0.4452  0.0390 -0.3742
16847TIP3    H171956   2.625   1.284   4.857  1.8261 -0.6791  0.3356
16847TIP3    H271957   2.637   1.134   4.874 -0.0399 -1.0600 -1.2994
16848TIP3   OH271958   4.031   0.085   2.427  0.2128 -0.6300  0.1398
16848TIP3    H171959   4.028   0.004   2.377  0.5065  0.0980 -1.1187
16848TIP3    H271960   4.072   0.061   2.510 -0.9595 -2.0222  0.3622
16849TIP3   OH271961   5.094   5.093   3.191  0.0584 -0.2387  0.1720
16849TIP3    H171962   5.014   5.040   3.193  0.1807 -0.4094  0.6513
16849TIP3    H271963   5.161   5.035   3.157  0.2109 -0.4223  0.7752
16850TIP3   OH271964   2.262   2.302   6.004  0.1077  0.4022 -0.1596
16850TIP3    H171965   2.189   2.259   5.959  0.7150 -1.1606  0.2691
16850TIP3    H271966   2.224   2.334   6.086  0.0094 -1.0783  0.4183
16851TIP3   OH271967   0.463   2.659  12.673 -0.1335  0.1866  0.2514
16851TIP3    H171968   0.556   2.659  12.695  0.0069 -1.1212 -0.2509
16851TIP3    H271969   0.455   2.719  12.599  0.5551 -0.7222 -0.5840
16852TIP3   OH271970   4.098   4.184   3.599  0.0585 -1.0434 -0.7699
16852TIP3    H171971   4.174   4.173   3.657  0.3809  3.0450 -0.1153
16852TIP3    H271972   4.050   4.258   3.637 -1.8559 -0.6913 -3.6166
16853TIP3   OH271973   2.324   2.652  11.356  0.7256 -0.1421 -0.0171
16853TIP3    H171974   2.369   2.610  11.282 -2.6262 -0.6634 -1.9563
16853TIP3    H271975   2.234   2.620  11.351 -0.6245  2.8706  1.9582
16854TIP3   OH271976   0.316   2.556   4.950  0.6048 -0.7767 -0.1141
16854TIP3    H171977   0.402   2.594   4.970  0.2264 -0.4040  0.8538
16854TIP3    H271978   0.260   2.582   5.023 -0.9789  0.9996 -1.8435
16855TIP3   OH271979   0.983   2.803  14.699  0.2431 -0.8171 -0.3077
16855TIP3    H171980   0.896   2.766  14.691 -0.2758 -0.3707  2.2480
16855TIP3    H271981   1.039   2.730  14.726  0.2476 -0.7430 -0.1091
16856TIP3   OH271982   1.546   3.868  16.242 -0.5552  0.1952 -0.2064
16856TIP3    H171983   1.564   3.827  16.158 -1.3726  0.5205 -0.5476
16856TIP3    H271984   1.513   3.796  16.297  1.6090 -0.3910  0.4071
16857TIP3   OH271985   3.356   0.802   1.778 -0.3522 -0.2784  0.3731
16857TIP3    H171986   3.356   0.708   1.764 -0.6677 -0.1776 -0.3283
16857TIP3    H271987   3.311   0.838   1.701 -1.8795  0.3242  1.5132
16858TIP3   OH271988   0.544   6.370  15.258  0.1644  0.9162  0.8989
16858TIP3    H171989   0.522   6.443  15.201 -0.4800  1.1055  1.3888
16858TIP3    H271990   0.639   6.360  15.248 -0.0936 -0.1140 -1.4839
16859TIP3   OH271991   3.458   0.998  13.083  0.1381  0.3209  0.1332
16859TIP3    H171992   3.546   0.992  13.119  0.0392 -0.1945  0.2952
16859TIP3    H271993   3.430   1.087  13.102  0.2821  0.2058  0.8816
16860TIP3   OH271994   2.772   5.737   1.392 -0.2176 -0.0511 -0.2282
16860TIP3    H171995   2.784   5.650   1.354 -1.6997 -0.3398 -0.0878
16860TIP3    H271996   2.772   5.722   1.487 -1.5552 -0.0943 -0.2080
16861TIP3   OH271997   3.994   0.964  12.985  0.1032  0.5217  0.0494
16861TIP3    H171998   4.023   0.996  12.899 -2.4393  0.9916 -0.7071
16861TIP3    H271999   3.998   1.042  13.041  1.5875  0.2566  0.3513
16862TIP3   OH272000   2.195   3.054  14.501  0.0303  0.4138  0.6424
16862TIP3    H172001   2.262   3.078  14.438  0.7645  1.6275  1.8482
16862TIP3    H272002   2.168   3.136  14.542 -2.0547 -0.0647  0.3479
16863TIP3   OH272003   1.939   0.619  16.971 -0.2335 -0.1693  0.6104
16863TIP3    H172004   1.892   0.583  16.896  1.1418  0.7728 -0.7747
16863TIP3    H272005   2.025   0.577  16.968  0.1509  0.5596  1.1124
16864TIP3   OH272006   1.360   3.464  13.736  0.1972 -0.1951 -0.1101
16864TIP3    H172007   1.366   3.432  13.646  1.1009  1.2716 -0.5919
16864TIP3    H272008   1.382   3.557  13.731  1.8459 -0.4108  1.8458
16865TIP3   OH272009   5.868   0.741  13.326 -0.5387 -0.4056 -0.3026
16865TIP3    H172010   5.919   0.683  13.381  0.5443  0.0318 -0.8126
16865TIP3    H272011   5.903   0.828  13.343 -1.0355 -0.1078 -0.7514
16866TIP3   OH272012   2.572   4.383  16.234 -0.1788  0.5826  0.2672
16866TIP3    H172013   2.537   4.302  16.272  0.8251  0.6935  1.4677
16866TIP3    H272014   2.585   4.361  16.141 -0.4407 -0.4602  0.4565
16867TIP3   OH272015   0.835   1.606   0.911 -0.1853 -0.0499  0.1489
16867TIP3    H172016   0.800   1.655   0.836  1.1857  1.6798  0.5731
16867TIP3    H272017   0.927   1.593   0.890  0.0052 -0.3585  1.1371
16868TIP3   OH272018   5.877   0.016  13.193 -0.0098  0.1949  0.0163
16868TIP3    H172019   5.874   0.064  13.276  2.3639  0.2244  0.1540
16868TIP3    H272020   5.850   0.079  13.128  1.8205  1.4178  0.3577
16869TIP3   OH272021   2.940   5.241  15.540 -0.0358  0.0159  0.3194
16869TIP3    H172022   2.964   5.220  15.630  1.9989  0.3050 -0.1037
16869TIP3    H272023   2.927   5.336  15.540 -1.7237 -0.1983  0.6442
16870TIP3   OH272024   0.061   0.468   4.353  0.1105 -0.0535 -0.0785
16870TIP3    H172025   0.072   0.539   4.416 -1.3354 -1.5016  1.9138
16870TIP3    H272026  -0.021   0.486   4.309  0.2955  0.0797 -0.3739
16871TIP3   OH272027   3.287   1.865  16.003  0.1678  0.3042  0.1727
16871TIP3    H172028   3.219   1.818  16.051 -1.2961  1.1109 -1.0082
16871TIP3    H272029   3.355   1.883  16.068 -1.1186  0.1954  1.5941
16872TIP3   OH272030   3.989   0.831   5.327  0.6066 -0.6487  1.0289
16872TIP3    H172031   3.963   0.858   5.415  0.4369 -1.3390  1.2008
16872TIP3    H272032   3.974   0.908   5.272 -0.4434 -0.5800  1.3887
16873TIP3   OH272033   1.536   0.901   4.294 -0.4581 -0.3320  0.2372
16873TIP3    H172034   1.483   0.861   4.225 -0.5984  1.1073 -0.5173
16873TIP3    H272035   1.515   0.851   4.373  0.9593 -3.1703 -1.0134
16874TIP3   OH272036   2.061   4.526   4.495 -0.2323  0.0218 -0.0403
16874TIP3    H172037   2.047   4.439   4.458 -2.5687  0.1932  0.2800
16874TIP3    H272038   2.151   4.549   4.470  0.2385 -2.2272 -0.5957
16875TIP3   OH272039   3.115   2.432   0.053  0.1873  0.2647 -0.0840
16875TIP3    H172040   3.041   2.376   0.029 -0.8002  2.2009 -1.8392
16875TIP3    H272041   3.082   2.485   0.126  0.0409  0.7040 -0.4662
16876TIP3   OH272042   2.271   3.446   4.734  0.2380 -0.0189  0.5893
16876TIP3    H172043   2.354   3.404   4.715  0.0866 -1.6363  3.0261
16876TIP3    H272044   2.213   3.375   4.759 -1.2334  1.2778  1.0775
16877TIP3   OH272045   5.551   5.800   4.966 -0.0291  0.2393  0.6287
16877TIP3    H172046   5.610   5.726   4.982 -1.7195 -0.9020  1.9543
16877TIP3    H272047   5.601   5.859   4.910  1.7941 -1.3774  0.4542
16878TIP3   OH272048   4.326   0.044   3.310  0.2534 -0.6033 -0.1677
16878TIP3    H172049   4.325   0.133   3.276  1.2540 -0.4603  0.1296
16878TIP3    H272050   4.393   0.045   3.378  0.2517 -1.5721 -0.1318
16879TIP3   OH272051   4.597   4.472  11.123  0.1800 -0.3398  0.0724
16879TIP3    H172052   4.579   4.403  11.187  0.2322  0.1394  0.6067
16879TIP3    H272053   4.546   4.547  11.153  1.8762  0.5848  0.7951
16880TIP3   OH272054   5.427   5.873  12.554 -0.0427 -0.4737 -0.0623
16880TIP3    H172055   5.423   5.934  12.627 -0.9766  1.0836 -1.3442
16880TIP3    H272056   5.515   5.885  12.518  0.3578 -1.1202  0.6663
16881TIP3   OH272057   1.771   3.741  14.919  0.0571  0.0825 -0.4491
16881TIP3    H172058   1.721   3.733  14.838  0.6389  0.4304 -0.8440
16881TIP3    H272059   1.764   3.655  14.960  0.8033 -0.4770 -1.4747
16882TIP3   OH272060   3.582   4.075   3.110 -0.5593  0.0413  0.3630
16882TIP3    H172061   3.581   4.105   3.019  0.7695 -0.1964  0.2426
16882TIP3    H272062   3.492   4.049   3.128 -1.0208  0.8980 -0.6085
16883TIP3   OH272063   3.195   2.827  16.293  0.0538 -0.1147 -0.1716
16883TIP3    H172064   3.165   2.917  16.281  0.8154  0.0609 -0.8209
16883TIP3    H272065   3.257   2.812  16.222  0.1440 -1.0672  0.0873
16884TIP3   OH272066   3.666   4.026   3.631  0.0434 -0.8203 -0.1274
16884TIP3    H172067   3.603   4.072   3.576 -0.5649 -2.2297 -0.6672
16884TIP3    H272068   3.700   3.956   3.575  3.3308  0.8356 -0.3958
16885TIP3   OH272069   4.042   0.300  12.901 -0.5154  0.3331  0.4133
16885TIP3    H172070   4.113   0.320  12.962 -1.0229 -0.5747  1.3258
16885TIP3    H272071   4.084   0.297  12.815  0.1082  2.2087  0.6085
16886TIP3   OH272072   0.723   5.341  13.566  0.0636 -0.0328  0.3411
16886TIP3    H172073   0.764   5.320  13.650  1.0394  0.7033  0.0590
16886TIP3    H272074   0.672   5.263  13.544  0.0959 -0.3817  1.4258
16887TIP3   OH272075   0.934   3.503   5.906 -0.0362  0.0033 -0.3068
16887TIP3    H172076   0.926   3.596   5.927 -0.9149  0.1342 -1.1410
16887TIP3    H272077   0.918   3.498   5.812 -0.8153 -1.0681 -0.1407
16888TIP3   OH272078   2.114   1.752  11.810 -0.1125  0.1828 -0.5475
16888TIP3    H172079   2.154   1.810  11.875 -0.1935  1.4289 -1.5583
16888TIP3    H272080   2.069   1.811  11.749  0.1858 -0.9000 -1.8844
16889TIP3   OH272081   2.779   4.884  15.624  0.1465  0.1788  0.3211
16889TIP3    H172082   2.868   4.901  15.595 -0.2337 -0.7191 -1.4877
16889TIP3    H272083   2.773   4.927  15.709  2.7174 -0.8870  1.1408
16890TIP3   OH272084   2.922   0.620  14.772  0.4453 -0.2010  0.4473
16890TIP3    H172085   2.866   0.542  14.773  0.6252 -0.3402 -0.2333
16890TIP3    H272086   2.861   0.693  14.767  0.3178 -0.3504 -0.2613
16891TIP3   OH272087   1.806   1.055  14.926 -0.1498  0.5834  0.0181
16891TIP3    H172088   1.750   1.119  14.969  0.8130  0.7440  1.0659
16891TIP3    H272089   1.843   1.103  14.852  0.6762  1.3074  0.8778
16892TIP3   OH272090   3.623   0.414   1.011  0.4011  0.6907 -0.4473
16892TIP3    H172091   3.570   0.422   0.932 -1.0733 -0.1150  0.4317
16892TIP3    H272092   3.655   0.324   1.009  0.4922  0.7172 -0.1985
16893TIP3   OH272093   5.084   2.886  16.879  0.0210  0.3953  0.3332
16893TIP3    H172094   5.144   2.880  16.953 -2.6757  0.0186  2.6786
16893TIP3    H272095   5.027   2.810  16.889 -0.2038  0.0984 -2.4472
16894TIP3   OH272096   2.253   6.263  13.189 -0.5757  0.0812 -0.0852
16894TIP3    H172097   2.317   6.332  13.176  0.0246  0.0692  2.3388
16894TIP3    H272098   2.207   6.287  13.270 -1.6276 -1.3889 -0.1958
16895TIP3   OH272099   3.169   1.208   5.123 -0.2453  0.3906 -0.8722
16895TIP3    H172100   3.145   1.233   5.212  0.0048 -0.9047 -0.4291
16895TIP3    H272101   3.195   1.116   5.129 -0.1471  0.2995 -2.2690
16896TIP3   OH272102   5.608   3.719   3.412  0.6286  1.0085  0.5042
16896TIP3    H172103   5.664   3.662   3.465  1.4996  0.9279 -0.4583
16896TIP3    H272104   5.599   3.799   3.463 -2.8893 -0.8167  3.2234
16897TIP3   OH272105   4.028   3.997  15.570  0.3445  0.0767  1.3124
16897TIP3    H172106   4.071   4.057  15.630 -1.2305  1.8931  0.7287
16897TIP3    H272107   4.029   4.042  15.486  0.6669 -1.5182  0.4196
16898TIP3   OH272108   5.092   6.656  17.036 -0.1053  0.3730  0.9058
16898TIP3    H172109   5.068   6.662  16.944  2.8066 -0.9201 -0.0742
16898TIP3    H272110   5.009   6.645  17.082 -1.5139 -1.6896 -1.8276
16899TIP3   OH272111   3.820   4.497  12.030 -0.8543  0.1112  0.4088
16899TIP3    H172112   3.787   4.432  11.968 -0.7982 -0.6745  1.1916
16899TIP3    H272113   3.909   4.515  12.001 -0.6187 -0.6999  0.5954
16900TIP3   OH272114   5.903   0.935  16.057  0.2713 -0.2287 -0.1961
16900TIP3    H172115   5.931   1.001  16.121  0.5236 -1.0625  0.5598
16900TIP3    H272116   5.966   0.944  15.985  2.0155 -1.4903  1.1079
16901TIP3   OH272117   3.758   2.124   3.407 -0.1787  0.0120 -0.4101
16901TIP3    H172118   3.811   2.172   3.471 -2.2596  1.3790  0.3854
16901TIP3    H272119   3.817   2.111   3.332  1.2706  1.4362  0.4194
16902TIP3   OH272120   0.288   6.005  14.360 -0.2545  0.2909  0.3449
16902TIP3    H172121   0.214   6.055  14.327  0.7331  2.6188  1.4520
16902TIP3    H272122   0.302   5.936  14.294 -2.7627  0.3456 -0.3453
16903TIP3   OH272123   2.736   2.773  13.400  0.2292  0.9626  0.9757
16903TIP3    H172124   2.680   2.800  13.473 -1.9426 -1.9162  0.5601
16903TIP3    H272125   2.712   2.833  13.329 -1.7789  0.3750  1.0830
16904TIP3   OH272126   5.235   5.425  14.233 -0.1641  0.4960 -0.4250
16904TIP3    H172127   5.307   5.475  14.193  0.9618 -0.4450  0.3722
16904TIP3    H272128   5.265   5.334  14.230 -1.0967  0.1534  0.4085
16905TIP3   OH272129   4.572   5.402   3.138 -0.0862  0.7137  0.4961
16905TIP3    H172130   4.481   5.391   3.112 -0.1545  0.9822  0.6160
16905TIP3    H272131   4.574   5.485   3.186  0.0575  0.2936  1.2336
16906TIP3   OH272132   1.627   4.610  15.861 -0.3395  0.2675 -0.2328
16906TIP3    H172133   1.548   4.585  15.908 -1.0394  1.7490 -0.5493
16906TIP3    H272134   1.644   4.538  15.801 -3.3522  1.2103 -2.5029
16907TIP3   OH272135   2.971   1.458   2.203  0.5111  0.2669  0.0672
16907TIP3    H172136   2.886   1.469   2.160  0.8373  0.8938 -0.4302
16907TIP3    H272137   3.015   1.391   2.151  0.6287  0.5137 -0.1522
16908TIP3   OH272138   4.332   5.452  12.025  0.2328 -0.4945  0.4633
16908TIP3    H172139   4.274   5.376  12.019 -1.9424  0.7774  3.4113
16908TIP3    H272140   4.284   5.523  11.983  1.2955 -0.1755 -0.2769
16909TIP3   OH272141   6.492   3.589  11.372 -0.1731 -0.3203  0.1804
16909TIP3    H172142   6.429   3.623  11.436  0.6666  0.8824  0.3994
16909TIP3    H272143   6.497   3.495  11.390 -0.2587 -0.0612  1.6195
16910TIP3   OH272144   5.717   5.178  11.642 -0.1867  0.4384  0.0581
16910TIP3    H172145   5.622   5.171  11.646 -0.3168  0.2080 -2.1586
16910TIP3    H272146   5.747   5.089  11.621  0.5129  0.5190  0.6754
16911TIP3   OH272147   4.904   3.625   4.323 -0.0595 -0.2963  0.2625
16911TIP3    H172148   4.843   3.648   4.392 -0.6946  0.0128 -0.3940
16911TIP3    H272149   4.855   3.565   4.266  1.0718 -2.1213  1.1150
16912TIP3   OH272150   6.702   0.907   1.504  0.1269  0.3148 -0.9248
16912TIP3    H172151   6.651   0.866   1.574  1.2597 -2.1393 -1.4248
16912TIP3    H272152   6.669   0.997   1.499 -0.2618  0.4626  2.4506
16913TIP3   OH272153   1.190   2.804  13.523 -0.1633  0.4306 -0.3579
16913TIP3    H172154   1.133   2.875  13.494  0.9911  1.8675  0.7415
16913TIP3    H272155   1.187   2.740  13.452 -2.1628  1.0114 -0.8543
16914TIP3   OH272156   1.175   2.415   1.913 -0.1400 -0.1561  0.4633
16914TIP3    H172157   1.231   2.374   1.979 -0.3532 -0.7801  0.2664
16914TIP3    H272158   1.193   2.367   1.832 -0.9299 -0.3530  0.3927
16915TIP3   OH272159   1.173   1.777   2.271 -0.6059  0.0164  0.6642
16915TIP3    H172160   1.217   1.709   2.220 -0.1064 -0.1244  1.2647
16915TIP3    H272161   1.126   1.729   2.339  0.9991  0.3005  2.0577
16916TIP3   OH272162   2.342   1.225   3.835  0.0624 -0.2341  0.1456
16916TIP3    H172163   2.292   1.271   3.903 -0.3356  0.7536 -0.7883
16916TIP3    H272164   2.341   1.134   3.863 -1.7635 -0.1504  0.4832
16917TIP3   OH272165   6.459   1.763   0.766  0.0554  0.1544 -0.4724
16917TIP3    H172166   6.528   1.788   0.828 -0.0768  0.6145 -0.5043
16917TIP3    H272167   6.492   1.684   0.724 -0.4793 -1.0351  1.2202
16918TIP3   OH272168   3.284   2.606   1.957 -0.3089 -0.3537  0.1598
16918TIP3    H172169   3.269   2.538   1.891  2.2123 -0.9608  0.1194
16918TIP3    H272170   3.259   2.565   2.040  1.5343 -1.5371  0.1834
16919TIP3   OH272171   1.519   3.177   4.859 -0.5287  0.5639  0.1176
16919TIP3    H172172   1.533   3.262   4.901  0.0978  0.3137  0.4244
16919TIP3    H272173   1.607   3.149   4.831 -0.9479  0.8253 -1.5655
16920TIP3   OH272174   5.951   6.106   2.079  0.0475  0.3635 -0.2946
16920TIP3    H172175   5.937   6.170   2.009  0.5950  0.4059 -0.3710
16920TIP3    H272176   6.040   6.124   2.111  1.2256 -1.9408 -1.9948
16921TIP3   OH272177   3.206   4.819  11.855  0.2559 -0.6134 -0.6423
16921TIP3    H172178   3.176   4.889  11.912 -0.4433 -0.8920 -0.6514
16921TIP3    H272179   3.213   4.743  11.912  0.9882 -0.5503 -0.6369
16922TIP3   OH272180   1.793   2.272   2.408 -0.0859 -0.0981  0.4288
16922TIP3    H172181   1.863   2.336   2.396  1.5400 -1.7060  0.7974
16922TIP3    H272182   1.802   2.245   2.500 -0.2493 -1.3811  0.0791
16923TIP3   OH272183   0.516   5.915  13.169  0.5354  0.0103  0.4944
16923TIP3    H172184   0.540   5.878  13.084 -0.3109 -0.4178  0.4212
16923TIP3    H272185   0.562   5.998  13.173 -1.5210  1.4178 -1.6397
16924TIP3   OH272186   5.193   5.803   0.705 -0.1929  1.4607  0.5524
16924TIP3    H172187   5.101   5.781   0.693  0.3036  0.4186 -2.1109
16924TIP3    H272188   5.230   5.730   0.755  0.1461 -0.9605 -2.8840
16925TIP3   OH272189   1.917   4.160   1.917  0.3409 -0.4034  0.2220
16925TIP3    H172190   1.871   4.077   1.917 -0.3794 -0.0342 -0.9195
16925TIP3    H272191   1.852   4.223   1.885  1.5541  0.1654 -1.2313
16926TIP3   OH272192   5.931   4.440   3.190 -0.0319 -0.1332  0.2165
16926TIP3    H172193   6.023   4.467   3.190  0.9855 -2.9687 -2.4922
16926TIP3    H272194   5.915   4.412   3.280  1.1834  1.9440  1.1576
16927TIP3   OH272195   3.692   3.365  15.964  0.5450  0.3298 -0.1756
16927TIP3    H172196   3.702   3.460  15.976  2.4770  0.0725  0.6975
16927TIP3    H272197   3.710   3.350  15.872  0.2713  0.8157 -0.3102
16928TIP3   OH272198   6.779   4.652   3.578  0.9935 -0.2574 -0.6043
16928TIP3    H172199   6.823   4.567   3.583 -2.3182 -2.1242 -0.6975
16928TIP3    H272200   6.762   4.663   3.484 -1.3611 -1.1407 -0.3441
16929TIP3   OH272201   3.696   1.021   6.117  0.0592  0.4080  0.3810
16929TIP3    H172202   3.783   1.009   6.079 -0.1714  1.3141 -0.4870
16929TIP3    H272203   3.678   1.114   6.105 -0.1616  0.6740  2.4737
16930TIP3   OH272204   4.508   3.244  12.148 -0.3467  0.0009 -0.1856
16930TIP3    H172205   4.536   3.225  12.058  2.1599 -0.1969  0.5590
16930TIP3    H272206   4.518   3.338  12.158 -3.0092  0.4276 -0.7884
16931TIP3   OH272207   5.121   2.041  11.180  0.3175  0.7831 -0.2571
16931TIP3    H172208   5.122   2.127  11.221  0.8991 -0.0903  1.6840
16931TIP3    H272209   5.211   2.011  11.184 -0.2586 -0.9612  1.5862
16932TIP3   OH272210   1.565   5.240  14.909  0.1632 -0.1859 -0.2225
16932TIP3    H172211   1.645   5.292  14.913 -0.8987  1.4340  2.3058
16932TIP3    H272212   1.594   5.154  14.877  2.5271  0.9118 -1.3125
16933TIP3   OH272213   2.824   2.510  13.361  0.6946  0.0176  0.0707
16933TIP3    H172214   2.816   2.605  13.364  0.7252  0.0006  0.7044
16933TIP3    H272215   2.758   2.482  13.297 -0.1353  0.3659  0.7598
16934TIP3   OH272216   6.236   1.896  14.006  0.5941 -0.0309  0.0506
16934TIP3    H172217   6.298   1.876  14.075  2.3964 -0.8299 -1.7092
16934TIP3    H272218   6.247   1.989  13.989  1.6379 -0.2514 -0.5290
16935TIP3   OH272219   6.729   5.348   0.881 -0.3280  0.1034 -0.2393
16935TIP3    H172220   6.761   5.265   0.844 -0.9333  0.2920 -1.2253
16935TIP3    H272221   6.723   5.331   0.975 -3.0893 -1.9622 -0.6242
16936TIP3   OH272222   4.314   2.825   1.558 -0.1796  0.1994  0.1715
16936TIP3    H172223   4.346   2.877   1.632 -0.9633  1.4945 -0.3602
16936TIP3    H272224   4.221   2.811   1.577 -0.1483 -0.3769 -0.0652
16937TIP3   OH272225   3.268   2.207   2.989  0.3853  0.3118 -0.1786
16937TIP3    H172226   3.211   2.136   3.018  1.3150  0.4781  2.3505
16937TIP3    H272227   3.227   2.240   2.909 -2.0413 -0.7242  0.5532
16938TIP3   OH272228   1.276   3.411   4.993 -0.0927  0.1333 -0.3378
16938TIP3    H172229   1.216   3.344   5.027  0.5452  0.0262  0.5958
16938TIP3    H272230   1.361   3.388   5.030  0.6943 -0.0942 -2.1350
16939TIP3   OH272231   0.604   2.095  14.678 -0.4464 -0.3211  0.1324
16939TIP3    H172232   0.576   2.167  14.620 -1.4072 -1.4415 -0.8546
16939TIP3    H272233   0.544   2.024  14.658  0.8031 -1.5861  0.7135
16940TIP3   OH272234   4.665   2.864   1.697  0.5174 -0.0576  0.3615
16940TIP3    H172235   4.702   2.910   1.772 -0.6531  1.7719 -0.1398
16940TIP3    H272236   4.572   2.884   1.699  0.3376 -0.5562 -1.1656
16941TIP3   OH272237   0.805   5.001   4.802  0.1688 -0.3855 -0.4607
16941TIP3    H172238   0.835   4.974   4.889 -2.6025 -0.0576  0.6909
16941TIP3    H272239   0.807   5.097   4.805 -1.0132 -0.3493 -0.2956
16942TIP3   OH272240   2.000   4.252   5.319 -0.1345 -0.3017  0.2515
16942TIP3    H172241   2.013   4.189   5.391  3.0927  0.6812  0.6578
16942TIP3    H272242   2.087   4.268   5.285 -1.2184  1.7846 -1.7849
16943TIP3   OH272243   2.712   3.236  16.507 -0.2083  0.0014  0.2660
16943TIP3    H172244   2.773   3.164  16.526 -0.2795 -0.1825 -0.2108
16943TIP3    H272245   2.672   3.213  16.424 -1.0047  0.0798  0.6214
16944TIP3   OH272246   6.675   3.157  10.818 -0.0952 -0.0254 -0.1564
16944TIP3    H172247   6.646   3.069  10.844 -1.8466  1.0090  1.6294
16944TIP3    H272248   6.765   3.144  10.785 -0.3383 -2.4678 -0.0253
16945TIP3   OH272249   5.279   5.725   3.982  0.0869  0.2116 -0.0447
16945TIP3    H172250   5.184   5.714   3.985  0.1252 -0.9928 -1.7916
16945TIP3    H272251   5.297   5.763   3.896  1.1932  0.5417  0.3084
16946TIP3   OH272252   6.492   4.436  13.715  0.2892 -0.6349  0.1318
16946TIP3    H172253   6.448   4.458  13.633 -3.4774  0.5315  2.2440
16946TIP3    H272254   6.583   4.463  13.702 -0.2635 -0.0689 -3.4329
16947TIP3   OH272255   2.348   3.378  12.645 -0.2298  0.1548  0.1914
16947TIP3    H172256   2.373   3.468  12.666  0.1398 -0.0538  0.6704
16947TIP3    H272257   2.430   3.337  12.617 -0.2570 -0.2133  0.6332
16948TIP3   OH272258   4.487   3.134  15.150 -0.1183 -0.3745  0.1143
16948TIP3    H172259   4.407   3.086  15.169  0.1824 -0.3583  1.5351
16948TIP3    H272260   4.457   3.224  15.136 -0.5752 -0.7626 -1.6389
16949TIP3   OH272261   6.363   2.650  15.162 -0.3702 -0.6386  0.7533
16949TIP3    H172262   6.456   2.637  15.183 -0.2251 -1.1098 -0.1393
16949TIP3    H272263   6.355   2.621  15.071 -1.3366 -0.3176  0.7314
16950TIP3   OH272264   6.547   2.661   5.382  0.6658  0.3818 -0.4876
16950TIP3    H172265   6.485   2.615   5.327  0.8692 -0.4135 -0.0747
16950TIP3    H272266   6.524   2.635   5.472  1.1213  0.6502 -0.2863
16951TIP3   OH272267   4.088   0.578   0.046  0.1292 -0.6520  0.3625
16951TIP3    H172268   4.102   0.671   0.031  0.2463 -0.8308 -0.7218
16951TIP3    H272269   4.039   0.574   0.128 -0.4343  0.3973  0.0913
16952TIP3   OH272270   0.616   2.736  13.554  0.4880  0.4556  0.3968
16952TIP3    H172271   0.591   2.798  13.486 -2.2023  1.1320  1.8549
16952TIP3    H272272   0.673   2.787  13.613  1.9512  0.1674 -0.7127
16953TIP3   OH272273   1.930   0.680  11.166 -0.2180 -0.3670  0.3670
16953TIP3    H172274   1.865   0.680  11.096  1.1389  1.1171 -0.9725
16953TIP3    H272275   2.009   0.646  11.125 -0.2237 -2.8218  2.1507
16954TIP3   OH272276   1.019   3.977  14.661 -0.0551 -0.4270 -0.3007
16954TIP3    H172277   1.064   4.040  14.604 -0.0754 -1.9782 -2.1282
16954TIP3    H272278   0.964   4.031  14.717  1.3884  1.2976 -0.4478
16955TIP3   OH272279   1.483   4.754   2.331  0.3472 -0.0114 -0.2979
16955TIP3    H172280   1.467   4.843   2.298  0.1618 -0.4885 -1.5387
16955TIP3    H272281   1.427   4.698   2.277 -1.7236 -0.6459  2.3043
16956TIP3   OH272282   4.481   2.793  11.545 -0.0804 -0.5173  0.1858
16956TIP3    H172283   4.540   2.854  11.499 -0.3034 -0.5282 -0.1152
16956TIP3    H272284   4.523   2.780  11.630 -1.1432  1.8150  1.1731
16957TIP3   OH272285   4.116   1.013   0.499  0.2976  0.0010  0.5214
16957TIP3    H172286   4.187   0.959   0.534 -0.0053 -1.0973 -0.4795
16957TIP3    H272287   4.039   0.957   0.502  0.2105 -0.1092 -1.6224
16958TIP3   OH272288   4.435   2.871   5.042  0.2954  0.5142 -0.1691
16958TIP3    H172289   4.400   2.908   5.123  2.5346 -0.1765  1.1774
16958TIP3    H272290   4.483   2.944   5.002 -1.0976  0.9553 -1.1080
16959TIP3   OH272291   5.991   0.453  16.009 -0.3602  0.0828  0.2474
16959TIP3    H172292   5.952   0.505  15.939 -0.8106  0.5543  0.8473
16959TIP3    H272293   5.987   0.363  15.976  2.1226  0.5215 -1.6316
16960TIP3   OH272294   5.724   3.200   3.857 -0.0891 -0.6159 -0.3714
16960TIP3    H172295   5.722   3.123   3.914  0.9636  0.2056  0.8139
16960TIP3    H272296   5.762   3.269   3.911 -0.4337  0.5830 -1.6162
16961TIP3   OH272297   4.808   0.610  12.972 -0.3133  0.0982  0.1398
16961TIP3    H172298   4.765   0.550  12.910  2.5051 -1.2658 -0.6435
16961TIP3    H272299   4.822   0.557  13.051 -1.9071  1.1789  1.2037
16962TIP3   OH272300   5.014   2.679  16.612  0.1371 -0.0186 -0.1562
16962TIP3    H172301   5.070   2.613  16.571  1.5147 -0.1908  1.8740
16962TIP3    H272302   5.043   2.762  16.574 -1.6225 -0.4566 -2.7461
16963TIP3   OH272303   4.173   6.107  12.050  0.1109 -0.3390 -0.6418
16963TIP3    H172304   4.240   6.070  11.992 -0.2071  0.4936 -1.5732
16963TIP3    H272305   4.212   6.105  12.137  0.6272 -1.5562 -0.8861
16964TIP3   OH272306   2.580   5.610   4.362  0.0990  0.1715  0.5255
16964TIP3    H172307   2.615   5.530   4.323 -2.0435 -0.4484 -0.2766
16964TIP3    H272308   2.574   5.672   4.289  1.8426  1.1538  1.1593
16965TIP3   OH272309   1.121   2.292   3.421  0.6131  0.1753 -0.1672
16965TIP3    H172310   1.052   2.238   3.458  1.5138 -0.5521  0.4881
16965TIP3    H272311   1.077   2.345   3.354 -0.3267 -1.1630 -0.6350
16966TIP3   OH272312   0.640   1.497   2.810 -0.2923  0.1941 -0.5978
16966TIP3    H172313   0.701   1.424   2.818 -1.1909 -0.6672 -1.4186
16966TIP3    H272314   0.607   1.492   2.721 -1.4477  0.7386 -0.2230
16967TIP3   OH272315   0.122   4.329  13.855  0.1536 -0.0161  0.2300
16967TIP3    H172316   0.102   4.395  13.921  0.4568 -1.6000  1.9745
16967TIP3    H272317   0.039   4.285  13.840  0.4555 -0.8459  0.9329
16968TIP3   OH272318   5.554   2.873   1.548  0.3373 -0.1781  0.2252
16968TIP3    H172319   5.533   2.837   1.634 -0.5373 -2.2780 -0.8020
16968TIP3    H272320   5.470   2.899   1.511  0.7838  1.4090  0.2541
16969TIP3   OH272321   3.671   0.997  16.168 -0.2948 -0.3674 -0.3273
16969TIP3    H172322   3.745   1.002  16.107  0.4648 -0.2595  0.5815
16969TIP3    H272323   3.653   0.904  16.176  1.1769 -0.5710  1.1002
16970TIP3   OH272324   5.594   0.615   0.086 -0.3206  0.2708  0.0283
16970TIP3    H172325   5.585   0.606   0.181  0.7315  1.4539  0.2670
16970TIP3    H272326   5.526   0.677   0.061 -1.2638 -0.8117 -0.1656
16971TIP3   OH272327   0.695   5.230  15.014  0.1100 -0.0223  0.0282
16971TIP3    H172328   0.762   5.204  14.950  0.0315  0.4331 -0.2428
16971TIP3    H272329   0.614   5.189  14.982  0.5470 -1.9710  1.2542
16972TIP3   OH272330   5.349   4.668  12.052  0.0472  0.5674  0.6010
16972TIP3    H172331   5.444   4.683  12.058 -0.0912  2.4449 -0.9133
16972TIP3    H272332   5.311   4.738  12.105 -0.5168  1.2008 -0.6170
16973TIP3   OH272333   0.344   0.016   2.439  0.0840  0.0407 -0.5299
16973TIP3    H172334   0.394  -0.048   2.388  0.7418 -1.4275  1.8254
16973TIP3    H272335   0.377   0.101   2.410  0.7673 -0.7408 -2.1689
16974TIP3   OH272336   0.677   6.610  10.631  0.1824  0.3570 -0.0596
16974TIP3    H172337   0.638   6.589  10.716  0.5710  1.0020  0.2866
16974TIP3    H272338   0.667   6.530  10.580 -1.4169  0.4275  0.0773
16975TIP3   OH272339   1.393   5.257   3.494  0.2224  0.5945 -0.2359
16975TIP3    H172340   1.482   5.223   3.499  0.0818 -0.4981 -3.3604
16975TIP3    H272341   1.349   5.219   3.570  1.7630 -0.9190 -0.0409
16976TIP3   OH272342   5.397   2.385   0.368  0.0361  0.3048 -0.1084
16976TIP3    H172343   5.453   2.316   0.403 -2.4795 -1.0664  1.5049
16976TIP3    H272344   5.429   2.399   0.279  3.1965  0.0026  0.8360
16977TIP3   OH272345   5.113   0.155  14.848  0.1045 -0.0100  0.0830
16977TIP3    H172346   5.018   0.160  14.857  0.0005  0.5037 -1.0371
16977TIP3    H272347   5.129   0.176  14.755  1.2965 -0.2131  0.2274
16978TIP3   OH272348   2.352   2.863  14.218 -0.4955 -0.0439  0.4674
16978TIP3    H172349   2.338   2.815  14.299 -0.2365 -1.4940 -0.3287
16978TIP3    H272350   2.285   2.831  14.158  1.1282 -1.2202 -0.8349
16979TIP3   OH272351   0.873   6.544   1.166  0.4484  0.5493  0.1012
16979TIP3    H172352   0.893   6.634   1.142 -2.7031  1.5216  0.6356
16979TIP3    H272353   0.873   6.496   1.084  0.0335  1.5298 -0.4839
16980TIP3   OH272354   5.180   2.052  14.434  0.2458 -0.6329  0.3910
16980TIP3    H172355   5.247   2.003  14.481  0.5619 -0.6142 -0.0338
16980TIP3    H272356   5.126   2.092  14.503  1.2216  0.1117  0.7471
16981TIP3   OH272357   3.040   1.637   1.298  0.2025  0.1047 -0.7646
16981TIP3    H172358   3.109   1.643   1.364 -1.3452 -0.3272  0.9912
16981TIP3    H272359   3.076   1.681   1.221  1.4602  2.2429  0.9180
16982TIP3   OH272360   5.829   6.759   0.205 -0.4375  0.0429 -0.1809
16982TIP3    H172361   5.765   6.694   0.235  0.8633 -0.4541  1.7372
16982TIP3    H272362   5.862   6.798   0.286  4.0397 -2.0333 -0.7373
16983TIP3   OH272363   1.368   6.079  14.436  0.6389 -0.0177 -0.1118
16983TIP3    H172364   1.371   6.170  14.465  0.9056 -0.1382  0.2329
16983TIP3    H272365   1.285   6.046  14.472  0.2255  0.2666 -0.7743
16984TIP3   OH272366   4.480   1.834   3.359  0.0548  0.4545  0.7676
16984TIP3    H172367   4.403   1.799   3.404 -0.9920  1.7906  0.0703
16984TIP3    H272368   4.478   1.928   3.378  1.3181  0.5610  0.4370
16985TIP3   OH272369   3.850   5.038  15.097 -0.3350 -0.0062 -0.0149
16985TIP3    H172370   3.759   5.068  15.099  0.2672  2.0252 -0.5148
16985TIP3    H272371   3.901   5.118  15.083  1.3352 -1.4523 -3.0896
16986TIP3   OH272372   2.888   0.819  14.124 -0.0709  0.4811 -0.4650
16986TIP3    H172373   2.867   0.907  14.156  0.9807  0.8822 -0.8390
16986TIP3    H272374   2.868   0.822  14.031  1.4155  0.8242 -0.7964
16987TIP3   OH272375   0.204   1.229   0.844 -0.4810  0.2938  0.2659
16987TIP3    H172376   0.170   1.295   0.905  0.4158  0.0562  1.0506
16987TIP3    H272377   0.148   1.153   0.858 -1.7523  0.9774 -0.9025
16988TIP3   OH272378   5.151   1.408  16.277  0.3768 -0.0896 -0.1384
16988TIP3    H172379   5.130   1.478  16.339  0.4762  1.2130 -1.5106
16988TIP3    H272380   5.066   1.375  16.248  0.2964 -1.7598  1.7270
16989TIP3   OH272381   2.042   3.362  11.543  0.2272 -0.6101 -0.2398
16989TIP3    H172382   2.044   3.442  11.490  0.1007  0.2083  0.9676
16989TIP3    H272383   2.066   3.293  11.481  3.3866  0.7047 -0.6655
16990TIP3   OH272384   4.227   3.573   2.908  0.3042 -0.2287 -0.0819
16990TIP3    H172385   4.172   3.551   2.833  1.7520  1.2343 -1.6440
16990TIP3    H272386   4.168   3.620   2.968 -0.1209  1.7885 -1.9605
16991TIP3   OH272387   2.492   6.744  12.271  0.9702 -0.2508  0.5672
16991TIP3    H172388   2.517   6.822  12.322  0.6747 -0.4971  1.0991
16991TIP3    H272389   2.397   6.749  12.265  0.9559 -0.5416  0.5592
16992TIP3   OH272390   6.715   6.675  14.097  0.3196  0.0150  0.7537
16992TIP3    H172391   6.785   6.675  14.032  0.0820 -0.9741  0.4898
16992TIP3    H272392   6.642   6.631  14.053 -1.4527  3.3662 -0.0043
16993TIP3   OH272393   6.658   5.523   6.084 -0.5229 -0.0276 -0.0712
16993TIP3    H172394   6.599   5.545   6.156  0.4528 -0.4237  0.8943
16993TIP3    H272395   6.719   5.459   6.122  1.6515  1.6805 -0.4441
16994TIP3   OH272396   6.407   1.266  12.743 -0.1448 -0.3283 -0.6187
16994TIP3    H172397   6.436   1.357  12.736  1.1719 -0.5416  1.1803
16994TIP3    H272398   6.460   1.219  12.678 -1.1639  0.2135 -1.8832
16995TIP3   OH272399   0.991   1.501  14.320 -0.4421  0.2961 -0.1264
16995TIP3    H172400   0.928   1.519  14.250  1.0110 -0.4315 -1.6885
16995TIP3    H272401   1.022   1.413  14.303 -0.6985 -0.2664  2.0097
16996TIP3   OH272402   2.338   4.072   0.834 -0.3107 -0.4814 -0.0366
16996TIP3    H172403   2.398   4.140   0.802 -0.5845 -0.2366 -0.0384
16996TIP3    H272404   2.251   4.101   0.803 -0.4776 -0.6353  0.2873
16997TIP3   OH272405   1.575   6.415  11.491 -0.0673 -0.6141 -0.7135
16997TIP3    H172406   1.592   6.406  11.397 -0.1650  0.2952 -0.8345
16997TIP3    H272407   1.594   6.507  11.510 -0.2632 -0.7321  0.1177
16998TIP3   OH272408   2.473   1.991   6.148  0.2709 -0.8144 -0.1794
16998TIP3    H172409   2.411   2.018   6.080  1.7180  1.6064 -0.6454
16998TIP3    H272410   2.422   1.993   6.229 -0.2425  1.4262 -0.5108
16999TIP3   OH272411   3.290   0.296  15.918  0.4782 -0.3842 -0.7853
16999TIP3    H172412   3.247   0.364  15.866 -1.5156 -0.3283  0.8125
16999TIP3    H272413   3.231   0.221  15.913  2.5196 -2.0258 -2.3029
17000TIP3   OH272414   1.115   1.180  12.102 -0.1238 -0.2590 -0.9986
17000TIP3    H172415   1.032   1.162  12.057  0.6941 -0.8168 -2.3447
17000TIP3    H272416   1.160   1.242  12.046 -0.2499  1.2892  0.5197
17001TIP3   OH272417   2.017   2.767   1.057  0.5221  0.6186 -0.0732
17001TIP3    H172418   1.991   2.843   1.109  1.0663  0.5251  0.3520
17001TIP3    H272419   1.937   2.738   1.014  0.2051  1.1205  0.1716
17002TIP3   OH272420   4.257   6.459   2.731  0.0323  0.0974  0.4668
17002TIP3    H172421   4.318   6.388   2.714  0.7632  0.8625 -0.2150
17002TIP3    H272422   4.173   6.416   2.743  0.4261 -0.8724 -0.1095
17003TIP3   OH272423   3.805   2.834   2.361 -0.1317 -0.4741  0.3756
17003TIP3    H172424   3.879   2.822   2.421 -0.0436 -2.4292 -0.0635
17003TIP3    H272425   3.802   2.929   2.347  0.2651  0.0042  2.9086
17004TIP3   OH272426   5.037   2.035   1.415 -0.6775 -0.3126 -0.1259
17004TIP3    H172427   5.073   1.996   1.495 -0.6466  0.6569  0.3501
17004TIP3    H272428   5.087   1.994   1.344  2.7768  2.2226  0.5530
17005TIP3   OH272429   5.422   0.300  14.790  0.5829  0.5353  0.7407
17005TIP3    H172430   5.416   0.395  14.798  3.8716  0.9613 -0.5445
17005TIP3    H272431   5.361   0.277  14.720 -1.7105  1.3235  2.3361
17006TIP3   OH272432   3.069   1.230  11.936  0.6659  0.2388  0.1602
17006TIP3    H172433   3.066   1.138  11.911 -0.9942  0.5440 -0.8849
17006TIP3    H272434   3.142   1.267  11.886  0.6752 -0.2876 -0.2192
17007TIP3   OH272435   6.030   2.544  13.851  0.0168  0.6167  0.8724
17007TIP3    H172436   5.936   2.565  13.844 -0.4964 -1.8683 -2.1176
17007TIP3    H272437   6.074   2.624  13.824 -1.4634  0.7562 -1.4526
17008TIP3   OH272438   2.951   1.545   3.266  0.0819  0.2149  0.0530
17008TIP3    H172439   3.008   1.620   3.279  0.9793 -0.4733  0.1459
17008TIP3    H272440   2.923   1.520   3.355 -3.2122  2.6381 -0.0968
17009TIP3   OH272441   2.996   2.153  16.943 -1.1873  0.6765 -0.2016
17009TIP3    H172442   3.003   2.182  17.034  0.4422  0.7594 -0.3274
17009TIP3    H272443   2.954   2.068  16.949 -0.0216  0.1380  0.7548
17010TIP3   OH272444   4.084   3.294  11.936  0.3472 -0.5476  0.3735
17010TIP3    H172445   4.154   3.353  11.909  0.8259 -1.1150  0.3559
17010TIP3    H272446   4.129   3.221  11.979 -0.1203 -1.5840 -0.8294
17011TIP3   OH272447   2.154   4.205  12.793 -0.5079 -0.0601 -0.1375
17011TIP3    H172448   2.064   4.179  12.771 -1.8230  3.3914  0.4617
17011TIP3    H272449   2.185   4.252  12.715  0.2157  0.0593  0.2138
17012TIP3   OH272450   6.159   0.463  16.229  0.7218 -0.1514 -0.1357
17012TIP3    H172451   6.096   0.469  16.158 -1.3477  1.1027  1.6625
17012TIP3    H272452   6.181   0.554  16.249  3.6680 -0.5619 -1.0855
17013TIP3   OH272453   5.559   3.139   1.398 -0.8145 -0.6924  0.6567
17013TIP3    H172454   5.552   3.204   1.468  0.9621 -0.7819  0.9652
17013TIP3    H272455   5.468   3.121   1.372 -1.3834  1.6514  0.7930
17014TIP3   OH272456   2.677   5.995   4.408 -0.2011  0.0974  0.4750
17014TIP3    H172457   2.611   6.024   4.470 -1.2813  0.2494 -0.7208
17014TIP3    H272458   2.758   6.038   4.438 -0.4194 -0.6863  2.3950
17015TIP3   OH272459   3.999   4.798   3.390 -0.4969 -0.0400 -0.2681
17015TIP3    H172460   3.968   4.708   3.378  0.5769 -0.3960 -0.4623
17015TIP3    H272461   3.986   4.815   3.484 -0.1493 -0.6055 -0.1167
17016TIP3   OH272462   0.664   1.908  13.298 -0.3011 -0.6722  0.0681
17016TIP3    H172463   0.578   1.926  13.262  0.3855  2.0915 -0.4733
17016TIP3    H272464   0.724   1.918  13.224  0.5397 -2.3423  0.4733
17017TIP3   OH272465   3.940   5.384  15.722  0.1389  0.3077 -0.0354
17017TIP3    H172466   3.917   5.373  15.630  0.4776  0.7372 -0.1724
17017TIP3    H272467   3.857   5.370  15.769 -0.0267  0.0515 -0.3993
17018TIP3   OH272468   5.319   1.347  12.055 -0.2256 -0.2459 -0.0287
17018TIP3    H172469   5.354   1.436  12.056 -0.9115  0.0224  0.0991
17018TIP3    H272470   5.225   1.357  12.066 -0.0969 -1.1117  2.5812
17019TIP3   OH272471   4.684   6.201   0.670  0.4299 -0.1430  0.3609
17019TIP3    H172472   4.623   6.127   0.679  0.0417  0.1244 -0.0771
17019TIP3    H272473   4.713   6.218   0.760 -2.2395  1.4809  1.0227
17020TIP3   OH272474   6.529   0.836  14.536  0.3055  0.7564  0.0640
17020TIP3    H172475   6.574   0.761  14.576 -2.1260  0.1204  1.8171
17020TIP3    H272476   6.541   0.823  14.442  1.7568 -0.6365  0.3961
17021TIP3   OH272477   6.273   3.437   2.082 -0.3655  0.9720  0.1726
17021TIP3    H172478   6.268   3.497   2.008  0.8424  0.7982 -0.0666
17021TIP3    H272479   6.299   3.353   2.045  0.5122  0.9473  0.8090
17022TIP3   OH272480   0.966   4.338   2.129  0.4802  0.0188  0.0646
17022TIP3    H172481   0.996   4.274   2.194 -0.0401 -1.0945 -0.7593
17022TIP3    H272482   0.877   4.309   2.107  0.4178  0.7556 -0.6703
17023TIP3   OH272483   5.039   4.523  13.864  0.3144  0.4710 -0.5799
17023TIP3    H172484   5.034   4.478  13.779  0.4626  0.9096 -0.8235
17023TIP3    H272485   4.957   4.500  13.908  0.1219  0.4433 -0.9472
17024TIP3   OH272486   2.706   1.167  12.504 -0.1465 -0.2463 -0.0299
17024TIP3    H172487   2.616   1.158  12.536 -0.2705 -0.5570 -0.4589
17024TIP3    H272488   2.697   1.174  12.408  0.4529 -3.1523 -0.3918
17025TIP3   OH272489   3.625   5.493  16.897 -0.0588 -0.0530  0.0611
17025TIP3    H172490   3.611   5.405  16.861  1.4583 -0.3540  0.1270
17025TIP3    H272491   3.643   5.547  16.820  1.5612 -0.3614  0.1807
17026TIP3   OH272492   4.166   3.779  14.941 -0.1685  0.5034  0.1489
17026TIP3    H172493   4.180   3.775  15.035  2.6734  0.9257 -0.1901
17026TIP3    H272494   4.253   3.790  14.903 -0.9947 -1.3796 -2.6486
17027TIP3   OH272495   4.001   2.239  12.370 -0.3941  0.5778  0.7913
17027TIP3    H172496   3.910   2.208  12.365  0.4926 -2.0374 -1.3464
17027TIP3    H272497   4.003   2.295  12.447 -3.4180 -0.6676  1.9174
17028TIP3   OH272498   0.892   3.863  10.604  0.2018  0.4566  0.3902
17028TIP3    H172499   0.959   3.817  10.552 -0.6941  1.9513 -2.3190
17028TIP3    H272500   0.835   3.794  10.637  2.0095 -0.7132  1.2038
17029TIP3   OH272501   1.432   3.565   1.129 -0.1888 -0.0856  0.0615
17029TIP3    H172502   1.421   3.657   1.105 -0.4496  0.3491  1.7324
17029TIP3    H272503   1.519   3.543   1.097 -0.0718  0.7823 -0.2536
17030TIP3   OH272504   1.213   2.695   0.524  0.2109  0.1526 -0.3120
17030TIP3    H172505   1.119   2.679   0.517  0.1130  0.9073 -0.7491
17030TIP3    H272506   1.225   2.726   0.614 -0.4051  2.8089 -1.0459
17031TIP3   OH272507   2.253   0.920   5.044 -0.3575  0.5781  0.6181
17031TIP3    H172508   2.349   0.924   5.052  0.0663 -0.6085 -2.4831
17031TIP3    H272509   2.228   0.849   5.103  0.9374 -0.3006  0.1624
17032TIP3   OH272510   6.502   5.921  11.273 -0.3151  0.0800 -0.0305
17032TIP3    H172511   6.465   6.005  11.248  1.0649  0.5489 -0.5458
17032TIP3    H272512   6.559   5.896  11.200  1.0395 -0.2148  1.0803
17033TIP3   OH272513   0.536   5.019   2.107  0.7488  0.4533 -0.0204
17033TIP3    H172514   0.546   5.003   2.013  0.2979  0.2138 -0.0284
17033TIP3    H272515   0.618   4.988   2.145 -0.1596 -2.1546 -0.0076
17034TIP3   OH272516   3.955   6.428  17.166 -0.4567  0.6645  0.2989
17034TIP3    H172517   3.908   6.492  17.113  1.4617  1.3084 -0.7172
17034TIP3    H272518   3.906   6.347  17.156 -2.3462  1.7007  0.7736
17035TIP3   OH272519   2.970   0.577  13.822  0.2187 -0.0005 -0.1012
17035TIP3    H172520   2.907   0.561  13.752 -0.1800 -0.5112  0.3659
17035TIP3    H272521   3.005   0.490  13.842  0.4765  0.1714  0.1969
17036TIP3   OH272522   4.078   3.304   0.386  0.1185 -0.4374  0.1588
17036TIP3    H172523   4.112   3.379   0.435 -1.9494  1.2609 -0.8605
17036TIP3    H272524   4.098   3.228   0.442  1.6635  0.9030  1.5455
17037TIP3   OH272525   5.600   6.012  12.171  0.8398 -0.6029  0.4189
17037TIP3    H172526   5.510   5.983  12.159  1.1502 -1.5161  0.1935
17037TIP3    H272527   5.641   5.998  12.086  0.8451  1.1849  0.0811
17038TIP3   OH272528   2.985   3.427   3.114  0.5038 -0.0015  0.3440
17038TIP3    H172529   2.930   3.506   3.120 -0.2922 -0.5450  0.2755
17038TIP3    H272530   2.985   3.391   3.203  0.1912 -0.3793  0.1893
17039TIP3   OH272531   3.180   4.364  13.564 -1.0444  0.1745  0.6515
17039TIP3    H172532   3.183   4.371  13.659  3.5177  0.2019  0.7435
17039TIP3    H272533   3.182   4.270  13.546  0.1210  0.1658  0.7104
17040TIP3   OH272534   3.872   1.570  13.260 -0.1520  0.0333  0.7583
17040TIP3    H172535   3.850   1.492  13.311 -0.7202 -0.0342  0.4143
17040TIP3    H272536   3.869   1.641  13.323 -0.8531 -0.0499  0.8306
17041TIP3   OH272537   1.664   6.164  13.948 -0.1434 -0.0635 -0.4608
17041TIP3    H172538   1.675   6.098  14.016  1.9165  0.9650  0.3056
17041TIP3    H272539   1.677   6.117  13.866 -2.5383 -1.3001 -0.2507
17042TIP3   OH272540   4.574   0.305  11.074 -0.1140 -0.3770  0.4684
17042TIP3    H172541   4.649   0.298  11.014 -1.2952 -2.3770 -0.8979
17042TIP3    H272542   4.500   0.324  11.017 -0.6284  2.1528  1.8582
17043TIP3   OH272543   6.720   1.379  16.530  0.0775 -0.2652  0.1543
17043TIP3    H172544   6.786   1.339  16.474 -0.1191 -3.2998  1.9148
17043TIP3    H272545   6.742   1.473  16.529  2.1581 -0.6707 -2.1304
17044TIP3   OH272546   3.236   0.236   0.835  0.0816  0.2486 -0.5040
17044TIP3    H172547   3.144   0.247   0.857  0.2075  0.3212 -0.0168
17044TIP3    H272548   3.245   0.143   0.814  0.0969  0.0428  0.3821
17045TIP3   OH272549   5.211   0.115   6.154  0.6146 -0.0232 -0.4691
17045TIP3    H172550   5.281   0.082   6.097  1.9024 -0.7840  1.4441
17045TIP3    H272551   5.148   0.043   6.159 -0.2350  0.5618 -1.9765
17046TIP3   OH272552   2.604   1.655  16.925 -0.0206 -0.5937 -0.4685
17046TIP3    H172553   2.588   1.733  16.978 -1.0822 -1.2179  0.1904
17046TIP3    H272554   2.597   1.685  16.835  0.3445  0.2176 -0.2281
17047TIP3   OH272555   1.613   4.030   5.110  0.9450 -0.2842 -0.5872
17047TIP3    H172556   1.597   3.969   5.182  1.6835  0.0044 -0.1639
17047TIP3    H272557   1.709   4.031   5.100  0.9282  0.6232 -0.7452
17048TIP3   OH272558   2.113   5.790  13.540 -0.0353 -0.0510 -0.3018
17048TIP3    H172559   2.196   5.837  13.546  0.3979 -0.8679  0.2646
17048TIP3    H272560   2.124   5.731  13.466 -2.1979  3.7724 -4.1519
17049TIP3   OH272561   6.421   2.007   2.196 -0.0019 -0.2933  0.1844
17049TIP3    H172562   6.379   2.079   2.244 -1.8756 -0.1638 -1.5080
17049TIP3    H272563   6.396   2.022   2.104  4.1804  0.0277 -1.1132
17050TIP3   OH272564   1.026   3.393   1.272 -0.0758 -0.1048 -0.1317
17050TIP3    H172565   1.049   3.350   1.354 -1.6737  0.3480  0.5963
17050TIP3    H272566   0.935   3.368   1.256 -0.3144  1.1546 -0.8793
17051TIP3   OH272567   4.554   6.388  16.365 -0.2901 -0.5366  0.0386
17051TIP3    H172568   4.583   6.315  16.310 -2.0598 -1.6229  0.4741
17051TIP3    H272569   4.572   6.466  16.312 -1.0788 -1.4910 -1.7147
17052TIP3   OH272570   2.282   3.243   5.464 -0.6694  0.1174 -0.1081
17052TIP3    H172571   2.229   3.217   5.539  2.4545 -5.7627  0.6515
17052TIP3    H272572   2.241   3.200   5.389 -0.6332  1.2096 -0.7703
17053TIP3   OH272573   5.037   6.129  11.545  0.3574  0.3685 -0.0891
17053TIP3    H172574   5.115   6.120  11.490 -0.2716  0.5567 -1.0365
17053TIP3    H272575   5.006   6.218  11.528  1.0207  1.0208  1.7804
17054TIP3   OH272576   5.518   4.481  15.094  0.2401  0.4290  0.1969
17054TIP3    H172577   5.433   4.519  15.117  0.4651  0.3610  1.1814
17054TIP3    H272578   5.542   4.427  15.169  0.9566  0.1051 -0.2506
17055TIP3   OH272579   3.096   6.229  14.787 -0.0082 -0.2201 -0.0386
17055TIP3    H172580   3.181   6.270  14.804  1.0340 -1.9624 -0.7545
17055TIP3    H272581   3.032   6.290  14.824  1.5718  0.8400  1.0907
17056TIP3   OH272582   5.925   2.998   5.162  0.0639  0.5238 -0.3838
17056TIP3    H172583   5.989   2.928   5.177 -0.2203  0.3095 -0.1722
17056TIP3    H272584   5.973   3.078   5.184  0.0722  0.3142  0.4153
17057TIP3   OH272585   1.340   3.253  16.111  0.2045  0.1379 -0.6941
17057TIP3    H172586   1.427   3.238  16.147  0.2632 -1.1824 -1.3126
17057TIP3    H272587   1.357   3.282  16.021  0.0303  2.2048 -0.1190
17058TIP3   OH272588   1.831   5.258  13.266 -0.9714  0.0712 -0.0712
17058TIP3    H172589   1.850   5.337  13.318 -1.1556  1.0596 -1.4573
17058TIP3    H272590   1.854   5.282  13.177 -2.0814 -1.0889 -0.6954
17059TIP3   OH272591   4.609   0.452   4.070  0.4149 -0.3934 -0.0730
17059TIP3    H172592   4.652   0.390   4.129  0.0933  1.4679  2.2490
17059TIP3    H272593   4.516   0.437   4.083  0.3212 -0.8061 -1.1044
17060TIP3   OH272594   0.596   0.177   1.001 -0.5794  0.2211  0.8544
17060TIP3    H172595   0.599   0.273   0.999 -1.8145  0.2815  1.2601
17060TIP3    H272596   0.565   0.152   0.914  0.8300  0.1152  0.3563
17061TIP3   OH272597   1.119   1.160   4.520 -0.9911 -0.4182 -0.4102
17061TIP3    H172598   1.060   1.177   4.447 -2.3429 -1.7379  0.3198
17061TIP3    H272599   1.170   1.241   4.529 -1.6302  0.2021 -2.0187
17062TIP3   OH272600   4.872   4.654   5.323  0.5714  0.0880 -0.1116
17062TIP3    H172601   4.853   4.569   5.363 -0.4476  0.3004 -0.1132
17062TIP3    H272602   4.874   4.715   5.397 -2.3476  0.6594 -0.3995
17063TIP3   OH272603   2.164   1.470  10.352 -0.3292 -0.0847  0.5535
17063TIP3    H172604   2.238   1.444  10.407  0.6555 -2.5248 -1.7382
17063TIP3    H272605   2.093   1.412  10.377 -0.6286  0.4081  0.8608
17064TIP3   OH272606   2.525   1.054  14.188  0.8752  0.1082  0.4045
17064TIP3    H172607   2.526   1.049  14.092 -0.9367  1.5207  0.2610
17064TIP3    H272608   2.472   0.980  14.216  0.7376  0.1548  0.2657
17065TIP3   OH272609   0.504   1.488  12.172  0.4720  0.9055 -0.2681
17065TIP3    H172610   0.420   1.443  12.178 -0.7577  3.1872  1.1961
17065TIP3    H272611   0.505   1.527  12.085  0.3956  0.1879 -0.5900
17066TIP3   OH272612   0.215   5.289  10.744 -0.0418  0.1587  0.1873
17066TIP3    H172613   0.130   5.328  10.764 -0.1629  0.1472 -0.2854
17066TIP3    H272614   0.225   5.300  10.649  1.3560  1.9279  0.4896
17067TIP3   OH272615   0.896   1.010   2.558 -0.0549  0.3778 -0.2456
17067TIP3    H172616   0.803   1.017   2.581 -0.8145 -1.0638 -2.4862
17067TIP3    H272617   0.938   0.977   2.637 -1.8116 -0.8510  0.2450
17068TIP3   OH272618   3.822   3.535   1.485 -0.0869 -0.1701  0.2821
17068TIP3    H172619   3.792   3.605   1.543 -0.0219  0.5566 -0.5498
17068TIP3    H272620   3.807   3.454   1.535 -0.0350  0.4398  1.2994
17069TIP3   OH272621   0.915   2.182  17.055  0.4228 -0.8580  0.0732
17069TIP3    H172622   0.872   2.193  16.970  0.1796 -1.9172  0.0472
17069TIP3    H272623   0.866   2.112  17.098  0.0339  0.1871  1.4401
17070TIP3   OH272624   5.439   3.832   5.045 -0.2539  1.0356 -0.0870
17070TIP3    H172625   5.517   3.803   4.998 -0.0131  1.8506 -0.1915
17070TIP3    H272626   5.439   3.927   5.036 -0.4595  1.1646  1.1633
17071TIP3   OH272627   0.023   6.762   1.962  0.0588 -0.5954 -0.4636
17071TIP3    H172628   0.115   6.790   1.964  0.2992 -1.3034 -1.1377
17071TIP3    H272629   0.018   6.704   1.886 -0.6129 -1.7077  0.4051
17072TIP3   OH272630   1.131   5.971  16.915 -0.0208 -0.6196 -0.3051
17072TIP3    H172631   1.193   5.996  16.847 -0.1466 -0.0656 -0.2171
17072TIP3    H272632   1.065   6.040  16.914  1.8685  1.4649  2.8581
17073TIP3   OH272633   4.362   4.944  14.221 -0.1318 -0.3136  0.0267
17073TIP3    H172634   4.345   5.034  14.193  1.7631  0.1464  0.1990
17073TIP3    H272635   4.310   4.890  14.162 -0.6601  0.8697 -0.6179
17074TIP3   OH272636   0.714   3.798  16.802  0.2100 -0.1030 -0.5974
17074TIP3    H172637   0.667   3.878  16.824 -0.7831 -0.5058 -1.1759
17074TIP3    H272638   0.685   3.777  16.713  2.5449  0.3650 -1.5228
17075TIP3   OH272639   0.874   6.141  16.936 -0.0295  0.4911  0.2819
17075TIP3    H172640   0.895   6.232  16.919  0.0528  0.3402 -0.4454
17075TIP3    H272641   0.820   6.114  16.861  0.8646 -0.3609 -0.0780
17076TIP3   OH272642   0.978   2.080  13.528  0.2825  0.5492 -0.3275
17076TIP3    H172643   0.985   2.152  13.465  0.7932  1.0754  0.3197
17076TIP3    H272644   0.957   2.123  13.611  1.5291  0.0453  0.2632
17077TIP3   OH272645   2.669   2.094   4.579 -0.1330 -0.1121 -0.3185
17077TIP3    H172646   2.636   2.061   4.663 -0.2851 -0.6218 -0.5779
17077TIP3    H272647   2.605   2.064   4.515  0.9510 -1.3058 -0.8581
17078TIP3   OH272648   0.438   1.262  15.792  0.2678  0.2178 -0.0413
17078TIP3    H172649   0.483   1.271  15.876 -0.6698  1.2395  0.3706
17078TIP3    H272650   0.346   1.252  15.815 -0.0860  1.1765 -0.9675
17079TIP3   OH272651   5.147   0.362   1.762  0.3455  0.1775 -0.4192
17079TIP3    H172652   5.054   0.342   1.753  0.4901 -0.1932 -1.1174
17079TIP3    H272653   5.181   0.292   1.819  0.3552 -0.1509 -0.8262
17080TIP3   OH272654   2.395   2.720  17.058  0.5524 -0.7219  0.1579
17080TIP3    H172655   2.327   2.674  17.008 -0.8558 -0.7415  1.9993
17080TIP3    H272656   2.395   2.676  17.143  1.9451  0.1731  0.6443
17081TIP3   OH272657   2.384   6.063   4.337  0.0471 -0.1522 -0.0995
17081TIP3    H172658   2.421   6.148   4.362 -0.5036  0.6131 -1.7156
17081TIP3    H272659   2.330   6.037   4.412  0.9837  0.4470  0.8097
17082TIP3   OH272660   4.907   3.869  15.786  0.3546  0.0958  0.1270
17082TIP3    H172661   4.948   3.927  15.851 -0.5689 -0.5670  1.3504
17082TIP3    H272662   4.908   3.783  15.828  0.8333 -0.6060 -1.2726
17083TIP3   OH272663   6.097   3.916  16.478  0.2039  0.0056  0.3692
17083TIP3    H172664   6.014   3.899  16.522 -0.4126 -0.4404 -0.9206
17083TIP3    H272665   6.097   4.010  16.462 -1.0334 -0.2603 -1.4525
17084TIP3   OH272666   2.271   1.552  16.859 -0.3394 -0.8791  0.0723
17084TIP3    H172667   2.345   1.558  16.797 -0.7218  0.3269 -0.3154
17084TIP3    H272668   2.223   1.475  16.831  0.6149 -1.5246  0.1532
17085TIP3   OH272669   0.932   6.506  12.747  0.0314 -0.1782 -0.4903
17085TIP3    H172670   0.868   6.444  12.712 -0.0139 -0.2204 -0.3357
17085TIP3    H272671   0.939   6.483  12.840  1.2190 -1.0236 -0.7533
17086TIP3   OH272672   6.728   5.281   4.339 -0.3458 -0.1239  0.0955
17086TIP3    H172673   6.694   5.358   4.386  1.2121 -0.5910  2.1607
17086TIP3    H272674   6.768   5.228   4.408  2.3461 -0.7590 -1.8361
17087TIP3   OH272675   3.313   2.164   2.013  0.1981  0.4327  0.4783
17087TIP3    H172676   3.375   2.229   1.979  0.7788 -0.4124 -0.1227
17087TIP3    H272677   3.305   2.186   2.106 -0.1536  1.7752  0.1584
17088TIP3   OH272678   5.162   0.444   6.384  0.0962 -0.1616  0.3617
17088TIP3    H172679   5.127   0.371   6.333  1.5159 -0.4548 -0.2356
17088TIP3    H272680   5.089   0.505   6.392 -1.2384 -1.8116  1.2327
17089TIP3   OH272681   5.142   5.215  14.715  0.2938  0.7061  0.1752
17089TIP3    H172682   5.117   5.125  14.733  3.2900  0.0160  1.6467
17089TIP3    H272683   5.065   5.267  14.737 -0.4399 -1.2577  2.6974
17090TIP3   OH272684   4.736   6.365   4.285  0.1668 -0.0840  0.3423
17090TIP3    H172685   4.744   6.358   4.190  0.6699 -1.7473  0.4797
17090TIP3    H272686   4.702   6.279   4.312  0.0416  0.3682  1.6671
17091TIP3   OH272687   0.281   4.231  13.189  0.2098  0.3593 -0.5775
17091TIP3    H172688   0.280   4.326  13.185 -2.0704  0.3809 -0.4837
17091TIP3    H272689   0.338   4.211  13.263  0.7506  1.6170 -0.6241
17092TIP3   OH272690   2.005   2.728   0.682  0.1457  0.2398  0.1700
17092TIP3    H172691   2.026   2.640   0.649 -3.9203 -1.1289  0.7012
17092TIP3    H272692   1.986   2.779   0.603  0.9613  0.2079 -0.0595
17093TIP3   OH272693   6.301   3.387   4.914  0.3742 -0.1607 -0.5748
17093TIP3    H172694   6.325   3.480   4.922 -0.2875  0.0622 -1.0718
17093TIP3    H272695   6.294   3.372   4.820  0.5173 -0.7264 -0.4976
17094TIP3   OH272696   2.274   0.704  15.277 -0.6434 -0.2370  0.3490
17094TIP3    H172697   2.186   0.685  15.245  0.0452 -1.4426 -0.9610
17094TIP3    H272698   2.317   0.619  15.282  1.4909  0.5240 -2.3705
17095TIP3   OH272699   0.390   2.439   3.388 -0.1106  0.0606  0.5646
17095TIP3    H172700   0.369   2.351   3.357 -0.1989  0.3557 -0.2510
17095TIP3    H272701   0.345   2.447   3.472  1.7234 -1.4583  1.7513
17096TIP3   OH272702   4.886   1.539   3.021 -0.2286  0.3109 -0.3292
17096TIP3    H172703   4.912   1.447   3.014 -0.2777  0.1503  1.3158
17096TIP3    H272704   4.823   1.551   2.949  0.7925 -0.5535 -1.4103
17097TIP3   OH272705   4.925   2.845  15.058  0.3778  0.2122 -0.3119
17097TIP3    H172706   4.993   2.900  15.019 -0.5082 -0.0872 -2.3893
17097TIP3    H272707   4.846   2.899  15.057 -0.0610 -0.4201 -0.6005
17098TIP3   OH272708   2.660   5.166   2.761  0.6196  0.8370 -0.0389
17098TIP3    H172709   2.629   5.083   2.798  1.4655  1.3382  1.9071
17098TIP3    H272710   2.589   5.228   2.779  0.1203  0.6512 -1.2245
17099TIP3   OH272711   5.615   4.613   1.080 -0.2849 -0.0310  0.1629
17099TIP3    H172712   5.560   4.683   1.046 -0.3789 -0.1781  0.0141
17099TIP3    H272713   5.582   4.533   1.039  1.5009  0.1429 -1.7398
17100TIP3   OH272714   6.656   2.168   5.513  0.0591  0.5725  0.1256
17100TIP3    H172715   6.677   2.121   5.432 -0.4467  0.6731 -0.0675
17100TIP3    H272716   6.721   2.138   5.575 -1.1180 -1.5545  0.4402
17101TIP3   OH272717   5.546   0.139   1.579  0.2244 -0.1742 -0.6087
17101TIP3    H172718   5.637   0.111   1.589  0.5711  0.9986 -0.2549
17101TIP3    H272719   5.522   0.172   1.666 -1.3700 -2.7229  0.0120
17102TIP3   OH272720   3.705   5.224   0.159 -0.2395  0.1746  0.4371
17102TIP3    H172721   3.738   5.214   0.249  1.3421  1.8856  0.0917
17102TIP3    H272722   3.704   5.318   0.144 -1.1305 -0.0579 -1.1426
17103TIP3   OH272723   1.294   1.611   5.484 -0.1814 -0.0959 -0.0664
17103TIP3    H172724   1.313   1.635   5.393  0.5843  2.3444  0.6583
17103TIP3    H272725   1.224   1.671   5.511 -0.9654 -1.3288  0.7411
17104TIP3   OH272726   2.108   2.211  11.309  0.9552 -0.4400  0.3567
17104TIP3    H172727   2.140   2.163  11.386  2.6505  0.2090  0.0922
17104TIP3    H272728   2.134   2.156  11.235  0.2678 -0.5407  0.1844
17105TIP3   OH272729   1.034   3.832  15.760 -0.1352  0.3896 -0.6511
17105TIP3    H172730   1.095   3.890  15.715  0.6217  0.1794  0.0759
17105TIP3    H272731   0.967   3.891  15.797  0.9909  0.9064  0.6571
17106TIP3   OH272732   4.458   1.469  12.005 -0.3187  0.4249 -0.2130
17106TIP3    H172733   4.499   1.403  12.060 -2.3263 -1.2575 -0.6164
17106TIP3    H272734   4.449   1.546  12.062 -0.8273 -0.7140  1.3051
17107TIP3   OH272735   3.531   4.792   2.871 -0.5342 -0.4640 -0.1160
17107TIP3    H172736   3.598   4.725   2.864 -0.5041 -0.4159 -0.3044
17107TIP3    H272737   3.575   4.873   2.848 -0.9891 -0.6298 -1.7557
17108TIP3   OH272738   1.628   3.052   0.729 -0.0585 -0.2759 -0.4305
17108TIP3    H172739   1.614   3.136   0.772 -1.4629 -0.4215 -0.5468
17108TIP3    H272740   1.723   3.043   0.723  0.2194 -0.0788  2.3145
17109TIP3   OH272741   3.042   5.670   0.175 -0.0070  0.3195 -0.3007
17109TIP3    H172742   3.027   5.754   0.217  0.3857  0.7041 -0.9113
17109TIP3    H272743   3.114   5.631   0.225 -0.7046 -0.0038  0.4671
17110TIP3   OH272744   1.376   2.027  13.294 -0.2519  0.3076  0.1489
17110TIP3    H172745   1.374   2.092  13.365 -0.9088 -0.2591  0.6619
17110TIP3    H272746   1.317   2.062  13.228  0.0721  0.6543  0.0382
17111TIP3   OH272747   0.861   5.125   3.736 -0.3524  0.9341 -0.5998
17111TIP3    H172748   0.844   5.031   3.730  0.5793  0.6301  0.9091
17111TIP3    H272749   0.907   5.146   3.654  2.0078 -0.5664  0.2230
17112TIP3   OH272750   4.127   6.109   3.611 -0.1453 -0.1435 -0.3045
17112TIP3    H172751   4.154   6.026   3.570 -1.8877 -0.8503 -0.1544
17112TIP3    H272752   4.134   6.174   3.541  1.0951 -0.4448 -0.4711
17113TIP3   OH272753   2.104   5.560   0.262 -0.0498 -0.0818  0.3678
17113TIP3    H172754   2.123   5.560   0.168  0.2427  2.3958  0.3573
17113TIP3    H272755   2.019   5.602   0.270 -1.4496 -2.8483  1.0818
17114TIP3   OH272756   2.851   4.685  12.768  0.1772 -0.6608 -0.8214
17114TIP3    H172757   2.876   4.641  12.686  0.5857 -0.0668 -1.0165
17114TIP3    H272758   2.933   4.713  12.807  0.0292 -1.4060  0.0713
17115TIP3   OH272759   1.764   3.148  10.825 -0.0861  0.9976 -0.3709
17115TIP3    H172760   1.789   3.219  10.884  0.1302  0.8545 -0.2895
17115TIP3    H272761   1.685   3.112  10.863  1.2333 -0.5197  1.0575
17116TIP3   OH272762   1.299   6.482  11.140  0.6182  0.6073  0.3734
17116TIP3    H172763   1.321   6.446  11.054  0.4214  2.2172 -0.3779
17116TIP3    H272764   1.374   6.538  11.162 -0.1660  1.6701  0.3862
17117TIP3   OH272765   4.777   0.443  13.937  0.2803 -0.6940 -1.1101
17117TIP3    H172766   4.747   0.397  13.858 -0.0046 -0.0046 -1.4109
17117TIP3    H272767   4.731   0.527  13.934 -0.7279 -1.1392  0.4441
17118TIP3   OH272768   0.364   3.602   2.493 -0.5085 -0.1747 -0.2262
17118TIP3    H172769   0.394   3.665   2.428 -0.0322 -0.6206 -0.4399
17118TIP3    H272770   0.405   3.630   2.575  0.3234 -0.6515 -0.4718
17119TIP3   OH272771   3.154   6.093   2.065  0.5229 -0.3563  0.6551
17119TIP3    H172772   3.229   6.080   2.123  0.0755  1.0483  1.6105
17119TIP3    H272773   3.130   6.005   2.036  2.4789 -0.8452  0.3744
17120TIP3   OH272774   0.414   2.283   3.088  0.0862  0.2520 -0.0238
17120TIP3    H172775   0.322   2.309   3.092 -0.0237  0.2869 -1.8271
17120TIP3    H272776   0.448   2.328   3.010  0.8353 -2.0428 -1.1235
17121TIP3   OH272777   4.877   2.525  17.202 -0.4573 -0.1819  0.4550
17121TIP3    H172778   4.962   2.559  17.228 -0.7584  0.0905  1.0989
17121TIP3    H272779   4.813   2.579  17.249 -0.9665 -1.0945  0.8616
17122TIP3   OH272780   3.984   3.030   6.212 -0.1949 -0.1861 -0.0000
17122TIP3    H172781   4.041   3.053   6.139  1.3166 -0.3006  1.0950
17122TIP3    H272782   3.936   3.111   6.231 -0.3991 -0.0798 -0.9250
17123TIP3   OH272783   6.590   2.330  12.423  0.3132 -0.1985 -0.1431
17123TIP3    H172784   6.558   2.348  12.334  1.4437 -0.7899 -0.6940
17123TIP3    H272785   6.511   2.319  12.475 -0.3880  1.6863 -0.7335
17124TIP3   OH272786   1.199   1.614  15.880 -0.1938 -0.6621  0.1820
17124TIP3    H172787   1.205   1.520  15.861 -0.0597 -0.4181 -1.0397
17124TIP3    H272788   1.176   1.618  15.973  1.0548 -1.8797  0.5755
17125TIP3   OH272789   5.101   3.429  15.238 -0.1018  0.4195  0.3861
17125TIP3    H172790   5.115   3.505  15.182  0.3068  1.0929  1.3687
17125TIP3    H272791   5.080   3.358  15.178  1.6491  0.7924 -0.7412
17126TIP3   OH272792   5.197   1.401  12.573  0.1323 -0.2413 -0.2341
17126TIP3    H172793   5.223   1.345  12.500 -0.4804 -1.1149  0.2042
17126TIP3    H272794   5.101   1.399  12.572  0.1090  0.2456  0.2137
17127TIP3   OH272795   6.567   3.720  10.440 -1.0831 -0.4764 -0.0223
17127TIP3    H172796   6.587   3.660  10.369 -1.1242 -0.9725  0.3853
17127TIP3    H272797   6.548   3.664  10.515 -1.1500  0.0397  0.3529
17128TIP3   OH272798   2.712   2.422   3.873 -0.3316  0.0654  0.2847
17128TIP3    H172799   2.805   2.401   3.864 -0.3468  0.3853 -0.7636
17128TIP3    H272800   2.667   2.339   3.860 -0.2334  0.0893 -0.2236
17129TIP3   OH272801   3.042   5.557   0.678  0.5221  0.1422 -1.0380
17129TIP3    H172802   2.987   5.591   0.608  0.5733 -0.0704 -1.1814
17129TIP3    H272803   3.089   5.634   0.710  0.0652  0.3414 -0.8434
17130TIP3   OH272804   3.971   1.660  14.350 -0.4138 -0.3111 -0.3383
17130TIP3    H172805   3.917   1.679  14.426  0.9894 -0.3276  0.7042
17130TIP3    H272806   4.023   1.739  14.336  0.3052 -0.7840 -0.4321
17131TIP3   OH272807   6.044   4.826  13.357  0.2206  0.2706  0.5026
17131TIP3    H172808   5.973   4.778  13.400  1.3827  0.7572  3.2116
17131TIP3    H272809   6.088   4.761  13.302 -1.7703 -0.2335 -0.5727
17132TIP3   OH272810   0.641   4.577   6.247 -0.1406  0.3444  0.0917
17132TIP3    H172811   0.644   4.497   6.194 -0.1659 -0.0999  0.7458
17132TIP3    H272812   0.722   4.623   6.225  0.2165 -0.2086  0.2256
17133TIP3   OH272813   2.599   3.970   5.880 -0.4294  0.0426  0.5327
17133TIP3    H172814   2.537   4.041   5.894  1.1505  1.2575  1.7973
17133TIP3    H272815   2.547   3.890   5.889 -2.0309  1.0066  0.2423
17134TIP3   OH272816   0.516   2.497   1.707  0.5303  0.0404 -0.5332
17134TIP3    H172817   0.566   2.494   1.626  0.3427  0.4529 -0.6630
17134TIP3    H272818   0.427   2.471   1.682  0.3559  0.6430 -0.5492
17135TIP3   OH272819   1.893   3.436  14.766 -0.1469 -0.1800 -0.1231
17135TIP3    H172820   1.973   3.434  14.819  1.2171  1.3785 -1.9943
17135TIP3    H272821   1.870   3.344  14.755  0.4835 -0.6090  1.7089
17136TIP3   OH272822   2.987   6.151  16.602  0.4105  0.1334 -0.4626
17136TIP3    H172823   2.959   6.216  16.538 -0.8404  0.4583  0.3475
17136TIP3    H272824   3.026   6.202  16.673 -1.7594  0.1998  0.7787
17137TIP3   OH272825   4.113   3.790  12.729 -0.2410 -0.1862  0.0744
17137TIP3    H172826   4.178   3.836  12.675 -0.5160  1.6866  1.2207
17137TIP3    H272827   4.029   3.818  12.693 -0.4132 -0.0657  0.5720
17138TIP3   OH272828   4.179   5.547   0.408  0.1833 -0.4405  0.2977
17138TIP3    H172829   4.154   5.623   0.460  1.5306 -1.0299  1.8747
17138TIP3    H272830   4.196   5.478   0.472  3.3675 -0.7873 -0.7308
17139TIP3   OH272831   4.092   5.933  13.137  0.3152  0.3393 -0.2616
17139TIP3    H172832   4.003   5.930  13.173 -0.0120 -1.2263 -1.1549
17139TIP3    H272833   4.101   6.023  13.105 -1.2360  0.3247 -0.8517
17140TIP3   OH272834   0.003   5.165  12.981  0.6391 -0.1416  0.0658
17140TIP3    H172835   0.075   5.104  12.967  2.2734  1.2079  2.0344
17140TIP3    H272836   0.043   5.252  12.972 -0.8947  0.6538  0.5161
17141TIP3   OH272837   2.852   3.267   3.817  0.9082  0.1771  0.1110
17141TIP3    H172838   2.848   3.309   3.904 -3.3154  1.9374 -0.7034
17141TIP3    H272839   2.781   3.204   3.818  0.2377  0.8200 -2.3193
17142TIP3   OH272840   1.855   0.500   0.513  0.4402 -0.1843 -0.3561
17142TIP3    H172841   1.947   0.524   0.499  0.4787 -0.0231  0.1387
17142TIP3    H272842   1.831   0.451   0.435  0.7507  0.3436 -0.7910
17143TIP3   OH272843   4.613   5.213   5.539 -0.2687 -0.1028 -0.2089
17143TIP3    H172844   4.532   5.209   5.590 -1.2215  0.2638 -1.6190
17143TIP3    H272845   4.627   5.307   5.525  1.6870 -0.0019  1.9149
17144TIP3   OH272846   3.629   0.430  17.063 -0.7124  0.3631  0.0901
17144TIP3    H172847   3.562   0.424  16.995 -0.3497  1.8473 -0.4193
17144TIP3    H272848   3.581   0.416  17.145 -1.1898 -1.2149 -0.4104
17145TIP3   OH272849   3.963   4.981   4.981 -0.6608 -0.1314 -0.2348
17145TIP3    H172850   3.959   4.930   5.061 -0.1328  1.0636  0.5955
17145TIP3    H272851   4.031   4.939   4.928 -0.3803 -0.4002  0.3420
17146TIP3   OH272852   6.231   0.855  13.392 -0.4364 -0.0149  0.1652
17146TIP3    H172853   6.153   0.892  13.352  0.4253  0.9564 -0.6806
17146TIP3    H272854   6.204   0.829  13.480 -1.6056  0.6296  0.0024
17147TIP3   OH272855   2.169   4.804  14.509  0.4797 -0.0177  0.2207
17147TIP3    H172856   2.112   4.880  14.506  2.1202  1.3094 -3.1190
17147TIP3    H272857   2.202   4.801  14.599  0.6929  3.5151  0.3867
17148TIP3   OH272858   2.559   0.505   4.419  0.5415 -0.4338  0.2863
17148TIP3    H172859   2.590   0.514   4.329  1.6892  0.9371  0.7769
17148TIP3    H272860   2.508   0.586   4.434 -1.1901 -1.4764  0.3180
17149TIP3   OH272861   5.161   2.909  16.542  0.5467  0.2259 -0.2538
17149TIP3    H172862   5.197   2.908  16.454 -2.6893  2.5815 -1.8510
17149TIP3    H272863   5.190   2.993  16.579  1.4913 -0.5324  0.7731
17150TIP3   OH272864   4.981   2.977   3.007  0.0242  0.3227  0.2483
17150TIP3    H172865   4.915   2.907   3.002 -0.5846  0.7404  1.8422
17150TIP3    H272866   5.037   2.952   3.081  2.7765 -0.8857 -2.0523
17151TIP3   OH272867   4.490   1.722  16.323 -0.2763 -0.3650  0.5392
17151TIP3    H172868   4.515   1.729  16.231  1.1522 -0.7296  0.8728
17151TIP3    H272869   4.419   1.659  16.324 -0.3389 -0.3193 -0.3161
17152TIP3   OH272870   0.761   2.412  14.839 -0.4165 -0.6753  0.7063
17152TIP3    H172871   0.846   2.416  14.884 -0.4460 -1.0588  0.7995
17152TIP3    H272872   0.738   2.319  14.840 -0.0067 -0.8145 -0.8632
17153TIP3   OH272873   5.039   5.960  13.068  0.4482 -0.0263  0.1951
17153TIP3    H172874   4.953   5.918  13.064 -0.5562  1.9773 -1.2158
17153TIP3    H272875   5.032   6.022  13.142  0.9006 -0.2898  0.4623
17154TIP3   OH272876   3.656   2.136  11.360 -0.4786 -0.3194  0.5542
17154TIP3    H172877   3.653   2.207  11.296  0.4288  0.1338  1.0090
17154TIP3    H272878   3.564   2.111  11.372 -0.6265 -1.5717 -2.1931
17155TIP3   OH272879   3.577   6.252  16.377  0.5298 -0.2703  0.3270
17155TIP3    H172880   3.483   6.233  16.374  0.5730 -0.5453  0.7434
17155TIP3    H272881   3.589   6.321  16.311 -0.3247  1.3504  1.7798
17156TIP3   OH272882   0.725   4.970   0.943 -0.3683  0.2049  0.1367
17156TIP3    H172883   0.757   4.920   0.867  0.0873  0.7769 -0.0550
17156TIP3    H272884   0.798   4.969   1.005 -0.8336 -0.4835  0.6866
17157TIP3   OH272885   5.990   3.170   2.558 -0.5392 -0.0301 -0.1741
17157TIP3    H172886   6.085   3.159   2.556 -0.5046  0.3083 -0.4690
17157TIP3    H272887   5.976   3.239   2.622 -0.4398  1.2597 -1.4704
17158TIP3   OH272888   3.291   6.245  14.220 -0.4651  0.9819 -0.6000
17158TIP3    H172889   3.238   6.322  14.240  0.2765  1.1229  0.9999
17158TIP3    H272890   3.345   6.271  14.146  0.1084  2.1979  0.2108
17159TIP3   OH272891   5.103   0.386  11.327  0.1938 -0.2572 -0.7657
17159TIP3    H172892   5.011   0.410  11.314 -0.3425 -1.3881  0.7077
17159TIP3    H272893   5.124   0.331  11.252 -0.7930 -1.1993 -0.3697
17160TIP3   OH272894   0.451   1.456  12.586 -0.0435 -0.1345 -0.2802
17160TIP3    H172895   0.529   1.412  12.620  0.9999  1.2425 -0.8268
17160TIP3    H272896   0.480   1.544  12.563 -1.4746  0.0300 -1.6568
17161TIP3   OH272897   4.760   4.448   4.927 -0.1604 -0.8629  0.2106
17161TIP3    H172898   4.720   4.458   4.840 -0.8876 -2.0703  0.3802
17161TIP3    H272899   4.686   4.437   4.986  0.3579 -0.8169  0.8772
17162TIP3   OH272900   2.639   3.666  16.121  0.1488  0.2277 -0.2193
17162TIP3    H172901   2.659   3.759  16.115 -0.3137  0.3417 -0.0091
17162TIP3    H272902   2.715   3.628  16.166 -0.2314  0.7116  0.8611
17163TIP3   OH272903   1.741   1.378  13.264 -0.2975 -0.0005  0.6400
17163TIP3    H172904   1.826   1.334  13.256  0.1130  0.9178 -0.6189
17163TIP3    H272905   1.702   1.342  13.343  1.8716  0.5453  2.0606
17164TIP3   OH272906   6.212   2.093   3.221 -0.2363 -0.2349  0.0851
17164TIP3    H172907   6.181   2.182   3.208 -2.0801 -0.6961  0.9807
17164TIP3    H272908   6.198   2.076   3.314 -0.3560 -1.5870 -0.1550
17165TIP3   OH272909   4.186   3.842   5.154  0.5444  0.3287  0.2136
17165TIP3    H172910   4.272   3.850   5.196  0.9987 -0.1805 -0.5873
17165TIP3    H272911   4.206   3.812   5.065 -0.5107 -0.6323  0.2812
17166TIP3   OH272912   6.659   4.936   3.553  0.4182  0.2036  0.3351
17166TIP3    H172913   6.686   4.847   3.576  1.0906  0.7168  1.6866
17166TIP3    H272914   6.689   4.948   3.463 -0.9042 -1.3848 -0.3784
17167TIP3   OH272915   3.232   1.666  14.589 -0.0474 -0.2872  0.4891
17167TIP3    H172916   3.295   1.612  14.637  1.4839  1.6552  0.7923
17167TIP3    H272917   3.243   1.640  14.498 -0.3657 -1.4504  0.7633
17168TIP3   OH272918   5.962   3.941  16.884  0.1345  0.4411 -0.0519
17168TIP3    H172919   6.052   3.971  16.898  0.9391 -0.6418 -2.3213
17168TIP3    H272920   5.953   3.863  16.939  1.1288 -0.3005 -0.9009
17169TIP3   OH272921   3.757   3.876   0.812  0.2194  0.2419  0.3268
17169TIP3    H172922   3.678   3.822   0.816  0.5241 -0.1354  1.8595
17169TIP3    H272923   3.728   3.956   0.766 -1.5058  0.7975  2.2199
17170TIP3   OH272924   5.899   5.385   3.873 -0.3323  0.1610  0.2031
17170TIP3    H172925   5.934   5.357   3.958 -2.1514  0.8185  1.2317
17170TIP3    H272926   5.813   5.343   3.867 -0.8350  1.2559 -0.6373
17171TIP3   OH272927   3.900   0.487   2.980 -0.2072  0.1216  0.2808
17171TIP3    H172928   3.942   0.447   3.055 -1.3896 -1.6554  0.0671
17171TIP3    H272929   3.928   0.578   2.981  1.2379 -0.3121  1.7990
17172TIP3   OH272930   0.586   5.361  11.760 -1.0003 -0.3520  0.3882
17172TIP3    H172931   0.665   5.378  11.812 -0.6710 -0.4380 -0.0898
17172TIP3    H272932   0.610   5.385  11.671 -1.6570  0.0653  0.3153
17173TIP3   OH272933   5.400   3.149   2.994 -0.0858  0.1393 -0.1406
17173TIP3    H172934   5.491   3.178   2.992  1.4748 -4.0499  0.2863
17173TIP3    H272935   5.359   3.196   2.920  2.3446  2.1061 -0.3926
17174TIP3   OH272936   5.387   1.879  11.689 -0.6107 -0.0587  0.0043
17174TIP3    H172937   5.440   1.900  11.766  1.1027 -1.8755 -0.5934
17174TIP3    H272938   5.448   1.886  11.615 -1.0660 -2.4195 -0.6943
17175TIP3   OH272939   0.558   5.971   1.212  0.6229  0.1591  0.1085
17175TIP3    H172940   0.577   6.017   1.130  1.3988  1.2536  0.8708
17175TIP3    H272941   0.639   5.977   1.263 -0.0462  0.0994  1.2314
17176TIP3   OH272942   2.664   6.114   1.330  0.4619 -0.7944 -0.1219
17176TIP3    H172943   2.600   6.064   1.279 -1.5577 -0.7374  2.1906
17176TIP3    H272944   2.648   6.087   1.421  2.8963  0.2030  0.6696
17177TIP3   OH272945   3.224   3.501   0.134  0.3403 -0.2180 -0.2899
17177TIP3    H172946   3.243   3.526   0.044 -0.6930  1.4163 -0.0869
17177TIP3    H272947   3.202   3.407   0.128  1.6218 -0.4773 -1.4961
17178TIP3   OH272948   1.215   5.251   6.013  0.4481  0.1883  0.3816
17178TIP3    H172949   1.150   5.264   6.082  0.3090 -0.3042  0.3470
17178TIP3    H272950   1.292   5.216   6.059 -0.0233 -1.2257  0.1569
17179TIP3   OH272951   1.305   3.553   0.211 -0.1461  0.1499 -0.1127
17179TIP3    H172952   1.246   3.485   0.243  0.5491 -1.4098 -1.9458
17179TIP3    H272953   1.247   3.619   0.172 -0.7489 -1.0409 -1.3078
17180TIP3   OH272954   3.141   6.404   4.610 -0.1622 -0.2329 -0.0829
17180TIP3    H172955   3.231   6.423   4.583  0.3277  1.9322  2.6509
17180TIP3    H272956   3.093   6.484   4.591 -1.0491 -0.6322  0.4234
17181TIP3   OH272957   6.182   6.491   5.952 -0.0259  0.1222  0.7624
17181TIP3    H172958   6.203   6.418   5.893 -0.9781 -0.0784  0.6597
17181TIP3    H272959   6.224   6.468   6.034  1.7235  0.6236  0.0661
17182TIP3   OH272960   1.139   0.130   4.381  0.4722  0.4959  0.3704
17182TIP3    H172961   1.232   0.111   4.392  0.1865 -0.2381  1.6261
17182TIP3    H272962   1.135   0.225   4.364  1.4421  0.5011  0.1424
17183TIP3   OH272963   5.415   6.168  16.613 -0.3893 -0.4770  0.3190
17183TIP3    H172964   5.329   6.188  16.577 -1.2222 -1.8443  1.4821
17183TIP3    H272965   5.471   6.159  16.536 -2.0395 -2.9877 -0.6942
17184TIP3   OH272966   0.758   1.031  13.971  0.3031  0.1651 -0.2355
17184TIP3    H172967   0.772   1.007  14.063 -0.7459 -0.5498 -0.2419
17184TIP3    H272968   0.663   1.028  13.960  0.4499 -0.3972 -1.5065
17185TIP3   OH272969   1.827   6.785   4.770 -0.7544 -0.3269 -0.4669
17185TIP3    H172970   1.844   6.705   4.720  0.3368 -0.4179  0.0153
17185TIP3    H272971   1.783   6.844   4.709 -0.1547 -0.7200 -1.2834
17186TIP3   OH272972   5.783   4.124   4.689  0.4505 -0.6139 -0.0637
17186TIP3    H172973   5.723   4.131   4.614  0.7527  0.1751 -0.2440
17186TIP3    H272974   5.854   4.068   4.658  0.3659 -0.6313 -0.2282
17187TIP3   OH272975   1.202   4.061  15.402 -1.1535 -0.2830  0.0462
17187TIP3    H172976   1.132   4.042  15.340  0.9507 -0.6159 -2.3546
17187TIP3    H272977   1.283   4.041  15.355  0.7667  3.0938  1.5140
17188TIP3   OH272978   4.608   3.241   3.006 -0.3644  0.0263 -0.9392
17188TIP3    H172979   4.669   3.168   2.996  0.5516  0.5843  0.3209
17188TIP3    H272980   4.598   3.252   3.100 -1.0632  1.0669 -1.1088
17189TIP3   OH272981   6.443   1.734   5.809 -0.4739 -0.3691 -0.0918
17189TIP3    H172982   6.397   1.808   5.768  1.3306  0.3906 -0.8894
17189TIP3    H272983   6.407   1.729   5.898 -2.6884 -0.4267 -0.9483
17190TIP3   OH272984   0.427   1.702   5.973 -0.3692 -0.0878 -0.4124
17190TIP3    H172985   0.401   1.613   5.948  0.8896 -0.9515  1.1380
17190TIP3    H272986   0.500   1.723   5.915 -0.6633 -0.0630 -0.7767
17191TIP3   OH272987   2.036   4.397   0.716  0.0115 -0.0287 -0.5194
17191TIP3    H172988   2.060   4.311   0.683  0.6300 -0.6117  1.3130
17191TIP3    H272989   2.051   4.392   0.810 -1.8556  1.4475 -0.0663
17192TIP3   OH272990   6.689   0.190  12.377 -0.3691 -0.4256  0.1768
17192TIP3    H172991   6.764   0.173  12.320 -1.6507 -0.1696 -1.6665
17192TIP3    H272992   6.680   0.285  12.379 -0.1385 -0.4053  1.1345
17193TIP3   OH272993   2.677   1.619   3.532 -0.2847 -0.4019  0.2119
17193TIP3    H172994   2.734   1.590   3.603 -1.1896 -2.0406  0.3169
17193TIP3    H272995   2.667   1.543   3.476 -3.9326 -0.9356  1.2653
17194TIP3   OH272996   3.715   6.149   0.464 -0.0561  0.1422  0.0437
17194TIP3    H172997   3.677   6.232   0.434 -2.9041 -1.3071 -0.7602
17194TIP3    H272998   3.774   6.174   0.535 -0.8129  2.8469 -0.1585
17195TIP3   OH272999   3.846   0.505   1.355  0.8470 -0.1600 -0.2337
17195TIP3    H173000   3.922   0.563   1.359  0.5728  0.1394  0.7683
17195TIP3    H273001   3.856   0.446   1.429  1.0312 -1.2926 -1.1439
17196TIP3   OH273002   5.892   1.228   6.421 -0.2632 -0.1857 -0.6932
17196TIP3    H173003   5.907   1.195   6.509 -1.3870  1.0282 -0.0150
17196TIP3    H273004   5.979   1.249   6.388  0.2574 -1.5528 -0.2657
17197TIP3   OH273005   1.238   3.503  12.096  0.3351 -0.2629 -0.6673
17197TIP3    H173006   1.145   3.520  12.080  0.3787 -1.2530 -2.1496
17197TIP3    H273007   1.284   3.562  12.036  0.6225 -0.6932 -0.8796
17198TIP3   OH273008   0.798   2.217   2.479  0.1308 -0.6060  0.5023
17198TIP3    H173009   0.810   2.122   2.480  0.8358 -0.5275  0.4580
17198TIP3    H273010   0.834   2.244   2.395 -0.8154 -0.3848  0.1672
17199TIP3   OH273011   3.218   2.594  14.495  0.6912 -0.2400  0.1510
17199TIP3    H173012   3.134   2.615  14.536 -0.3098  1.3367 -2.4633
17199TIP3    H273013   3.208   2.503  14.467 -0.8780  0.4092 -1.6040
17200TIP3   OH273014   4.743   1.252  11.365 -0.1461 -0.6307  0.5245
17200TIP3    H173015   4.706   1.304  11.293  0.2993 -1.5250 -0.3746
17200TIP3    H273016   4.816   1.205  11.325  1.0266 -0.0643  1.9161
17201TIP3   OH273017   5.933   0.336   0.517  0.1865 -0.3539 -0.4072
17201TIP3    H173018   6.025   0.340   0.541 -0.0217 -1.2344  0.6043
17201TIP3    H273019   5.922   0.404   0.450  0.9864  1.6476  1.3968
17202TIP3   OH273020   0.742   2.806   2.442  0.5213  0.1673  0.5032
17202TIP3    H173021   0.646   2.801   2.441  0.2832  2.5509 -2.1585
17202TIP3    H273022   0.769   2.754   2.367  1.3098 -0.0713  0.9452
17203TIP3   OH273023   5.992   1.219   5.591  1.0692 -0.4476 -0.3310
17203TIP3    H173024   6.071   1.267   5.566  1.6876  0.5865  3.1406
17203TIP3    H273025   5.920   1.269   5.551  1.9352  1.2486  0.1200
17204TIP3   OH273026   1.301   4.622   5.473  0.0623  0.4671 -0.1393
17204TIP3    H173027   1.351   4.697   5.503  0.0025  0.7254 -0.6679
17204TIP3    H273028   1.359   4.547   5.488  0.0707  0.5991  0.5066
17205TIP3   OH273029   0.022   3.245  14.166 -0.0266  0.0638 -0.0213
17205TIP3    H173030   0.098   3.263  14.112  1.1035 -1.2121  1.0856
17205TIP3    H273031  -0.024   3.174  14.121  0.1931 -0.1043  0.0226
17206TIP3   OH273032   4.695   3.625   6.422  0.3124  0.1899 -0.3017
17206TIP3    H173033   4.656   3.705   6.457  0.2514  0.7493 -1.5929
17206TIP3    H273034   4.779   3.618   6.466  0.0494  0.6153  0.2892
17207TIP3   OH273035   5.547   4.024  14.677  0.5162 -0.1848  0.4225
17207TIP3    H173036   5.569   3.931  14.677 -0.7908 -0.5401  2.2968
17207TIP3    H273037   5.559   4.052  14.586 -0.1246 -2.4417 -0.4050
17208TIP3   OH273038   3.997   0.000   3.622  0.1946 -0.0713 -0.1493
17208TIP3    H173039   4.066  -0.036   3.566 -0.4403  1.5210 -2.1053
17208TIP3    H273040   4.021   0.092   3.632  0.1560 -0.2682  2.0842
17209TIP3   OH273041   3.518   0.554  15.509 -0.3133 -0.0955  0.1467
17209TIP3    H173042   3.451   0.621  15.526 -0.0050 -0.1298  1.5485
17209TIP3    H273043   3.597   0.588  15.550 -0.0541 -1.1364  0.5326
17210TIP3   OH273044   5.731   1.530   1.383  0.2419 -0.6832  0.3650
17210TIP3    H173045   5.769   1.449   1.418  0.4880 -0.7694 -0.0945
17210TIP3    H273046   5.637   1.512   1.377  0.2824 -0.8983  0.3685
17211TIP3   OH273047   0.222   6.480  15.714 -0.1553  0.0822 -0.0625
17211TIP3    H173048   0.247   6.498  15.804  1.4897 -0.0989 -0.4570
17211TIP3    H273049   0.261   6.552  15.663 -1.2676  0.3217 -0.6191
17212TIP3   OH273050   1.695   4.549  13.563 -0.6337 -0.3715  0.1596
17212TIP3    H173051   1.622   4.601  13.596 -0.3546 -0.1198  0.3858
17212TIP3    H273052   1.753   4.612  13.521 -0.7910 -0.6383 -0.4706
17213TIP3   OH273053   6.077   2.680   3.926 -0.5989 -0.5335  0.0914
17213TIP3    H173054   5.988   2.709   3.947 -1.2177  1.1750 -3.9711
17213TIP3    H273055   6.132   2.757   3.942 -0.5831 -0.2402 -1.2503
17214TIP3   OH273056   1.189   6.133   5.771 -0.3686 -0.1494 -0.1373
17214TIP3    H173057   1.283   6.145   5.771 -0.2261 -0.8085  2.2750
17214TIP3    H273058   1.160   6.169   5.687  2.1067 -0.8679 -1.3873
17215TIP3   OH273059   5.989   1.321   0.761 -0.1995 -0.6505  0.1878
17215TIP3    H173060   5.945   1.337   0.844 -2.8702  1.7370 -1.5108
17215TIP3    H273061   5.967   1.231   0.739  0.6390 -1.3604  2.0337
17216TIP3   OH273062   1.104   2.844   2.890 -0.4079  0.1718 -0.5862
17216TIP3    H173063   1.025   2.842   2.944  0.2384 -0.4632  0.3736
17216TIP3    H273064   1.138   2.933   2.901 -0.6813  0.2747 -0.5522
17217TIP3   OH273065   3.834   5.930   5.970  0.7469 -0.0102  0.7950
17217TIP3    H173066   3.765   5.995   5.959  1.6405  0.8587  0.0707
17217TIP3    H273067   3.788   5.847   5.978 -0.3560  0.3081 -1.3437
17218TIP3   OH273068   2.828   1.380   6.050  0.0083  0.0065 -0.0054
17218TIP3    H173069   2.863   1.383   5.961 -2.9176  0.8692 -1.2621
17218TIP3    H273070   2.842   1.290   6.079  1.4294 -0.1721 -1.1436
17219TIP3   OH273071   4.565   0.692   0.373 -0.2804 -0.0896  0.3034
17219TIP3    H173072   4.611   0.716   0.293  2.3072 -0.4422  1.5850
17219TIP3    H273073   4.538   0.601   0.359  1.9474 -0.8481  0.5165
17220TIP3   OH273074   5.212   6.015   2.472 -0.6695  0.0473  0.2221
17220TIP3    H173075   5.127   6.057   2.479 -0.7680 -0.0891 -0.1422
17220TIP3    H273076   5.239   6.029   2.381 -0.1858  0.3166  0.4037
17221TIP3   OH273077   1.791   3.528   2.926  0.2777 -0.1236  0.0529
17221TIP3    H173078   1.876   3.500   2.893  0.5601  1.6208 -0.8065
17221TIP3    H273079   1.787   3.622   2.908 -2.8054 -0.5205 -2.2562
17222TIP3   OH273080   5.357   3.028  17.147 -0.2035 -0.0286  0.1093
17222TIP3    H173081   5.310   3.094  17.198 -0.0229 -1.1870  1.8650
17222TIP3    H273082   5.419   2.990  17.209 -1.7689 -3.3329 -0.1060
17223TIP3   OH273083   3.374   1.747  16.279 -0.8694  0.4034  0.3659
17223TIP3    H173084   3.299   1.719  16.226 -1.6835  0.0115  1.6839
17223TIP3    H273085   3.396   1.671  16.332  2.0606 -0.3304 -1.6746
17224TIP3   OH273086   5.603   3.915  16.198  0.0458 -0.3179  0.0659
17224TIP3    H173087   5.607   3.998  16.245  2.1438 -0.6839  0.6080
17224TIP3    H273088   5.558   3.936  16.116 -3.1462  0.4562  1.8610
17225TIP3   OH273089   2.507   3.855   4.814 -0.0337  0.5756  0.0771
17225TIP3    H173090   2.420   3.845   4.854  0.4455 -0.7100  0.8467
17225TIP3    H273091   2.507   3.794   4.741  0.0971  0.8655 -0.1689
17226TIP3   OH273092   1.179   2.657  13.270 -0.2680  0.1099 -0.0649
17226TIP3    H173093   1.203   2.565  13.282 -0.2994  0.2959  1.8558
17226TIP3    H273094   1.201   2.676  13.179  0.7775 -1.4871 -0.1925
17227TIP3   OH273095   1.242   5.109   2.480 -0.6128 -0.0874 -0.3425
17227TIP3    H173096   1.323   5.141   2.520 -0.8264 -0.0578  0.0686
17227TIP3    H273097   1.181   5.100   2.553 -1.0213  0.0111 -0.6672
17228TIP3   OH273098   2.080   3.872   4.288  0.0084 -0.3210 -0.0356
17228TIP3    H173099   2.037   3.914   4.362 -1.5908 -2.1566  0.1398
17228TIP3    H273100   2.132   3.801   4.327 -1.3622 -1.7267 -0.6326
17229TIP3   OH273101   1.300   4.276   3.055  0.1766 -0.4667 -0.7535
17229TIP3    H173102   1.295   4.315   2.968 -0.7378 -0.0494 -0.5258
17229TIP3    H273103   1.231   4.210   3.057 -0.2646 -0.0075 -0.1311
17230TIP3   OH273104   3.327   4.283  16.567  0.0319 -0.8057  1.1117
17230TIP3    H173105   3.294   4.199  16.537 -0.7872 -0.1645  0.1632
17230TIP3    H273106   3.249   4.331  16.595 -0.0079  0.8819 -1.5165
17231TIP3   OH273107   5.613   4.808  12.144 -0.1259 -0.0627  0.5070
17231TIP3    H173108   5.561   4.849  12.213 -0.4846 -0.7574  0.6504
17231TIP3    H273109   5.697   4.855  12.146  1.3197 -2.3703  3.9146
17232TIP3   OH273110   2.425   3.710  12.413  0.5729 -0.0249 -0.8215
17232TIP3    H173111   2.444   3.679  12.502  1.0309  0.1908 -0.8441
17232TIP3    H273112   2.366   3.784  12.426 -0.9009 -1.1429 -0.7816
17233TIP3   OH273113   1.460   1.703  15.910 -0.1788 -0.2444 -0.1662
17233TIP3    H173114   1.366   1.685  15.911  0.1108 -1.8929  0.7755
17233TIP3    H273115   1.501   1.622  15.942  1.7079 -0.3895 -2.6178
17234TIP3   OH273116   5.417   3.919  13.751  0.4185  0.5153 -0.2001
17234TIP3    H173117   5.469   3.905  13.830  1.2286  0.3690 -0.7422
17234TIP3    H273118   5.412   3.832  13.710 -0.8432  0.3886  0.1877
17235TIP3   OH273119   6.690   1.696   4.111  0.1908 -0.6050  0.1311
17235TIP3    H173120   6.702   1.734   4.198  0.7607  0.7093 -0.4872
17235TIP3    H273121   6.655   1.608   4.127 -1.2494  0.1949  1.6299
17236TIP3   OH273122   6.524   4.997   5.270 -0.3836  0.3621 -0.0647
17236TIP3    H173123   6.471   4.981   5.347 -1.6167  1.2972 -0.6864
17236TIP3    H273124   6.556   5.087   5.281  2.3483 -0.6506  1.0081
17237TIP3   OH273125   4.154   3.021  15.838  0.1452  0.2941  0.2433
17237TIP3    H173126   4.063   3.045  15.853 -0.0105 -0.9080  1.3758
17237TIP3    H273127   4.150   2.949  15.775  0.4207  1.1403 -0.7736
17238TIP3   OH273128   5.847   2.777   4.046  0.5659 -0.1756  0.0059
17238TIP3    H173129   5.831   2.871   4.053  0.8276 -0.1996  1.1724
17238TIP3    H273130   5.782   2.746   3.983 -1.2003  0.3903  1.4544
17239TIP3   OH273131   6.727   0.826  12.028  0.1297 -0.0253 -0.3679
17239TIP3    H173132   6.796   0.878  11.988 -0.8256  0.1161 -1.9211
17239TIP3    H273133   6.645   0.867  11.999 -0.6358 -0.2934  1.2708
17240TIP3   OH273134   3.714   4.009   4.873 -0.6556 -0.0571  0.0538
17240TIP3    H173135   3.785   3.994   4.810 -0.4385 -2.0718  0.7059
17240TIP3    H273136   3.735   3.951   4.946 -2.5077 -0.0314  0.6484
17241TIP3   OH273137   2.512   2.267   4.806  0.1672  0.1218  0.2124
17241TIP3    H173138   2.564   2.277   4.886 -0.4196  2.8146  0.3250
17241TIP3    H273139   2.429   2.230   4.835  0.2499  0.3557  0.7477
17242TIP3   OH273140   1.753   3.265  15.136  0.4479 -0.0490  0.0145
17242TIP3    H173141   1.728   3.201  15.069  2.1919  0.2327 -0.9613
17242TIP3    H273142   1.842   3.290  15.113  0.2161  1.9005  1.0282
17243TIP3   OH273143   1.793   2.812  11.295  0.3210  0.2622 -0.1202
17243TIP3    H173144   1.764   2.848  11.379 -1.7157  0.7068 -0.9376
17243TIP3    H273145   1.769   2.879  11.231  2.6475  0.3329 -1.0097
17244TIP3   OH273146   1.242   6.051   5.345  0.4992  0.3054  0.0610
17244TIP3    H173147   1.276   5.965   5.369 -0.7346 -0.4507 -0.7479
17244TIP3    H273148   1.167   6.064   5.403  0.6787  0.8441  0.1798
17245TIP3   OH273149   2.619   2.971  13.239 -0.4683  0.3396 -0.2939
17245TIP3    H173150   2.617   2.999  13.148 -0.0701 -0.0070 -0.4095
17245TIP3    H273151   2.527   2.964  13.264 -0.6060 -0.9392 -1.0974
17246TIP3   OH273152   0.340   3.457   3.141  0.0533  0.1388  0.0963
17246TIP3    H173153   0.332   3.503   3.057  1.4733  0.1546 -0.0597
17246TIP3    H273154   0.347   3.365   3.117  0.3039  0.1291  0.2013
17247TIP3   OH273155   6.161   4.275   2.397  0.5105  0.3699 -0.2155
17247TIP3    H173156   6.115   4.191   2.396 -0.5046  0.8900  0.6277
17247TIP3    H273157   6.202   4.279   2.483  0.4290  0.7981 -0.1953
17248TIP3   OH273158   1.083   5.096   3.917 -0.4960  0.1814  0.0758
17248TIP3    H173159   1.133   5.033   3.969  1.3616 -0.7232 -2.5851
17248TIP3    H273160   0.994   5.063   3.917 -0.1500 -0.8052  1.1224
17249TIP3   OH273161   4.999   5.057  10.987  0.8641  0.2485 -0.5411
17249TIP3    H173162   4.930   5.123  10.985  0.0349 -0.6151 -0.7309
17249TIP3    H273163   5.054   5.077  10.911  0.6906  0.7780 -0.5345
17250TIP3   OH273164   0.245   4.139   3.914 -0.2516  0.0449  0.4032
17250TIP3    H173165   0.206   4.056   3.889  0.5243 -0.2424  0.1208
17250TIP3    H273166   0.317   4.152   3.852  0.5767  0.1940  1.3596
17251TIP3   OH273167   2.319   5.907  15.545  0.5280 -0.0373 -0.2735
17251TIP3    H173168   2.350   5.921  15.455 -0.5535 -1.1539 -0.8434
17251TIP3    H273169   2.242   5.964  15.553  0.1712 -0.5073 -0.3192
17252TIP3   OH273170   6.350   3.970   4.394  0.0739 -0.7695  0.2962
17252TIP3    H173171   6.407   3.901   4.429  0.8244 -1.0168 -1.3327
17252TIP3    H273172   6.372   4.047   4.446  1.5942 -0.9757  0.0213
17253TIP3   OH273173   0.423   6.724  15.667 -0.1325 -0.0211 -0.3794
17253TIP3    H173174   0.479   6.647  15.677  1.0201  0.5757 -1.8499
17253TIP3    H273175   0.425   6.766  15.753  1.7403 -0.0216 -0.3830
17254TIP3   OH273176   0.120   3.890  16.699 -0.3894  0.3910 -0.0670
17254TIP3    H173177   0.182   3.856  16.763 -0.9197 -0.4389  0.0193
17254TIP3    H273178   0.075   3.961  16.745 -0.0219  0.5083  0.1163
17255TIP3   OH273179   6.715   5.920   5.576  0.4420  0.1448 -0.2783
17255TIP3    H173180   6.728   5.890   5.666  0.3131  0.4535 -0.1586
17255TIP3    H273181   6.643   5.866   5.543  0.3332  0.1940 -0.1225
17256TIP3   OH273182   1.863   4.495  11.686 -0.5555  0.4323  0.0065
17256TIP3    H173183   1.784   4.442  11.674  0.4041 -1.1342  0.3415
17256TIP3    H273184   1.860   4.523  11.777 -0.0207 -0.8681  0.4468
17257TIP3   OH273185   6.210   3.563   4.266  0.0394 -0.0403  0.3741
17257TIP3    H173186   6.285   3.520   4.306 -0.8654 -0.3210  1.8288
17257TIP3    H273187   6.152   3.584   4.339  0.0728  2.9702 -0.3200
17258TIP3   OH273188   2.869   2.083  14.168 -0.5464 -0.0517 -0.2593
17258TIP3    H173189   2.836   2.085  14.258 -0.6293 -0.6511 -0.2697
17258TIP3    H273190   2.825   2.155  14.124 -1.6877 -0.7057 -0.2165
17259TIP3   OH273191   1.815   2.835  15.226 -0.1488  0.5929 -0.3190
17259TIP3    H173192   1.742   2.844  15.287 -0.5290  2.2255 -0.9513
17259TIP3    H273193   1.809   2.745  15.194 -1.1552  0.3357  0.5462
17260TIP3   OH273194   3.616   6.605  14.026  0.6816  0.0792 -0.2549
17260TIP3    H173195   3.646   6.541  13.962 -0.3048 -2.6905  1.8611
17260TIP3    H273196   3.697   6.636  14.069  1.1974  0.6773 -1.6021
17261TIP3   OH273197   6.115   6.105   5.347 -0.6934 -0.4357 -0.2001
17261TIP3    H173198   6.072   6.035   5.396 -0.8736  0.7126  1.3618
17261TIP3    H273199   6.062   6.183   5.365 -0.2810  0.1987 -1.5886
17262TIP3   OH273200   4.704   3.502  10.809  0.1887  0.0029  0.1570
17262TIP3    H173201   4.766   3.501  10.736 -0.3801 -0.1418 -0.3325
17262TIP3    H273202   4.718   3.586  10.851  0.5615  0.0674 -0.0946
17263TIP3   OH273203   0.606   6.554   4.962  0.3003  0.1813  0.5510
17263TIP3    H173204   0.601   6.641   4.923  0.2713 -0.1594 -0.2095
17263TIP3    H273205   0.539   6.554   5.030  0.1720  0.6833  0.4256
17264TIP3   OH273206   2.164   5.695  11.727  0.0522 -0.1504 -1.0066
17264TIP3    H173207   2.090   5.673  11.783  1.6025 -1.1561  0.7327
17264TIP3    H273208   2.140   5.780  11.689 -1.4231  0.1571  0.4933
17265TIP3   OH273209   0.894   3.780  13.160 -0.1422 -0.2175  0.0838
17265TIP3    H173210   0.921   3.787  13.068  0.1444 -1.6191  0.0317
17265TIP3    H273211   0.807   3.820  13.163  0.5785  1.4964 -0.4042
17266TIP3   OH273212   5.601   5.475  17.206 -0.4134 -0.6153 -0.9054
17266TIP3    H173213   5.556   5.447  17.285 -2.7055 -2.4824 -2.7193
17266TIP3    H273214   5.545   5.545  17.170 -0.2322 -0.8349 -1.6384
17267TIP3   OH273215   5.073   0.530  15.830  0.6997 -0.5381  0.1291
17267TIP3    H173216   5.152   0.505  15.784  0.3277 -0.9066 -0.3183
17267TIP3    H273217   5.056   0.620  15.802  1.0375 -0.4072  0.3394
17268TIP3   OH273218   0.658   6.327  16.584  0.6075 -0.0887  0.0472
17268TIP3    H173219   0.702   6.412  16.582  1.4549 -0.4666  1.3949
17268TIP3    H273220   0.707   6.274  16.522  2.2880 -0.5624  1.6578
17269TIP3   OH273221   2.336   6.210  11.849  0.5704  0.3501  0.0343
17269TIP3    H173222   2.247   6.175  11.861  0.2021  0.6098 -1.7313
17269TIP3    H273223   2.382   6.184  11.929 -0.1175 -2.7951 -0.4305
17270TIP3   OH273224   2.369   4.266   6.483  0.1019  0.1143 -0.9243
17270TIP3    H173225   2.378   4.353   6.444 -0.5845  0.8888  0.5732
17270TIP3    H273226   2.374   4.282   6.578 -0.8055 -1.3786 -0.6021
17271TIP3   OH273227   6.089   2.325  13.581 -0.0412  0.3758 -0.6830
17271TIP3    H173228   6.164   2.324  13.640 -0.0441 -0.8173 -0.6724
17271TIP3    H273229   6.118   2.275  13.504 -0.3013  1.2389 -1.3646
17272TIP3   OH273230   5.157   2.131  13.057  0.1197 -0.1942 -0.5510
17272TIP3    H173231   5.194   2.164  12.975 -1.4756  0.1824 -1.1513
17272TIP3    H273232   5.157   2.036  13.046  1.5264 -0.2655 -0.2293
17273TIP3   OH273233   2.711   4.412  14.118 -0.0088  0.1209 -0.3210
17273TIP3    H173234   2.686   4.459  14.039 -0.5733  1.1211  0.4287
17273TIP3    H273235   2.780   4.466  14.157 -1.8650  1.3615  1.4750
17274TIP3   OH273236   6.549   4.944  12.405  0.9641  0.0837  0.1270
17274TIP3    H173237   6.600   4.981  12.333 -0.5879 -0.0925 -1.1258
17274TIP3    H273238   6.477   5.006  12.418  0.2246 -0.7738  0.2865
17275TIP3   OH273239   4.910   1.662  12.525 -0.1739  0.1733 -0.4053
17275TIP3    H173240   4.966   1.648  12.601 -1.1152  0.9845  0.4752
17275TIP3    H273241   4.821   1.649  12.558 -0.5305 -1.2657 -1.8054
17276TIP3   OH273242   2.745   4.037   4.331  0.0278 -0.1153 -0.7402
17276TIP3    H173243   2.766   4.100   4.400  0.3876  0.0020 -0.9530
17276TIP3    H273244   2.650   4.039   4.325 -0.0095 -0.1385 -0.2336
17277TIP3   OH273245   3.952   5.207   0.882  0.1618 -0.0632 -0.3859
17277TIP3    H173246   3.979   5.299   0.886 -1.2128  0.3234  0.6089
17277TIP3    H273247   3.885   5.204   0.814 -0.5840 -0.0958  0.3344
17278TIP3   OH273248   6.482   2.654  11.167  0.1683 -0.5006  0.1464
17278TIP3    H173249   6.410   2.648  11.104 -0.7222 -1.8202  1.2039
17278TIP3    H273250   6.554   2.608  11.125 -0.5111 -1.6451  0.1785
17279TIP3   OH273251   5.224   2.854  11.159  0.1760  0.3742  0.6249
17279TIP3    H173252   5.194   2.789  11.095 -0.0574  1.9731 -0.9688
17279TIP3    H273253   5.154   2.920  11.161  1.1952  1.4807  0.8385
17280TIP3   OH273254   0.114   4.183   4.213 -0.6074  0.2775  0.0263
17280TIP3    H173255   0.135   4.133   4.134  1.5380 -0.5444  1.0532
17280TIP3    H273256   0.154   4.134   4.285 -0.7583  2.0570  1.4080
17281TIP3   OH273257   1.685   6.151   0.352  0.0275  0.3187 -1.2985
17281TIP3    H173258   1.628   6.086   0.393  1.8677 -0.1532  0.7233
17281TIP3    H273259   1.774   6.120   0.371  0.9668  2.6495 -1.5328
17282TIP3   OH273260   2.727   0.410   2.163 -0.4809  0.3634  0.2940
17282TIP3    H173261   2.823   0.408   2.169 -0.3377  2.8703 -0.0922
17282TIP3    H273262   2.709   0.446   2.076 -1.7089  1.7129  1.0632
17283TIP3   OH273263   4.731   2.681   4.104 -0.1327 -0.1599  0.5665
17283TIP3    H173264   4.693   2.609   4.154 -1.0095 -2.0592 -2.5323
17283TIP3    H273265   4.806   2.641   4.059  1.3969  1.7733  1.3121
17284TIP3   OH273266   6.033   2.252  14.044  0.5631  0.1930 -0.0101
17284TIP3    H173267   6.040   2.199  13.964  2.0999  2.3652 -1.4297
17284TIP3    H273268   5.970   2.320  14.022  0.7615  0.6307  0.7471
17285TIP3   OH273269   2.396   5.539   4.528  1.0724  0.1897  0.5676
17285TIP3    H173270   2.450   5.583   4.463 -0.7430 -1.4804 -2.2559
17285TIP3    H273271   2.417   5.446   4.518 -0.7165 -0.2825  0.9528
17286TIP3   OH273272   1.680   4.992  11.429 -0.0396  0.4362 -0.4209
17286TIP3    H173273   1.645   5.058  11.369 -0.1222  2.0473  1.3054
17286TIP3    H273274   1.775   5.007  11.428 -0.0513  0.5449 -0.0811
17287TIP3   OH273275   4.385   2.204  15.779  0.0690  0.1032  0.7357
17287TIP3    H173276   4.444   2.215  15.854 -1.6254  0.8732  2.0177
17287TIP3    H273277   4.318   2.142  15.809  0.0693 -0.6120 -0.6201
17288TIP3   OH273278   5.657   0.441  13.290  0.5929 -0.0880  0.0332
17288TIP3    H173279   5.604   0.505  13.242  1.5705  0.3888 -0.4445
17288TIP3    H273280   5.747   0.460  13.263  0.9170 -1.5636  0.0190
17289TIP3   OH273281   4.197   5.221  11.970 -0.2768 -0.5811 -0.1527
17289TIP3    H173282   4.189   5.131  12.001  0.2498 -0.5869 -0.0209
17289TIP3    H273283   4.234   5.213  11.882 -0.4995 -0.5039 -0.2556
17290TIP3   OH273284   3.461   1.955   0.041  0.6517 -0.3435  0.4509
17290TIP3    H173285   3.526   2.019   0.070 -0.6956  0.8790  0.8807
17290TIP3    H273286   3.378   1.987   0.076 -0.1621 -1.9994  0.1326
17291TIP3   OH273287   0.425   4.226   1.985 -0.4555  0.3538 -0.5356
17291TIP3    H173288   0.361   4.263   1.925 -1.5574 -0.6509 -0.0268
17291TIP3    H273289   0.509   4.240   1.943 -1.0376  1.4492 -1.3579
17292TIP3   OH273290   4.061   1.074  15.767 -0.1024  0.1988 -0.0433
17292TIP3    H173291   3.991   1.099  15.827  0.2788  1.6488 -0.1691
17292TIP3    H273292   4.033   1.109  15.682 -0.4839 -1.5474 -0.6948
17293TIP3   OH273293   2.197   4.417   2.733 -0.2448 -0.1344  0.1472
17293TIP3    H173294   2.230   4.496   2.689 -1.9124  0.2588 -0.4886
17293TIP3    H273295   2.275   4.364   2.749  0.8866  1.4749  0.2716
17294TIP3   OH273296   5.154   6.018   1.359  0.1243 -0.3402 -0.1933
17294TIP3    H173297   5.245   5.996   1.341 -0.1297 -1.0037 -0.6969
17294TIP3    H273298   5.149   6.113   1.346  1.1900  0.0271  1.8201
17295TIP3   OH273299   2.919   5.033   5.753  0.3444 -0.0972 -0.8191
17295TIP3    H173300   2.915   4.989   5.669  2.5522 -1.4072 -0.3055
17295TIP3    H273301   3.012   5.043   5.772 -0.0864  1.1377  0.9806
17296TIP3   OH273302   0.847   5.614  12.110 -0.7678  1.0369 -0.3050
17296TIP3    H173303   0.926   5.638  12.159 -1.7677  0.4561  1.7228
17296TIP3    H273304   0.776   5.659  12.157 -1.8539 -0.0423 -0.8638
17297TIP3   OH273305   0.289   5.975   0.137  0.1609 -0.0347 -0.2854
17297TIP3    H173306   0.220   5.942   0.195  1.4188 -1.6128  0.3563
17297TIP3    H273307   0.267   5.939   0.051 -1.0878  1.4097 -0.6232
17298TIP3   OH273308   4.873   1.739  14.425 -0.0596  0.5933 -0.5928
17298TIP3    H173309   4.890   1.812  14.364 -0.9473  2.8171  1.6453
17298TIP3    H273310   4.959   1.701  14.441  0.1493 -0.4019 -3.5227
17299TIP3   OH273311   1.213   0.685  12.166  0.1317  0.3046  0.2265
17299TIP3    H173312   1.174   0.608  12.124 -1.4299  0.6205  1.0358
17299TIP3    H273313   1.238   0.741  12.093 -1.1195  0.1629 -0.3389
17300TIP3   OH273314   4.227   4.444   2.354  0.0480 -1.0691 -0.4859
17300TIP3    H173315   4.145   4.396   2.359  0.2641 -1.4655 -0.7149
17300TIP3    H273316   4.269   4.428   2.439  0.0718 -1.2007 -0.5224
17301TIP3   OH273317   4.852   5.508   4.424  0.9492 -0.4189 -0.2014
17301TIP3    H173318   4.905   5.546   4.354 -0.6386  0.6921 -0.8651
17301TIP3    H273319   4.818   5.426   4.387 -0.2391  0.3746 -0.9638
17302TIP3   OH273320   5.568   3.550   5.230 -0.2971  0.6096 -0.4251
17302TIP3    H173321   5.526   3.557   5.316 -0.0748  0.4131 -0.2969
17302TIP3    H273322   5.636   3.617   5.232 -1.8895  2.3273 -1.4022
17303TIP3   OH273323   2.599   3.649  15.048 -0.1076 -0.3451 -0.4774
17303TIP3    H173324   2.505   3.661  15.034 -0.0332 -0.2238 -0.9176
17303TIP3    H273325   2.640   3.717  14.993  0.2803 -1.4136 -1.5709
17304TIP3   OH273326   2.821   4.555   1.455  0.4171  0.8408  0.2625
17304TIP3    H173327   2.879   4.630   1.461  1.4131  0.0841  0.4559
17304TIP3    H273328   2.733   4.592   1.462  0.8299  2.0786 -0.7164
17305TIP3   OH273329   4.647   6.171  16.634  0.6742 -0.6397  0.2242
17305TIP3    H173330   4.617   6.156  16.544  1.7121 -0.0139 -0.2367
17305TIP3    H273331   4.615   6.095  16.682 -1.2551 -0.2482 -0.3215
17306TIP3   OH273332   3.894   1.361   4.468  0.3431  0.1206  0.1649
17306TIP3    H173333   3.826   1.393   4.409  1.5554  3.2118  0.3021
17306TIP3    H273334   3.849   1.350   4.552  0.0376  2.8533  0.4508
17307TIP3   OH273335   3.809   5.947   0.079  0.1822 -0.1874 -0.6704
17307TIP3    H173336   3.822   5.853   0.083  1.1039 -0.0860 -0.8110
17307TIP3    H273337   3.777   5.963  -0.010  0.0603 -0.3669 -0.6583
17308TIP3   OH273338   0.482   6.096  15.962 -0.3631  0.1932 -0.4237
17308TIP3    H173339   0.424   6.144  15.903 -0.9340 -0.0752 -0.0807
17308TIP3    H273340   0.526   6.032  15.906 -0.5958  0.2157 -0.6330
17309TIP3   OH273341   0.125   6.752  15.092 -0.4620  0.7895  0.1842
17309TIP3    H173342   0.177   6.725  15.017 -0.2265  0.3093  0.5112
17309TIP3    H273343   0.181   6.814  15.140 -0.1848  0.2727  0.5361
17310TIP3   OH273344   4.266   3.616   3.327 -0.2152 -0.2859  0.8080
17310TIP3    H173345   4.216   3.670   3.388  0.0955  0.1123  0.7137
17310TIP3    H273346   4.301   3.545   3.381  1.3790  0.9259  1.4384
17311TIP3   OH273347   3.467   0.877  15.551  0.4705  0.0859 -0.3182
17311TIP3    H173348   3.413   0.858  15.474 -0.5169  1.5185 -0.0272
17311TIP3    H273349   3.539   0.931  15.517  0.1944  0.4739 -0.2978
17312TIP3   OH273350   3.379   1.341  15.203  0.1191  0.0861 -0.3495
17312TIP3    H173351   3.338   1.421  15.237  0.3970 -0.0486  0.3283
17312TIP3    H273352   3.365   1.345  15.109  0.3985  1.0962 -0.3646
17313TIP3   OH273353   0.392   5.501  10.577  0.0041  0.4793  0.1331
17313TIP3    H173354   0.344   5.508  10.494 -0.1414  0.9327  0.2495
17313TIP3    H273355   0.465   5.562  10.567 -0.4654  1.1395  0.6390
17314TIP3   OH273356   0.401   4.518   0.739  0.5964  0.4868 -0.4528
17314TIP3    H173357   0.369   4.555   0.657  0.2748  0.9700 -0.1095
17314TIP3    H273358   0.322   4.498   0.789  0.7206 -1.3635 -0.9242
17315TIP3   OH273359   4.670   1.138   5.238  0.2429 -0.5505  0.3976
17315TIP3    H173360   4.746   1.092   5.274 -0.3327 -1.4545  0.4852
17315TIP3    H273361   4.703   1.225   5.215  0.6551  0.1097  3.1386
17316TIP3   OH273362   0.294   4.476  14.419 -0.0280 -0.1934 -0.0688
17316TIP3    H173363   0.309   4.435  14.334  1.0641 -3.7014  1.5791
17316TIP3    H273364   0.199   4.484  14.426 -0.1009  0.9886 -1.9052
17317TIP3   OH273365   1.373   6.709   1.940 -0.4833 -0.4023  0.1462
17317TIP3    H173366   1.313   6.693   2.013 -0.2531 -0.8259  0.2439
17317TIP3    H273367   1.377   6.804   1.933 -1.4540 -0.3602 -0.1000
17318TIP3   OH273368   6.188   4.924   2.971 -0.2853 -0.2589  0.0223
17318TIP3    H173369   6.221   4.851   3.024 -0.3209 -0.7627 -0.6381
17318TIP3    H273370   6.093   4.913   2.972 -0.2753 -0.4063 -0.3260
17319TIP3   OH273371   6.740   4.825  11.182  0.0227  0.1491 -0.3705
17319TIP3    H173372   6.763   4.840  11.091  0.2397  0.8297 -0.2070
17319TIP3    H273373   6.663   4.767  11.178 -0.2664  0.5644 -0.9920
17320TIP3   OH273374   3.114   3.099   3.478 -0.5084  0.1277  0.2525
17320TIP3    H173375   3.073   3.057   3.402 -2.6905  1.2806  0.7130
17320TIP3    H273376   3.109   3.192   3.460 -1.6136  0.4670  2.0242
17321TIP3   OH273377   3.776   6.360  16.699 -0.2346  0.4249 -0.1634
17321TIP3    H173378   3.845   6.345  16.763  0.3418 -1.8042 -1.2212
17321TIP3    H273379   3.820   6.352  16.614 -1.7411 -1.0447 -0.8634
17322TIP3   OH273380   0.530   0.065  12.868 -0.5849 -0.2528 -0.4906
17322TIP3    H173381   0.487   0.066  12.954  0.7083  0.9780  0.1799
17322TIP3    H273382   0.517   0.154  12.834  1.0981  0.0771 -0.3894
17323TIP3   OH273383   3.435   0.223   5.678 -0.3998 -0.0742 -0.3775
17323TIP3    H173384   3.392   0.148   5.636 -1.4687 -0.5067  1.4130
17323TIP3    H273385   3.371   0.254   5.742  0.5358  1.5965 -0.2123
17324TIP3   OH273386   5.968   0.792   5.934 -0.8353  0.5624 -0.1396
17324TIP3    H173387   5.945   0.734   5.861 -1.8128  1.7114 -0.7925
17324TIP3    H273388   5.979   0.878   5.893  0.2726  0.9089  0.8437
17325TIP3   OH273389   1.527   5.975   5.189 -0.0376  0.0323  0.1759
17325TIP3    H173390   1.456   5.967   5.126 -0.4295 -0.9428  0.7261
17325TIP3    H273391   1.551   6.068   5.186  0.3873 -0.0969 -1.8640
17326TIP3   OH273392   4.439   4.158   0.318  0.6202 -0.0771 -0.3800
17326TIP3    H173393   4.343   4.160   0.324  0.4010 -3.1362 -1.4357
17326TIP3    H273394   4.467   4.111   0.396  1.0690 -1.0514 -1.1104
17327TIP3   OH273395   1.617   1.926  15.846  0.5787 -0.0819 -0.2077
17327TIP3    H173396   1.668   1.907  15.767  0.6195 -0.5517 -0.0711
17327TIP3    H273397   1.564   1.848  15.859 -0.4691  0.5510 -0.5630
17328TIP3   OH273398   1.317   0.510  11.858 -0.2782  0.0348  0.5239
17328TIP3    H173399   1.357   0.448  11.797 -1.2919 -0.0846 -0.0538
17328TIP3    H273400   1.325   0.595  11.815 -0.8241 -0.0225  0.2935
17329TIP3   OH273401   2.797   5.152  15.336  0.2209  0.2417  0.6212
17329TIP3    H173402   2.856   5.178  15.407 -1.8417  1.6552  1.9414
17329TIP3    H273403   2.830   5.197  15.259  0.9420  0.8898  1.2908
17330TIP3   OH273404   3.021   6.543   4.903 -0.3366  0.0208  0.3215
17330TIP3    H173405   3.090   6.608   4.895 -0.6202  0.2750 -0.0957
17330TIP3    H273406   3.040   6.498   4.985  0.0054  0.4602  0.4866
17331TIP3   OH273407   4.499   3.207  15.744 -0.0119 -0.5385 -0.0682
17331TIP3    H173408   4.541   3.139  15.692  0.6343 -0.5533  0.4538
17331TIP3    H273409   4.545   3.287  15.721  0.0685 -0.4938  0.2369
17332TIP3   OH273410   4.696   1.462  14.599 -0.2506  0.4341 -0.0013
17332TIP3    H173411   4.773   1.416  14.566 -0.1614 -0.3711  1.2915
17332TIP3    H273412   4.681   1.532  14.535  1.8592  0.9405 -0.0057
17333TIP3   OH273413   0.977   2.317  11.674 -0.1987 -0.6110  0.1664
17333TIP3    H173414   1.046   2.353  11.729 -0.4309 -1.5563  1.1026
17333TIP3    H273415   0.958   2.387  11.611  1.2189 -0.1409  0.2297
17334TIP3   OH273416   4.154   2.817   6.307 -0.4789 -0.0465 -0.2306
17334TIP3    H173417   4.098   2.891   6.281  1.1708  1.6154  0.7082
17334TIP3    H273418   4.167   2.768   6.226  0.5057  2.2054 -1.5538
17335TIP3   OH273419   4.154   0.824   0.012  0.2246  0.4326 -0.0590
17335TIP3    H173420   4.122   0.910  -0.018  0.7450  0.5944 -0.1548
17335TIP3    H273421   4.248   0.837   0.025  0.0552  0.3226  1.4608
17336TIP3   OH273422   2.709   1.553  11.819 -0.1922  0.1188 -0.5491
17336TIP3    H173423   2.632   1.545  11.874  0.5519 -0.3105  0.4581
17336TIP3    H273424   2.681   1.521  11.733 -1.0219 -0.3820 -0.0975
17337TIP3   OH273425   1.437   3.316  14.620 -0.0192  0.1810 -0.4991
17337TIP3    H173426   1.353   3.358  14.639 -0.3338 -1.1799  1.4867
17337TIP3    H273427   1.489   3.330  14.698  0.6820 -1.1114 -0.7016
17338TIP3   OH273428   4.922   4.143   2.769  0.2801  0.3347  0.1023
17338TIP3    H173429   4.944   4.119   2.679 -0.9302  0.7448 -0.3224
17338TIP3    H273430   4.997   4.114   2.821  0.9325 -0.0314 -1.0171
17339TIP3   OH273431   5.382   3.678   4.375  0.0292 -0.5181  0.6018
17339TIP3    H173432   5.312   3.737   4.345  0.7282  0.1314  0.2136
17339TIP3    H273433   5.460   3.707   4.327  0.4166 -1.6927  0.4846
17340TIP3   OH273434   5.824   4.883   1.945  1.0678 -0.0262 -0.1422
17340TIP3    H173435   5.846   4.942   2.018 -1.0490  0.4348  0.1822
17340TIP3    H273436   5.779   4.809   1.986  0.2720  0.0097 -0.9274
17341TIP3   OH273437   5.352   6.106   6.336  0.4679  0.9026 -0.1220
17341TIP3    H173438   5.346   6.013   6.314  0.0059  0.5424  1.3900
17341TIP3    H273439   5.411   6.109   6.411 -1.8074  1.4355  1.7589
17342TIP3   OH273440   5.486   6.672   4.062 -0.2967  0.0133  0.0528
17342TIP3    H173441   5.535   6.612   4.118 -0.1150  1.2637  1.2889
17342TIP3    H273442   5.552   6.732   4.028 -0.6122  0.1144 -0.3888
17343TIP3   OH273443   1.919   0.698   5.064 -0.4711 -0.2630  0.1724
17343TIP3    H173444   1.906   0.763   4.995 -3.7891 -1.8029 -0.8683
17343TIP3    H273445   1.837   0.649   5.066  0.8685 -2.6724  2.7528
17344TIP3   OH273446   0.257   3.614   3.361  0.2833 -0.5256  0.0452
17344TIP3    H173447   0.194   3.587   3.428  0.4943  0.2417  0.5775
17344TIP3    H273448   0.271   3.536   3.308 -0.7010 -0.8526  0.2479
17345TIP3   OH273449   1.963   2.872   0.391  0.0528  0.1792 -0.4549
17345TIP3    H173450   2.013   2.898   0.314 -1.4354  2.6579 -0.6840
17345TIP3    H273451   1.901   2.807   0.359 -0.9171  1.5831 -1.5160
17346TIP3   OH273452   2.831   3.296   4.275 -0.0878  0.3900 -0.6884
17346TIP3    H173453   2.776   3.325   4.348  0.0629  0.6875 -0.6913
17346TIP3    H273454   2.910   3.262   4.317 -0.9810 -1.6958 -0.5771
17347TIP3   OH273455   5.963   4.707  15.459 -0.3076 -0.4137 -0.7360
17347TIP3    H173456   5.921   4.649  15.396  0.0453 -0.0916 -1.2756
17347TIP3    H273457   5.910   4.699  15.538 -0.3039 -1.4165 -0.8183
17348TIP3   OH273458   5.841   1.239   2.336  0.1456 -0.4217  0.3090
17348TIP3    H173459   5.796   1.257   2.418  0.7390  1.7488  0.2332
17348TIP3    H273460   5.777   1.192   2.283 -1.3779  0.8985  0.8922
17349TIP3   OH273461   4.360   0.142  12.773  0.0266  0.4052 -0.1470
17349TIP3    H173462   4.453   0.164  12.765  0.7541 -1.8921  0.9761
17349TIP3    H273463   4.343   0.145  12.867 -1.3342  1.7642 -0.4038
17350TIP3   OH273464   3.370   4.713   4.282  0.2753  0.0819  0.1255
17350TIP3    H173465   3.451   4.740   4.326 -0.4676 -0.4673  1.9138
17350TIP3    H273466   3.396   4.642   4.225  1.0311 -0.3095  0.9321
17351TIP3   OH273467   4.226   5.241   0.645  0.1219  0.2267 -0.2499
17351TIP3    H173468   4.178   5.233   0.562  1.9574 -1.5214 -1.2312
17351TIP3    H273469   4.174   5.191   0.707 -1.9097  2.5209  0.0740
17352TIP3   OH273470   5.041   5.496   2.339 -0.5890 -0.5324  0.1861
17352TIP3    H173471   5.083   5.420   2.298  0.3250  1.8994 -3.9023
17352TIP3    H273472   5.114   5.550   2.370 -1.0882 -0.0907  0.6055
17353TIP3   OH273473   3.002   4.610   5.678  0.5459  0.1609  0.1443
17353TIP3    H173474   3.000   4.695   5.635  0.5678  1.1125  1.9022
17353TIP3    H273475   3.089   4.575   5.659  0.5225  0.4990 -0.6250
17354TIP3   OH273476   6.513   3.990  11.688 -0.1953 -0.4350 -0.0276
17354TIP3    H173477   6.607   4.000  11.705 -0.1493  0.1976 -0.6037
17354TIP3    H273478   6.473   3.988  11.774  0.4756 -2.1657  0.2813
17355TIP3   OH273479   0.716   3.599  12.474  0.2169 -0.1014  0.1551
17355TIP3    H173480   0.800   3.630  12.508  0.0566 -0.7076  1.1299
17355TIP3    H273481   0.651   3.657  12.512 -0.0002 -1.0324  1.2426
17356TIP3   OH273482   3.842   0.973   3.148  0.8709 -0.2587  0.5023
17356TIP3    H173483   3.911   1.039   3.162 -0.4491  0.9532  1.5776
17356TIP3    H273484   3.767   1.023   3.118  0.0581 -1.3975  0.5859
17357TIP3   OH273485   5.527   4.058   2.022  0.1403 -0.5384  0.1658
17357TIP3    H173486   5.498   4.149   2.029 -0.8486 -0.7289 -1.0148
17357TIP3    H273487   5.498   4.017   2.103  1.3103  0.3591  1.0719
17358TIP3   OH273488   4.031   5.696  12.039 -0.2411  0.1913  0.3221
17358TIP3    H173489   4.029   5.601  12.054 -1.6604  0.1347 -0.0869
17358TIP3    H273490   3.999   5.707  11.949 -1.5787  1.1274  0.8764
17359TIP3   OH273491   6.748   2.937   1.418  0.0325 -0.1655  0.5230
17359TIP3    H173492   6.744   2.990   1.339 -0.7274  0.7246  1.1384
17359TIP3    H273493   6.839   2.908   1.423 -0.1568 -1.1731 -1.2577
17360TIP3   OH273494   4.510   5.287  17.079 -0.1662 -0.3097  0.4402
17360TIP3    H173495   4.432   5.338  17.101 -0.2780  0.9812 -2.5268
17360TIP3    H273496   4.576   5.352  17.056  0.5282 -1.4414 -0.8932
17361TIP3   OH273497   1.967   6.780  14.093  0.8508  0.3179  0.8759
17361TIP3    H173498   1.961   6.687  14.112  1.6630  0.3633  1.4107
17361TIP3    H273499   1.876   6.809  14.081  0.4890 -0.2501  2.1072
17362TIP3   OH273500   6.290   6.560   2.913  0.3538 -0.0374  0.0035
17362TIP3    H173501   6.325   6.646   2.935  0.4059  0.2622 -1.1584
17362TIP3    H273502   6.354   6.498   2.948  1.0920  0.4525 -0.4380
17363TIP3   OH273503   4.957   4.107   2.482  0.1976  0.0385  0.0453
17363TIP3    H173504   5.037   4.149   2.450  1.6100 -1.8867  0.8742
17363TIP3    H273505   4.916   4.072   2.403  1.5892 -1.2366 -0.1591
17364TIP3   OH273506   4.149   5.508  16.816 -0.7527  0.1229 -0.0149
17364TIP3    H173507   4.124   5.474  16.730  1.9762 -0.0742 -0.8266
17364TIP3    H273508   4.102   5.453  16.879 -1.8606 -0.5247 -1.3684
17365TIP3   OH273509   4.780   0.056   5.949 -0.4367 -0.6518  0.5593
17365TIP3    H173510   4.732   0.053   5.866 -1.0777  0.6894  0.8614
17365TIP3    H273511   4.871   0.037   5.925 -0.5510  0.0798 -0.5053
17366TIP3   OH273512   4.798   4.758  16.733 -0.0295  0.1858  0.4102
17366TIP3    H173513   4.764   4.734  16.820 -1.1512 -2.0986 -0.5810
17366TIP3    H273514   4.723   4.798  16.689 -0.6674 -2.0739 -0.7232
17367TIP3   OH273515   1.913   2.502   6.003  0.4741 -0.2249 -0.3419
17367TIP3    H173516   1.864   2.509   5.921  0.9080  0.7407 -0.5391
17367TIP3    H273517   1.934   2.409   6.012  0.6132 -0.3076 -1.4379
17368TIP3   OH273518   0.074   6.162  14.236  0.5706  0.8841  0.5812
17368TIP3    H173519  -0.007   6.148  14.188  1.1530 -0.1578 -0.1379
17368TIP3    H273520   0.105   6.248  14.207  0.8791  0.3003 -0.9008
17369TIP3   OH273521   5.107   1.766   0.215  0.2934  0.6331 -0.1205
17369TIP3    H173522   5.056   1.757   0.135 -1.0127 -0.7339  0.8015
17369TIP3    H273523   5.174   1.697   0.208  1.1832  1.5359 -0.7147
17370TIP3   OH273524   6.069   1.616  17.020  0.0190 -0.9288  0.2996
17370TIP3    H173525   6.126   1.595  16.946 -1.3531 -2.5778 -0.3372
17370TIP3    H273526   5.998   1.668  16.981  0.0289 -0.5912  0.7284
17371TIP3   OH273527   4.260   5.256  15.156  0.6960 -0.3612  0.1857
17371TIP3    H173528   4.252   5.164  15.183 -0.5950 -0.5129 -0.6133
17371TIP3    H273529   4.341   5.260  15.106  0.7519 -1.0698  0.2112
17372TIP3   OH273530   2.422   1.272   4.168  0.6575 -0.3268  0.3750
17372TIP3    H173531   2.406   1.180   4.148  0.4229  0.0331 -1.2224
17372TIP3    H273532   2.359   1.292   4.238  0.3951 -1.2486  0.4226
17373TIP3   OH273533   0.165   1.072   3.799 -0.3045 -0.1774 -0.4893
17373TIP3    H173534   0.081   1.094   3.757  0.3814  1.0961 -1.2777
17373TIP3    H273535   0.154   1.097   3.890 -1.0246 -0.7189 -0.4209
17374TIP3   OH273536   2.004   4.062  15.890 -0.2574  0.3234  0.2550
17374TIP3    H173537   2.012   4.065  15.794 -0.0048  0.5744  0.2832
17374TIP3    H273538   2.064   4.129  15.921 -0.8340  0.7107  0.5612
17375TIP3   OH273539   6.680   2.941   1.714  0.3366  0.6025  0.4841
17375TIP3    H173540   6.711   2.922   1.626 -0.3612  1.1370  0.1167
17375TIP3    H273541   6.592   2.975   1.702  0.2250  0.6562  1.3919
17376TIP3   OH273542   5.794   5.623  16.654  0.3469 -0.1396 -0.0261
17376TIP3    H173543   5.783   5.718  16.648 -2.4721 -0.2365  1.6755
17376TIP3    H273544   5.815   5.607  16.747  1.0981 -1.1884 -0.3551
17377TIP3   OH273545   2.272   6.720   4.186 -0.1424 -0.1837 -0.7462
17377TIP3    H173546   2.248   6.697   4.096 -1.8659 -1.9200  0.1076
17377TIP3    H273547   2.227   6.802   4.203  1.2137  0.8415 -1.8305
17378TIP3   OH273548   4.378   3.412   3.477  0.1241  0.4419 -0.1841
17378TIP3    H173549   4.363   3.322   3.506  0.6816  0.1421 -0.8030
17378TIP3    H273550   4.404   3.458   3.556  1.2356 -0.2765 -0.1102
17379TIP3   OH273551   4.580   6.076  11.411 -0.1459 -0.1916  0.0392
17379TIP3    H173552   4.539   6.145  11.464 -0.5817  0.4225 -1.0774
17379TIP3    H273553   4.515   6.005  11.410  0.2349 -0.5740  1.0483
17380TIP3   OH273554   3.831   3.563  15.443 -0.9160  0.0245  0.2159
17380TIP3    H173555   3.782   3.623  15.386 -0.1235  0.1776 -0.3330
17380TIP3    H273556   3.875   3.621  15.505 -0.7927 -0.0507  0.1978
17381TIP3   OH273557   4.929   3.901  10.822 -0.4314  0.2865 -0.2253
17381TIP3    H173558   4.912   3.871  10.733 -0.2340 -0.7031  0.0536
17381TIP3    H273559   4.940   3.820  10.872 -3.1883  0.6812  1.2371
17382TIP3   OH273560   0.232   5.204   2.816  0.0912  0.1067  0.1289
17382TIP3    H173561   0.216   5.223   2.723  1.2734  2.4518  0.3238
17382TIP3    H273562   0.184   5.272   2.862  3.4410  2.0744  0.9862
17383TIP3   OH273563   5.333   4.374   6.128 -0.4496  0.1268 -0.4890
17383TIP3    H173564   5.404   4.382   6.064 -0.9786  0.7633 -0.9989
17383TIP3    H273565   5.378   4.367   6.212  0.2341 -0.0068 -0.8613
17384TIP3   OH273566   2.100   5.744  16.081 -0.0391 -0.2568 -0.2819
17384TIP3    H173567   2.159   5.808  16.041 -0.3797 -0.2756 -0.8363
17384TIP3    H273568   2.013   5.784  16.074  0.0659  0.5604  2.1191
17385TIP3   OH273569   1.391   4.469  14.690  0.4293 -0.5832  0.4691
17385TIP3    H173570   1.438   4.552  14.682  0.6681 -0.5712  1.7992
17385TIP3    H273571   1.299   4.492  14.679  0.4459 -0.0499  1.4013
17386TIP3   OH273572   3.903   5.480  17.042  0.1185 -0.0576  0.3579
17386TIP3    H173573   3.911   5.541  16.968  0.6400 -1.8603 -1.1630
17386TIP3    H273574   3.813   5.449  17.037 -0.2881  0.8988  1.4222
17387TIP3   OH273575   6.140   1.888   3.774 -0.1922 -0.0549 -0.3669
17387TIP3    H173576   6.186   1.901   3.857  0.3312  0.4592 -0.7302
17387TIP3    H273577   6.168   1.801   3.744 -2.3171 -1.3891  1.1909
17388TIP3   OH273578   1.502   3.421  13.158 -0.2781  0.8140 -0.4897
17388TIP3    H173579   1.554   3.426  13.078  0.3387  1.2435 -0.0770
17388TIP3    H273580   1.523   3.335  13.194  0.5350  1.1627 -0.0878
17389TIP3   OH273581   3.310   2.705  16.534 -0.4302  0.2412 -0.5348
17389TIP3    H173582   3.373   2.776  16.548 -0.8638  0.6666 -0.6849
17389TIP3    H273583   3.254   2.737  16.462  0.0666 -0.7340 -1.3754
17390TIP3   OH273584   0.243   0.847   4.538 -0.2512 -0.6222  0.2704
17390TIP3    H173585   0.303   0.799   4.482 -0.6728 -1.6370  0.6568
17390TIP3    H273586   0.207   0.916   4.482 -1.6687 -2.4183 -1.1440
17391TIP3   OH273587   1.199   2.939   0.024  0.0461  0.2167 -0.1695
17391TIP3    H173588   1.292   2.916   0.014  0.3817  0.0781  2.6394
17391TIP3    H273589   1.198   3.004   0.093 -1.8800  1.1786 -1.0414
17392TIP3   OH273590   3.197   1.704  13.525 -0.4760  0.7507 -0.5826
17392TIP3    H173591   3.174   1.795  13.505 -1.8260 -0.0453 -2.9986
17392TIP3    H273592   3.129   1.652  13.482  0.2626 -1.4297  0.7315
17393TIP3   OH273593   0.694   0.695  15.027  0.5715  0.2658 -0.0139
17393TIP3    H173594   0.668   0.608  15.058  1.0623  0.2568  0.3780
17393TIP3    H273595   0.723   0.741  15.105 -0.3824  1.0450 -0.1062
17394TIP3   OH273596   3.706   6.520   5.290  0.2564 -0.0974 -0.0881
17394TIP3    H173597   3.715   6.512   5.385 -0.1447 -1.6552 -0.1616
17394TIP3    H273598   3.627   6.471   5.269  1.1094 -0.9744 -1.3758
17395TIP3   OH273599   4.260   0.478  12.203  0.1593 -0.0674 -0.0705
17395TIP3    H173600   4.333   0.534  12.177  0.3396 -0.4775 -0.4548
17395TIP3    H273601   4.300   0.413  12.262 -0.0311  0.1400  0.2951
17396TIP3   OH273602   6.568   1.790  12.594 -0.4624 -0.3026 -0.1011
17396TIP3    H173603   6.484   1.778  12.551 -0.3682  1.0231 -0.6987
17396TIP3    H273604   6.555   1.866  12.652 -0.3440 -1.5180  1.6051
17397TIP3   OH273605   4.111   4.832   2.762 -0.7803  0.0598  0.8072
17397TIP3    H173606   4.036   4.879   2.798 -0.5930  0.6448  0.4476
17397TIP3    H273607   4.171   4.900   2.732 -0.3938 -0.4023  0.4995
17398TIP3   OH273608   4.638   2.040  14.501 -0.0591 -0.5562 -0.1202
17398TIP3    H173609   4.685   2.095  14.564 -0.6279  0.3313 -0.4562
17398TIP3    H273610   4.676   2.063  14.416 -0.6156 -0.3430 -0.3144
17399TIP3   OH273611   2.168   0.600  14.966 -0.0916  0.6988  0.3261
17399TIP3    H173612   2.158   0.693  14.986  0.4723  0.8432 -0.0342
17399TIP3    H273613   2.142   0.592  14.874  1.1706  0.7589 -0.0621
17400TIP3   OH273614   6.544   4.102  10.670 -0.3755  0.3806  0.7944
17400TIP3    H173615   6.636   4.081  10.661 -0.3686  0.1734  1.3236
17400TIP3    H273616   6.503   4.066  10.592  0.2829  2.2608 -0.4797
17401TIP3   OH273617   4.883   1.436  12.876  0.4172  0.2630  0.4290
17401TIP3    H173618   4.931   1.359  12.907  1.5170 -0.3029 -2.4153
17401TIP3    H273619   4.951   1.502  12.864 -0.3824  1.3939  1.8290
17402TIP3   OH273620   0.570   2.897  13.343  0.1699 -0.4351 -0.2436
17402TIP3    H173621   0.503   2.957  13.377 -0.2368 -0.5328 -0.8544
17402TIP3    H273622   0.521   2.834  13.290  0.7389 -0.5499 -0.6401
17403TIP3   OH273623   1.706   5.039  14.319  0.0069 -0.0294  0.1085
17403TIP3    H173624   1.746   5.096  14.253  0.4330  2.8861  2.6645
17403TIP3    H273625   1.637   4.993  14.272  1.1929  0.7830 -2.6577
17404TIP3   OH273626   4.263   5.143  12.967  0.6930 -0.2994  0.1231
17404TIP3    H173627   4.269   5.165  12.874 -0.5823  0.2118  0.1403
17404TIP3    H273628   4.187   5.085  12.973  0.3689  0.1823  0.9146
17405TIP3   OH273629   1.666   6.645   2.514  0.2800  0.0329  0.0342
17405TIP3    H173630   1.649   6.651   2.420  1.7995 -0.9961 -0.3527
17405TIP3    H273631   1.758   6.618   2.520 -0.6362 -3.2170  1.7130
17406TIP3   OH273632   2.236   0.203   5.385  0.5319  0.2100  0.4203
17406TIP3    H173633   2.258   0.202   5.292  0.7852  0.3092  0.4758
17406TIP3    H273634   2.320   0.216   5.429  0.0985  3.2612  0.5428
17407TIP3   OH273635   5.995   5.668   4.907 -0.4240  0.1560  0.1427
17407TIP3    H173636   6.026   5.758   4.909 -0.6195  0.4214 -3.3889
17407TIP3    H273637   6.070   5.617   4.876 -0.5979 -0.8051  1.2130
17408TIP3   OH273638   6.239   4.136  15.565  0.6252 -0.4734 -0.1784
17408TIP3    H173639   6.324   4.115  15.527  0.4529 -1.8206  0.1340
17408TIP3    H273640   6.259   4.180  15.647  0.9984  0.6787 -0.8552
17409TIP3   OH273641   4.802   4.533  12.098 -0.2479  0.0725 -0.2068
17409TIP3    H173642   4.809   4.587  12.177  1.2279  0.3641 -0.5064
17409TIP3    H273643   4.824   4.592  12.026  0.4315 -0.6709 -0.6288
17410TIP3   OH273644   5.042   0.949   5.563 -0.1431  0.0843 -0.8693
17410TIP3    H173645   5.109   0.881   5.553  0.1702  0.5801 -2.3906
17410TIP3    H273646   5.053   1.005   5.486 -0.5552  1.7262  0.2083
17411TIP3   OH273647   1.651   5.714  12.412  0.1977  0.2837  0.1833
17411TIP3    H173648   1.559   5.735  12.426  0.3767  0.5206  1.0558
17411TIP3    H273649   1.669   5.743  12.323 -0.5190  0.4171  0.0765
17412TIP3   OH273650   3.838   0.537  11.429  0.4238  0.2433 -0.2125
17412TIP3    H173651   3.872   0.583  11.352 -0.0300  0.6289 -0.1872
17412TIP3    H273652   3.765   0.485  11.395  0.2477  0.3837 -0.0524
17413TIP3   OH273653   2.344   0.999  13.000  0.2643  0.0361  0.2791
17413TIP3    H173654   2.329   0.921  13.054 -1.0129  1.0595  1.4654
17413TIP3    H273655   2.368   0.964  12.914  2.3568 -1.6436  1.4547
17414TIP3   OH273656   3.952   3.736  15.624  0.0343  0.5291 -0.0766
17414TIP3    H173657   3.937   3.744  15.718  1.6630 -2.4760  0.5488
17414TIP3    H273658   3.979   3.824  15.596 -1.0934  1.6386  2.0694
17415TIP3   OH273659   0.560   5.149   2.403 -0.3521 -0.1072  0.1937
17415TIP3    H173660   0.543   5.187   2.317 -1.1632  1.3712  0.9612
17415TIP3    H273661   0.603   5.219   2.452 -1.2849 -0.3918  1.4689
17416TIP3   OH273662   5.642   5.280  14.921  0.4713  0.1260  0.3113
17416TIP3    H173663   5.658   5.289  14.827 -0.8460  0.5221  0.1039
17416TIP3    H273664   5.639   5.185  14.936  1.6143  0.0487  0.1402
17417TIP3   OH273665   5.029   5.216  15.636 -0.1556  0.5009 -0.4341
17417TIP3    H173666   5.111   5.238  15.591  0.1436 -0.2335 -0.2695
17417TIP3    H273667   5.041   5.249  15.725 -0.9500  2.4167 -0.9770
17418TIP3   OH273668   2.832   2.395   4.827 -0.5480  0.5733 -0.2407
17418TIP3    H173669   2.895   2.324   4.811 -1.2743  0.2707 -1.9878
17418TIP3    H273670   2.784   2.403   4.745  1.0295  4.6693 -0.9895
17419TIP3   OH273671   1.575   4.285   1.384  0.1824  0.3534 -0.0047
17419TIP3    H173672   1.496   4.273   1.331  0.2255 -2.5968  0.4366
17419TIP3    H273673   1.624   4.353   1.339 -2.0512  1.4965 -0.9097
17420TIP3   OH273674   0.002   5.346  14.026 -0.3234 -0.6452 -0.1125
17420TIP3    H173675   0.020   5.437  14.000 -1.5406 -0.5031 -0.5433
17420TIP3    H273676   0.075   5.322  14.083  0.8083  0.0841 -1.2198
17421TIP3   OH273677   3.839   5.536  15.990 -0.4626 -0.5112 -0.6181
17421TIP3    H173678   3.780   5.594  16.039 -0.7746 -0.4862 -1.0169
17421TIP3    H273679   3.861   5.466  16.051 -0.0347  0.0630 -0.1120
17422TIP3   OH273680   5.224   2.976   4.675  0.1390 -0.1640 -0.8594
17422TIP3    H173681   5.319   2.976   4.659  0.3268  1.7721  0.0112
17422TIP3    H273682   5.212   2.911   4.744  1.4125  2.0425  1.6348
17423TIP3   OH273683   1.964   2.546  15.967 -0.2504 -0.2644  0.0112
17423TIP3    H173684   1.898   2.548  15.898 -1.3417  1.2431  1.0246
17423TIP3    H273685   1.931   2.480  16.029 -0.0758 -0.5001 -0.1439
17424TIP3   OH273686   2.057   1.785  12.370 -0.0923  0.5292 -0.3527
17424TIP3    H173687   2.093   1.730  12.300 -0.3615  1.2694 -1.0860
17424TIP3    H273688   2.123   1.780  12.439  0.9477  1.0422 -1.2722
17425TIP3   OH273689   3.941   1.609  11.210 -0.0660  0.0133  0.1105
17425TIP3    H173690   3.899   1.671  11.150 -2.2496 -0.2957  1.2318
17425TIP3    H273691   3.948   1.528  11.160  0.6309  0.4978 -0.5931
17426TIP3   OH273692   6.591   2.842  15.836 -0.4034  0.6518  0.0834
17426TIP3    H173693   6.676   2.829  15.794 -0.9039  0.7337 -0.9912
17426TIP3    H273694   6.527   2.816  15.770 -1.2303 -1.8987  1.7095
17427TIP3   OH273695   6.054   5.551  16.497  0.0453 -0.3318 -0.1499
17427TIP3    H173696   6.080   5.510  16.579 -1.1633  0.6233  0.7720
17427TIP3    H273697   6.129   5.604  16.471  0.8111 -1.4273 -0.2169
17428TIP3   OH273698   2.610   3.704   2.099 -0.4277 -1.1216 -0.1842
17428TIP3    H173699   2.677   3.669   2.158  0.7980  1.6748  0.2390
17428TIP3    H273700   2.634   3.669   2.013 -0.2030 -2.4972  0.4086
17429TIP3   OH273701   5.968   5.718   0.363  0.7584  0.1414 -0.1050
17429TIP3    H173702   6.051   5.737   0.321  0.4736 -0.0160 -0.7449
17429TIP3    H273703   5.919   5.666   0.299  1.1390 -1.9725  1.1972
17430TIP3   OH273704   6.040   5.761  15.097  0.3201 -0.4717 -0.2541
17430TIP3    H173705   6.085   5.727  15.020  1.2148 -0.5939  0.3096
17430TIP3    H273706   6.109   5.773  15.162 -0.1406  1.3426 -0.0435
17431TIP3   OH273707   4.045   5.519  10.971 -0.0730 -0.6100 -0.4819
17431TIP3    H173708   4.032   5.453  10.902 -3.4210  2.0613 -2.7847
17431TIP3    H273709   4.070   5.598  10.924 -3.8147  1.6975  0.9634
17432TIP3   OH273710   3.307   6.757   5.575 -0.2429  0.5349  0.8144
17432TIP3    H173711   3.379   6.705   5.610 -1.4944 -1.8165  0.1195
17432TIP3    H273712   3.230   6.702   5.587 -1.4636  1.7268 -1.0539
17433TIP3   OH273713   5.731   4.947  15.029  0.6482 -0.2186  0.1419
17433TIP3    H173714   5.678   4.868  15.021  0.8309 -0.2673 -0.6983
17433TIP3    H273715   5.820   4.920  15.006  0.6882  0.2483 -0.2869
17434TIP3   OH273716   1.267   1.636  10.758 -0.0734  0.0082 -0.3920
17434TIP3    H173717   1.251   1.565  10.819  0.1746  0.8649  0.6989
17434TIP3    H273718   1.198   1.627  10.692  0.5347 -1.8148 -0.8379
17435TIP3   OH273719   4.996   6.555  15.005 -0.0685  0.3731  0.4918
17435TIP3    H173720   4.935   6.622  15.037  1.1323  1.4866  0.5082
17435TIP3    H273721   5.060   6.603  14.953  1.0279 -0.7001  0.7946
17436TIP3   OH273722   6.211   5.590  12.667  0.1476  0.6516  0.3781
17436TIP3    H173723   6.233   5.565  12.577  0.0603  0.4788  0.4042
17436TIP3    H273724   6.131   5.642  12.659 -1.8527 -2.1996  0.6478
17437TIP3   OH273725   1.488   0.943  13.758 -0.3961 -0.0254  0.2193
17437TIP3    H173726   1.483   1.021  13.814  0.3521  0.4108 -0.3129
17437TIP3    H273727   1.570   0.952  13.711  0.1467 -1.5842  0.7982
17438TIP3   OH273728   3.803   3.085  13.566 -0.8989 -0.8205  0.0388
17438TIP3    H173729   3.869   3.027  13.528 -0.0082 -0.1198  0.4530
17438TIP3    H273730   3.737   3.094  13.498 -0.0669 -0.7445 -0.7894
17439TIP3   OH273731   6.647   0.055   1.540  0.2048  0.2604 -0.0811
17439TIP3    H173732   6.696   0.130   1.573  2.5444 -1.2979  0.2838
17439TIP3    H273733   6.608   0.015   1.618 -0.0989  0.4558 -0.1311
17440TIP3   OH273734   2.970   4.150  14.726 -0.0870  0.1243  0.0891
17440TIP3    H173735   3.012   4.074  14.767 -0.3326  0.5568  1.1690
17440TIP3    H273736   2.974   4.218  14.793  0.1143  1.0682 -0.8606
17441TIP3   OH273737   1.994   4.157   1.337 -0.1448 -0.3230  0.2488
17441TIP3    H173738   2.054   4.229   1.322  2.3787 -2.5071 -1.0724
17441TIP3    H273739   1.944   4.182   1.415  0.9596  2.5235  0.1552
17442TIP3   OH273740   5.677   1.463   4.747  0.3716  0.1091 -0.2590
17442TIP3    H173741   5.588   1.446   4.779 -0.0577 -0.6031 -1.7165
17442TIP3    H273742   5.694   1.391   4.687  1.4021  0.9923 -1.0563
17443TIP3   OH273743   1.783   4.255  14.563 -0.4540  0.3519  0.3346
17443TIP3    H173744   1.733   4.296  14.634 -0.0805 -0.1406  0.8918
17443TIP3    H273745   1.864   4.225  14.605  1.0790  2.5594 -0.8736
17444TIP3   OH273746   1.468   2.907  16.027 -0.0752 -0.0606 -0.3284
17444TIP3    H173747   1.426   2.828  15.992  0.5031 -1.0798  1.1999
17444TIP3    H273748   1.504   2.880  16.111  1.2669  1.5149 -0.3564
17445TIP3   OH273749   5.439   4.740  10.761 -0.0414  0.0259  0.5116
17445TIP3    H173750   5.407   4.674  10.699  0.1980 -0.5085  0.9419
17445TIP3    H273751   5.366   4.800  10.772  0.1639  0.5611 -0.8560
17446TIP3   OH273752   2.449   1.400   2.723  0.0115 -0.1373 -0.0585
17446TIP3    H173753   2.455   1.412   2.818 -0.9304  0.6021 -0.0779
17446TIP3    H273754   2.428   1.307   2.712 -3.6682  0.4171  0.7194
17447TIP3   OH273755   2.055   5.359   4.695 -0.2073 -0.1264  0.4201
17447TIP3    H173756   2.008   5.286   4.656 -2.8733  0.3942  2.4047
17447TIP3    H273757   2.076   5.415   4.620 -1.8487 -0.9182 -0.7148
17448TIP3   OH273758   2.857   1.890  12.795  0.1019  0.4343 -0.0840
17448TIP3    H173759   2.907   1.809  12.810 -1.0821  0.0245  2.1810
17448TIP3    H273760   2.781   1.862  12.744  0.4864  0.4447 -0.6767
17449TIP3   OH273761   6.229   4.605  13.709 -0.0142 -0.4160  0.2228
17449TIP3    H173762   6.248   4.515  13.732  1.7897 -0.4069 -1.0227
17449TIP3    H273763   6.142   4.602  13.669 -1.1482 -1.1268  2.5569
17450TIP3   OH273764   1.373   6.698  10.351 -0.4960 -0.1441 -0.2170
17450TIP3    H173765   1.296   6.692  10.407  0.2609 -0.8810  0.7693
17450TIP3    H273766   1.439   6.645  10.395 -0.0425 -1.2369 -2.1089
17451TIP3   OH273767   4.260   6.188   2.956  0.2114  0.2153  0.1377
17451TIP3    H173768   4.319   6.113   2.943  0.2774  0.5867 -1.8738
17451TIP3    H273769   4.211   6.196   2.874  0.6017  2.7232  0.0653
17452TIP3   OH273770   2.089   2.502  13.570 -0.3765  0.4878 -0.5655
17452TIP3    H173771   2.146   2.534  13.500  0.9085 -0.0370  0.1877
17452TIP3    H273772   2.086   2.407  13.557 -0.6703  0.4570 -0.2988
17453TIP3   OH273773   6.015   3.049  10.630 -0.2566  0.4691 -0.0381
17453TIP3    H173774   6.101   3.008  10.637  0.4875  2.0490  0.4893
17453TIP3    H273775   6.033   3.137  10.597 -1.8702  0.1562 -1.9782
17454TIP3   OH273776   3.288   6.235   2.489 -0.5615 -0.1646  0.6500
17454TIP3    H173777   3.312   6.282   2.568  0.8366 -1.0694  0.8104
17454TIP3    H273778   3.225   6.292   2.444 -0.1588  1.0719  1.6176
17455TIP3   OH273779   0.537   1.461   1.140  0.0829 -0.2437 -0.0506
17455TIP3    H173780   0.469   1.500   1.085 -0.4210 -0.2650  0.5442
17455TIP3    H273781   0.558   1.377   1.099  1.2169  0.6335 -1.3845
17456TIP3   OH273782   4.378   5.849  13.578 -0.0692 -0.1194  0.4749
17456TIP3    H173783   4.343   5.784  13.517 -0.8871 -0.5400  1.3707
17456TIP3    H273784   4.458   5.809  13.612  0.2045 -0.0290 -0.0389
17457TIP3   OH273785   0.308   5.919   2.519 -0.1288 -0.6807 -0.4562
17457TIP3    H173786   0.239   5.878   2.571  0.3814 -0.3427  0.5123
17457TIP3    H273787   0.350   5.846   2.473  0.5151 -1.2280  0.9431
17458TIP3   OH273788   4.078   0.795  14.003 -0.5368 -0.8110 -0.3583
17458TIP3    H173789   4.165   0.834  14.002 -1.1707  0.7652  0.5649
17458TIP3    H273790   4.047   0.803  13.912 -0.9386  1.7332 -0.0874
17459TIP3   OH273791   6.271   6.675  15.529 -0.3531  0.3636  0.0017
17459TIP3    H173792   6.318   6.756  15.510 -0.5263  0.6006  0.5476
17459TIP3    H273793   6.198   6.703  15.585  0.4559 -0.3567  1.4957
17460TIP3   OH273794   5.871   4.872   4.730 -0.2989 -0.8359  0.0149
17460TIP3    H173795   5.801   4.813   4.758 -1.0566  0.3162  0.6051
17460TIP3    H273796   5.827   4.953   4.705  0.8644  0.3236  1.4978
17461TIP3   OH273797   0.760   4.863   5.412 -0.0038  0.3213  0.5459
17461TIP3    H173798   0.771   4.850   5.318 -0.5545  1.2513  0.3332
17461TIP3    H273799   0.730   4.779   5.445 -0.6809  0.2284 -0.2683
17462TIP3   OH273800   6.467   4.709   4.738  0.1144 -0.2176  0.1055
17462TIP3    H173801   6.486   4.622   4.701  1.8890 -0.8133  2.1859
17462TIP3    H273802   6.388   4.696   4.789  0.4061 -0.6455  0.4580
17463TIP3   OH273803   2.747   0.431   1.857  0.0824  0.8273  0.1279
17463TIP3    H173804   2.759   0.411   1.764  0.1981  1.8178 -0.0865
17463TIP3    H273805   2.790   0.359   1.903  1.9029  1.3619 -0.6113
17464TIP3   OH273806   6.211   1.167  12.419 -0.0539  0.2946 -0.2268
17464TIP3    H173807   6.136   1.126  12.463 -0.0286 -0.0194 -0.4689
17464TIP3    H273808   6.201   1.260  12.437  0.9510  0.0343  1.9725
17465TIP3   OH273809   3.941   3.527  13.230  0.2193 -0.2540 -0.0212
17465TIP3    H173810   4.021   3.529  13.282  1.1692 -0.5588 -1.4179
17465TIP3    H273811   3.969   3.554  13.142 -0.7264 -2.6280 -1.1339
17466TIP3   OH273812   4.655   1.280   4.511 -0.3998 -0.3468  0.4451
17466TIP3    H173813   4.586   1.256   4.449 -1.8174 -0.0170  1.8322
17466TIP3    H273814   4.702   1.352   4.468 -2.2100  0.7978  0.2528
17467TIP3   OH273815   5.016   2.063   0.360 -0.2586  0.2550 -0.2688
17467TIP3    H173816   5.082   2.121   0.399 -0.2748  0.0382  0.0911
17467TIP3    H273817   5.066   1.989   0.326 -0.2501  0.4195 -0.6130
17468TIP3   OH273818   6.281   2.168  13.215 -0.1066 -0.1912 -0.1566
17468TIP3    H173819   6.192   2.133  13.203  0.2126 -0.4595 -2.0153
17468TIP3    H273820   6.270   2.263  13.215 -0.5436 -0.2219  1.1435
17469TIP3   OH273821   3.392   0.129  13.434  0.2543 -0.0362 -0.6576
17469TIP3    H173822   3.457   0.106  13.501  0.9421 -0.7212 -1.5187
17469TIP3    H273823   3.350   0.045  13.412 -0.1104  0.2142 -0.9275
17470TIP3   OH273824   4.722   3.095  15.348  0.0203  0.2992 -0.0910
17470TIP3    H173825   4.784   3.168  15.355  0.4664  0.0217 -1.0681
17470TIP3    H273826   4.638   3.136  15.329  0.7020  0.4720 -3.0787
17471TIP3   OH273827   1.047   6.500   3.628  0.1102 -0.3130  0.5934
17471TIP3    H173828   0.954   6.502   3.606 -0.3449 -1.7887  2.1346
17471TIP3    H273829   1.054   6.556   3.705  0.8131  1.0084 -0.3901
17472TIP3   OH273830   1.392   3.274   2.167  0.5001  0.5197  0.7041
17472TIP3    H173831   1.324   3.296   2.103  0.2363  1.2604  1.2274
17472TIP3    H273832   1.474   3.276   2.117  0.2362  0.5008  0.2637
17473TIP3   OH273833   3.616   4.409  16.203  0.7588  0.0985  0.5826
17473TIP3    H173834   3.685   4.384  16.142 -1.3566 -1.4436 -1.3368
17473TIP3    H273835   3.632   4.356  16.281  1.8834 -0.0151  0.2816
17474TIP3   OH273836   5.297   0.761   4.812  0.1930  0.1248  0.3993
17474TIP3    H173837   5.315   0.845   4.770 -2.3523  0.2303 -0.6162
17474TIP3    H273838   5.289   0.699   4.740  0.9583 -0.8150  1.0845
17475TIP3   OH273839   2.346   3.329  14.088 -0.0040  0.3521 -0.5631
17475TIP3    H173840   2.262   3.316  14.044 -0.7399  0.0678  0.8470
17475TIP3    H273841   2.394   3.390  14.032 -0.8763  0.0036 -1.7339
17476TIP3   OH273842   4.929   3.059   1.683 -0.0254  0.0857 -0.2246
17476TIP3    H173843   4.851   3.068   1.628 -1.2358  1.2271  1.5688
17476TIP3    H273844   4.896   3.027   1.767  1.6782 -1.0084  0.0676
17477TIP3   OH273845   1.164   3.499  15.317 -0.4498  0.0401 -0.1893
17477TIP3    H173846   1.247   3.538  15.290  0.7005 -1.2605  1.2766
17477TIP3    H273847   1.116   3.570  15.358  0.5525  0.5122  0.2083
17478TIP3   OH273848   0.535   2.861  16.291 -0.2731  0.3461 -0.0155
17478TIP3    H173849   0.619   2.902  16.269 -0.1131 -0.1732 -0.3993
17478TIP3    H273850   0.545   2.770  16.263 -0.8629  0.2080  0.2076
17479TIP3   OH273851   1.416   0.424   1.825 -0.2362  0.5185  0.0833
17479TIP3    H173852   1.507   0.392   1.821 -0.2024  0.6024  0.1673
17479TIP3    H273853   1.367   0.349   1.859 -0.3806  0.1061 -0.9790
17480TIP3   OH273854   4.956   3.599   3.099  0.2072  0.3912 -0.1321
17480TIP3    H173855   4.936   3.508   3.079  0.6550  0.5152 -1.2194
17480TIP3    H273856   4.903   3.649   3.037 -0.8065  0.9207  1.1133
17481TIP3   OH273857   4.115   6.093   2.071  1.0069 -0.2225 -0.9429
17481TIP3    H173858   4.086   6.103   2.162  2.0447 -1.3346 -0.4743
17481TIP3    H273859   4.034   6.087   2.021  0.4204 -0.5409  0.0203
17482TIP3   OH273860   3.108   2.613  14.833 -1.1026  0.7265  0.3164
17482TIP3    H173861   3.099   2.518  14.835  0.0097  0.5738 -0.5609
17482TIP3    H273862   3.035   2.643  14.778 -2.6528  0.5995  2.2125
17483TIP3   OH273863   0.734   6.198   3.180 -0.1551  0.1314  0.5884
17483TIP3    H173864   0.650   6.230   3.147 -0.2450 -1.6559 -1.1083
17483TIP3    H273865   0.725   6.202   3.275 -1.8367  0.7545  0.4481
17484TIP3   OH273866   2.111   3.212   0.518 -0.0826  0.4011  0.3291
17484TIP3    H173867   2.070   3.206   0.432  1.1307  0.7030 -0.2891
17484TIP3    H273868   2.164   3.291   0.515 -3.1158  2.7547  2.7766
17485TIP3   OH273869   2.982   0.389   0.048  0.1089  0.9682  0.1304
17485TIP3    H173870   2.898   0.420   0.015 -0.1457 -0.3506 -0.5429
17485TIP3    H273871   3.046   0.415  -0.018  0.0841  1.1540  0.1807
17486TIP3   OH273872   3.031   0.573   2.101 -0.2056  0.2968  0.4827
17486TIP3    H173873   3.064   0.659   2.128 -0.5068  0.1575  1.3532
17486TIP3    H273874   3.040   0.518   2.180 -1.1035 -0.1431  0.2972
17487TIP3   OH273875   0.303   3.406  15.685  0.3001  0.1237 -0.6089
17487TIP3    H173876   0.370   3.440  15.626  1.3723 -0.8215  0.0290
17487TIP3    H273877   0.350   3.346  15.744 -0.5744  1.5028  1.6525
17488TIP3   OH273878   0.345   5.802  15.544 -0.4967  0.6651 -0.2001
17488TIP3    H173879   0.362   5.778  15.636 -3.2016 -1.1161 -0.0580
17488TIP3    H273880   0.408   5.750  15.494  0.9176  1.5463  0.6119
17489TIP3   OH273881   4.205   6.406  15.136  0.0368 -0.3756 -0.7238
17489TIP3    H173882   4.241   6.460  15.065  0.8167 -0.6209 -0.5274
17489TIP3    H273883   4.154   6.339  15.092 -1.0811  0.6006 -0.9696
17490TIP3   OH273884   4.724   4.967  13.359 -0.1441  0.3136 -0.1719
17490TIP3    H173885   4.773   4.903  13.412  1.2343 -0.1759 -1.9593
17490TIP3    H273886   4.732   4.935  13.269 -0.8630  2.1076 -0.9159
17491TIP3   OH273887   1.184   1.357   5.651 -0.1535  0.1379 -0.9038
17491TIP3    H173888   1.134   1.438   5.663 -0.7253 -0.4429  1.0084
17491TIP3    H273889   1.177   1.312   5.735  1.7774 -0.9993 -1.2974
17492TIP3   OH273890   2.783   3.352  14.925  0.7009 -0.2215 -0.1040
17492TIP3    H173891   2.847   3.289  14.891 -0.4825 -1.4183 -0.2273
17492TIP3    H273892   2.806   3.434  14.883  1.8335 -0.7376 -0.5436
17493TIP3   OH273893   5.166   1.109   3.855  0.1210  0.3384  0.2126
17493TIP3    H173894   5.217   1.186   3.878 -0.1851  0.3018  1.0541
17493TIP3    H273895   5.213   1.070   3.781  0.8810  0.7205  0.4894
17494TIP3   OH273896   4.413   0.257   2.042 -0.3554 -0.5150  0.1691
17494TIP3    H173897   4.485   0.278   1.983 -1.7097  1.3384 -0.9509
17494TIP3    H273898   4.442   0.287   2.128 -0.0114  0.8172 -0.3858
17495TIP3   OH273899   4.225   4.980   1.271 -0.4908  0.6632 -0.7618
17495TIP3    H173900   4.140   5.004   1.233 -0.2601 -1.2413 -2.6529
17495TIP3    H273901   4.202   4.924   1.345 -0.8917  1.4847 -0.2497
17496TIP3   OH273902   1.420   4.277  12.328 -0.4357  0.2166  0.1857
17496TIP3    H173903   1.477   4.235  12.393 -0.2799  0.2284  0.0564
17496TIP3    H273904   1.387   4.355  12.373 -0.8689 -0.1311  0.4922
17497TIP3   OH273905   6.505   0.358  15.544 -0.2179 -0.1714  0.4548
17497TIP3    H173906   6.597   0.376  15.524 -0.0447  0.1508  1.4892
17497TIP3    H273907   6.507   0.312  15.628 -1.0585  0.7945  1.0273
17498TIP3   OH273908   6.382   3.849  11.478 -0.5325 -0.3361 -0.0424
17498TIP3    H173909   6.431   3.878  11.554  0.5597 -2.0804 -0.0394
17498TIP3    H273910   6.321   3.784  11.512 -0.1549 -0.9985 -0.6028
17499TIP3   OH273911   6.209   4.888  16.096 -0.2987 -0.3300  0.0037
17499TIP3    H173912   6.244   4.977  16.096  1.7133 -1.0836  0.3244
17499TIP3    H273913   6.251   4.845  16.022  1.7516 -2.0551  2.0289
17500TIP3   OH273914   5.784   4.010  13.496  0.4202 -0.0756  0.2093
17500TIP3    H173915   5.721   4.020  13.567  1.3907 -0.0754  1.0966
17500TIP3    H273916   5.731   3.997  13.418 -0.6793  0.5081  0.8435
17501TIP3   OH273917   1.721   2.188  15.502  0.2882 -0.1095 -0.2468
17501TIP3    H173918   1.801   2.160  15.457  1.0127  0.7152  0.4793
17501TIP3    H273919   1.741   2.175  15.595  0.3250  1.8726  0.0711
17502TIP3   OH273920   5.372   2.555  11.177 -0.8258 -0.2622 -0.4290
17502TIP3    H173921   5.387   2.473  11.131 -0.1217  0.0869 -0.8333
17502TIP3    H273922   5.327   2.610  11.113 -0.9510 -0.2042 -0.2894
17503TIP3   OH273923   6.106   1.531  12.702 -0.1636  0.2587  0.0686
17503TIP3    H173924   6.153   1.583  12.768 -1.6206  0.4385  1.0311
17503TIP3    H273925   6.165   1.526  12.628  1.7097 -0.2457  1.5186
17504TIP3   OH273926   0.729   5.926  11.087 -0.0846  0.1442 -0.4471
17504TIP3    H173927   0.664   5.872  11.133 -0.1533  0.9924  0.4884
17504TIP3    H273928   0.694   6.015  11.090  1.0368  0.5949 -0.0498
17505TIP3   OH273929   5.149   4.332   1.903 -0.1370  0.2645 -0.2296
17505TIP3    H173930   5.168   4.281   1.824 -1.2890  0.9263 -0.9591
17505TIP3    H273931   5.181   4.420   1.882  0.6344  0.1756  0.5159
17506TIP3   OH273932   5.902   4.680   5.606 -0.0305 -0.0302  0.0158
17506TIP3    H173933   5.845   4.609   5.574 -0.7954  0.0925  1.0458
17506TIP3    H273934   5.870   4.758   5.561 -0.6919  0.0384  0.5938
17507TIP3   OH273935   0.962   1.333  11.654 -0.2345  0.2881 -0.7723
17507TIP3    H173936   0.954   1.399  11.587 -1.5947  0.2627 -0.6746
17507TIP3    H273937   0.883   1.344  11.708 -0.6589 -1.5667 -0.9284
17508TIP3   OH273938   6.058   3.876   0.512  0.6934 -0.5319  0.3655
17508TIP3    H173939   6.102   3.956   0.483 -0.9221 -0.3121 -1.6891
17508TIP3    H273940   6.109   3.805   0.470  0.0951 -0.3647 -0.6753
17509TIP3   OH273941   6.155   0.702  11.388 -0.0147 -0.3637 -0.0831
17509TIP3    H173942   6.085   0.767  11.395 -1.0446 -0.9576 -3.0977
17509TIP3    H273943   6.213   0.721  11.461 -1.4762  2.4230  0.5090
17510TIP3   OH273944   6.250   0.917   0.398 -0.4209  0.0878  0.0974
17510TIP3    H173945   6.332   0.889   0.440  0.8375 -0.7657 -2.6625
17510TIP3    H273946   6.279   0.960   0.317 -2.6558  2.4370  0.4178
17511TIP3   OH273947   2.543   3.715  17.048 -0.6522  0.3483  0.4553
17511TIP3    H173948   2.624   3.681  17.011  1.1279 -2.4081  5.7746
17511TIP3    H273949   2.556   3.810  17.051  2.8247 -0.0321  1.6418
17512TIP3   OH273950   0.260   5.679  16.897  0.2101  0.2149 -0.7239
17512TIP3    H173951   0.196   5.671  16.826  0.4156  1.1944 -1.0429
17512TIP3    H273952   0.207   5.681  16.976 -0.1774  1.0649 -0.9888
17513TIP3   OH273953   4.178   3.576  15.464  0.1548  0.0684  0.0599
17513TIP3    H173954   4.186   3.504  15.526 -1.9226  0.0359  0.3475
17513TIP3    H273955   4.103   3.627  15.495 -0.8758  0.1519 -2.3094
17514TIP3   OH273956   6.505   2.900  13.291  0.5415 -0.0544  0.1426
17514TIP3    H173957   6.567   2.960  13.249  0.2279 -1.2996 -2.3000
17514TIP3    H273958   6.471   2.846  13.219 -0.9861 -1.5534  1.8697
17515TIP3   OH273959   0.402   4.655  14.025 -0.5448  0.2752  0.1491
17515TIP3    H173960   0.438   4.587  13.968 -0.8490 -0.9165  1.3163
17515TIP3    H273961   0.469   4.722  14.029 -0.2370  0.0604 -1.0526
17516TIP3   OH273962   2.536   1.753   5.285 -0.4028  0.2899 -0.4306
17516TIP3    H173963   2.568   1.775   5.197  2.3499  1.2513  0.6775
17516TIP3    H273964   2.493   1.833   5.315  0.5363  0.7100 -0.1627
17517TIP3   OH273965   1.473   1.302   2.269  0.0033 -0.0389 -0.1300
17517TIP3    H173966   1.531   1.282   2.196  0.3036  0.3579 -0.0034
17517TIP3    H273967   1.430   1.219   2.290  0.3662 -0.2833 -0.3630
17518TIP3   OH273968   0.312   4.873   0.891 -0.4812  0.2591  0.1459
17518TIP3    H173969   0.260   4.794   0.905 -0.1383 -0.3959 -1.8793
17518TIP3    H273970   0.356   4.857   0.808 -1.4516  3.1329 -1.0368
17519TIP3   OH273971   6.330   2.013   5.370  0.3601 -0.5687 -0.2581
17519TIP3    H173972   6.374   2.082   5.320 -0.7313  1.6772  1.6871
17519TIP3    H273973   6.242   2.009   5.334  0.5621 -1.3580 -0.6957
17520TIP3   OH273974   5.866   6.692  12.341 -0.4570  0.7934  0.0029
17520TIP3    H173975   5.847   6.782  12.368 -1.1394  0.3236  1.1459
17520TIP3    H273976   5.866   6.696  12.245  2.7051  2.6464 -0.0581
17521TIP3   OH273977   0.422   1.936  14.125  0.9686  0.0205 -0.5076
17521TIP3    H173978   0.493   1.998  14.107  0.7452  0.4629  0.0837
17521TIP3    H273979   0.457   1.878  14.193  0.1072  1.5087  1.3069
17522TIP3   OH273980   6.555   2.827   5.732 -0.5816  0.2542 -0.1012
17522TIP3    H173981   6.620   2.804   5.665 -0.7180 -1.2055  0.2200
17522TIP3    H273982   6.485   2.763   5.719 -0.7863  0.2074  1.1677
17523TIP3   OH273983   0.094   1.923   2.206 -0.3565 -0.2516  0.1690
17523TIP3    H173984   0.153   1.862   2.251 -0.2387 -0.3064 -0.0608
17523TIP3    H273985   0.112   2.007   2.247 -0.7474 -0.4267  0.7109
17524TIP3   OH273986   4.759   1.603   4.935 -0.1173  0.0076 -0.2139
17524TIP3    H173987   4.804   1.529   4.976 -0.8362 -0.0453  0.5038
17524TIP3    H273988   4.791   1.680   4.981 -0.8089 -0.0373  0.3543
17525TIP3   OH273989   6.765   0.978  15.899  0.5700  0.2010  0.0301
17525TIP3    H173990   6.799   1.041  15.835 -0.4730  0.6915 -0.0606
17525TIP3    H273991   6.753   0.898  15.848  1.0449  0.1846 -0.0635
17526TIP3   OH273992   1.768   0.321   3.255 -0.0787  0.1091 -0.6447
17526TIP3    H173993   1.752   0.327   3.161 -0.2173 -0.7470 -0.6815
17526TIP3    H273994   1.830   0.249   3.265 -0.4883 -0.1692 -0.0353
17527TIP3   OH273995   1.983   6.168   2.688  0.1447  0.1183 -0.4616
17527TIP3    H173996   1.894   6.201   2.676 -0.4042 -0.8488  0.7396
17527TIP3    H273997   1.971   6.075   2.710  1.3490  0.3333  1.2888
17528TIP3   OH273998   3.120   2.956  15.612 -0.8811 -0.0601 -0.0481
17528TIP3    H173999   3.190   2.897  15.642 -0.7741  0.1581  0.1416
17528TIP3    H274000   3.063   2.965  15.688 -1.2152 -0.3770 -0.2586
17529TIP3   OH274001   0.979   1.582   4.340 -0.6833 -0.0666 -0.0248
17529TIP3    H174002   0.988   1.670   4.376 -0.2603  1.4282 -3.3880
17529TIP3    H274003   1.060   1.537   4.364 -0.9907  0.3261  1.8900
17530TIP3   OH274004   4.080   1.557   5.906  0.2434 -0.3271  0.1229
17530TIP3    H174005   4.083   1.603   5.989  0.8746 -0.6548  0.2926
17530TIP3    H274006   4.158   1.587   5.858  1.4507 -2.1712  0.7845
17531TIP3   OH274007   4.043   2.948  17.121 -0.0080 -0.0906 -0.3687
17531TIP3    H174008   4.061   2.945  17.215 -1.5066  1.4376  0.0238
17531TIP3    H274009   3.948   2.937  17.115 -0.2000  1.8323 -1.5270
17532TIP3   OH274010   2.794   5.070  14.712  0.3275 -0.1097 -0.4930
17532TIP3    H174011   2.773   5.138  14.647 -1.1421 -1.1098 -1.1205
17532TIP3    H274012   2.760   4.989  14.674 -2.2135 -0.5066  2.2371
17533TIP3   OH274013   6.444   2.528  14.329 -0.6960 -0.0296 -0.2715
17533TIP3    H174014   6.470   2.618  14.313 -2.1151  0.2330 -1.2729
17533TIP3    H274015   6.369   2.513  14.271 -0.5336 -1.8336 -0.0978
17534TIP3   OH274016   6.008   0.970  10.649  0.7161  0.8049  0.2708
17534TIP3    H174017   5.914   0.984  10.658  0.6792  0.4161  0.5075
17534TIP3    H274018   6.048   1.039  10.702  0.5711  1.1233 -0.0325
17535TIP3   OH274019   5.928   2.154  14.989  0.0599 -0.4517  0.4352
17535TIP3    H174020   5.967   2.087  14.933  2.1036  0.6350  0.4953
17535TIP3    H274021   5.901   2.223  14.929 -1.3764 -0.9596  0.4500
17536TIP3   OH274022   3.191   6.219   4.789  0.1344 -0.0622 -0.3136
17536TIP3    H174023   3.124   6.151   4.780 -0.5356  0.5464 -0.0827
17536TIP3    H274024   3.167   6.284   4.722  1.3129 -0.4782 -1.1676
17537TIP3   OH274025   6.575   6.181   3.275 -0.3815 -0.4771 -0.3611
17537TIP3    H174026   6.572   6.228   3.359 -1.2311  1.3766 -1.3609
17537TIP3    H274027   6.492   6.135   3.270 -0.9382  0.5511 -0.7800
17538TIP3   OH274028   0.383   2.035  12.914 -0.1451  0.2122 -0.1993
17538TIP3    H174029   0.332   1.959  12.942 -0.0701  0.0536 -0.4926
17538TIP3    H274030   0.371   2.039  12.819  0.4622  0.1126 -0.2845
17539TIP3   OH274031   3.283   3.187  11.082 -0.0142 -0.2652  0.6453
17539TIP3    H174032   3.229   3.128  11.135 -0.0996  0.1442  1.0208
17539TIP3    H274033   3.236   3.195  10.999 -1.4774  1.4462  1.5597
17540TIP3   OH274034   2.460   5.276   4.507 -0.6135  0.2301  0.0039
17540TIP3    H174035   2.385   5.225   4.477 -0.5870 -0.5339  1.1644
17540TIP3    H274036   2.517   5.212   4.549 -0.2475  1.0961  0.8694
17541TIP3   OH274037   6.335   6.442   4.808 -0.0866  0.0768 -0.1508
17541TIP3    H174038   6.274   6.434   4.734 -0.6884 -1.7477  0.4818
17541TIP3    H274039   6.334   6.535   4.830 -2.4659  0.1659 -0.3667
17542TIP3   OH274040   3.240   3.433   0.943 -0.5637 -0.0779 -0.9790
17542TIP3    H174041   3.317   3.432   0.887  0.0877  0.0705 -0.1044
17542TIP3    H274042   3.217   3.525   0.953 -0.6761 -0.1033 -0.9931
17543TIP3   OH274043   2.749   0.615  16.210  0.3277 -0.1631  0.2463
17543TIP3    H174044   2.709   0.680  16.153 -0.7437 -0.5783  0.4953
17543TIP3    H274045   2.776   0.545  16.151  3.1425  1.2242 -0.2666
17544TIP3   OH274046   3.866   2.542  15.277  0.2964 -0.7511 -0.2403
17544TIP3    H174047   3.788   2.592  15.302 -0.1919 -0.8637 -1.4416
17544TIP3    H274048   3.922   2.544  15.354  0.0299  1.1438 -0.0476
17545TIP3   OH274049   4.491   3.604  11.941 -0.4126  0.3714 -0.3328
17545TIP3    H174050   4.499   3.699  11.954 -2.3477  0.3789  1.2485
17545TIP3    H274051   4.544   3.566  12.012 -1.6529  0.3340  0.6140
17546TIP3   OH274052   4.668   4.712  14.823 -0.3336 -0.0217  0.0457
17546TIP3    H174053   4.707   4.701  14.910 -1.3963  2.8060  1.0259
17546TIP3    H274054   4.731   4.767  14.776 -1.2606  1.3291  0.3019
17547TIP3   OH274055   6.123   0.736  15.938 -0.0168  0.4334 -0.4442
17547TIP3    H174056   6.067   0.765  15.866 -1.0035  1.0824  0.5466
17547TIP3    H274057   6.145   0.645  15.916 -1.9819 -0.0535 -0.5817
17548TIP3   OH274058   3.991   4.906  10.438 -0.2786  0.9062  0.4640
17548TIP3    H174059   4.071   4.922  10.488 -1.1477  0.3027  2.0815
17548TIP3    H274060   4.021   4.904  10.347  1.5057  0.9393  1.0072
17549TIP3   OH274061   6.762   1.067  15.008  0.0287 -0.4470  0.3655
17549TIP3    H174062   6.721   1.137  15.058 -0.4169 -1.2476  1.1681
17549TIP3    H274063   6.854   1.071  15.032 -0.3191 -1.4239  2.0789
17550TIP3   OH274064   2.802   0.915  13.370  0.0254 -0.0559  0.2930
17550TIP3    H174065   2.745   0.876  13.303  1.5302 -1.0243 -0.4728
17550TIP3    H274066   2.742   0.942  13.439 -1.5510  0.5729 -1.2290
17551TIP3   OH274067   1.166   3.767  11.770 -0.2099  0.3693 -0.2066
17551TIP3    H174068   1.118   3.801  11.845  2.0257 -0.9524  1.9823
17551TIP3    H274069   1.115   3.691  11.741 -2.0655  1.9495 -1.3304
17552TIP3   OH274070   0.022   2.852  16.135  0.0425  0.0760 -0.0630
17552TIP3    H174071  -0.066   2.859  16.099  0.0298  3.2381  0.3111
17552TIP3    H274072   0.080   2.885  16.066  0.7430 -0.2912  0.3295
17553TIP3   OH274073   1.354   3.853   4.926 -0.4200  0.1224 -0.2508
17553TIP3    H174074   1.433   3.880   4.879 -0.9521 -1.4157 -2.1574
17553TIP3    H274075   1.370   3.879   5.017  1.3261  1.8173 -0.9643
17554TIP3   OH274076   5.633   1.623  11.780 -0.1211 -0.0024 -0.5244
17554TIP3    H174077   5.675   1.702  11.745 -0.6723 -0.2110 -1.6949
17554TIP3    H274078   5.614   1.570  11.703 -1.4375 -0.4590  0.0961
17555TIP3   OH274079   4.089   4.355   3.097  0.3313 -0.0214  0.3459
17555TIP3    H174080   4.157   4.292   3.121  1.2691  0.7954 -0.0679
17555TIP3    H274081   4.065   4.397   3.179  0.3560 -0.2898  0.4906
17556TIP3   OH274082   2.911   1.388   0.944 -0.1161 -0.3765 -0.2830
17556TIP3    H174083   2.976   1.319   0.932  0.2953 -0.0827  0.1912
17556TIP3    H274084   2.914   1.438   0.863 -0.2160 -0.7569 -0.5190
17557TIP3   OH274085   2.010   3.174   2.499  0.4883  0.2277  0.1251
17557TIP3    H174086   1.924   3.132   2.500 -1.0670  3.1517 -0.1602
17557TIP3    H274087   2.034   3.182   2.591  0.7308 -1.0678  0.1854
17558TIP3   OH274088   1.166   3.116   1.029  0.4447 -0.0680 -0.2026
17558TIP3    H174089   1.152   3.134   0.936  0.3749  0.8957 -0.0205
17558TIP3    H274090   1.229   3.183   1.057 -1.2911  1.1917  0.9638
17559TIP3   OH274091   4.687   2.022   2.314 -0.5486  0.1179 -0.0407
17559TIP3    H174092   4.731   1.938   2.327  0.6689  0.5080 -1.3665
17559TIP3    H274093   4.718   2.076   2.386  0.5130  0.1129 -0.4620
17560TIP3   OH274094   0.826   0.123  14.609  0.2968  0.4860 -0.2644
17560TIP3    H174095   0.762   0.076  14.555  0.9058  1.0595 -1.5190
17560TIP3    H274096   0.911   0.085  14.584  0.5131  0.0361  1.0695
17561TIP3   OH274097   5.147   5.021   2.852  0.3922 -0.2268 -0.7775
17561TIP3    H174098   5.096   5.102   2.844 -1.0418 -0.9182  0.8312
17561TIP3    H274099   5.081   4.951   2.850  1.4069 -1.2301 -0.0993
17562TIP3   OH274100   2.542   6.214   6.427 -0.2699 -0.4979 -0.1045
17562TIP3    H174101   2.520   6.261   6.507  1.1887  0.4133 -0.1983
17562TIP3    H274102   2.513   6.272   6.356 -0.5342 -0.7835 -0.2314
17563TIP3   OH274103   4.202   3.820   4.444  0.3620  0.3897 -0.3236
17563TIP3    H174104   4.123   3.869   4.463  0.9254  0.9930  0.5368
17563TIP3    H274105   4.274   3.879   4.469  1.0909  0.0129 -1.4653
17564TIP3   OH274106   5.773   5.720  13.735 -0.2569 -0.0091  0.5479
17564TIP3    H174107   5.822   5.795  13.701 -0.4263  0.1325  0.6171
17564TIP3    H274108   5.741   5.748  13.821 -1.8391  0.5063 -0.1650
17565TIP3   OH274109   2.060   2.852   2.253 -0.1351  0.0954  0.1046
17565TIP3    H174110   2.136   2.882   2.203 -0.5304  1.2099  0.1452
17565TIP3    H274111   2.012   2.796   2.193 -0.3227  0.9927 -0.6053
17566TIP3   OH274112   4.701   6.508   1.795 -0.4481  0.0738  0.6308
17566TIP3    H174113   4.760   6.534   1.725  0.9577  0.6425  1.9880
17566TIP3    H274114   4.640   6.447   1.753 -0.2426  1.1048 -1.2816
17567TIP3   OH274115   5.780   2.993   4.604 -0.7904  0.2094  1.1256
17567TIP3    H174116   5.772   2.988   4.700  0.5682 -0.3771  1.2352
17567TIP3    H274117   5.851   2.933   4.583  0.2478  1.7758 -0.0535
17568TIP3   OH274118   4.014   4.371  14.413 -0.6684 -0.0273 -0.8481
17568TIP3    H174119   4.043   4.293  14.366 -1.9358 -0.2500 -1.2981
17568TIP3    H274120   3.919   4.365  14.413 -0.7439  0.0239  1.6619
17569TIP3   OH274121   4.230   0.731   4.464 -0.3039  0.0802  0.0596
17569TIP3    H174122   4.258   0.673   4.534  0.7120  1.3574  0.7682
17569TIP3    H274123   4.201   0.811   4.508  1.4101  1.3506 -0.9363
17570TIP3   OH274124   5.103   1.912  16.241  0.4938 -0.5666 -0.1576
17570TIP3    H174125   5.148   1.992  16.213 -1.1600  0.0238 -1.2877
17570TIP3    H274126   5.043   1.941  16.310  0.0016 -0.8490 -0.4639
17571TIP3   OH274127   3.054   3.619  16.320  0.1488  0.2107 -0.4649
17571TIP3    H174128   2.999   3.697  16.319  2.4972  2.0726  1.4782
17571TIP3    H274129   3.050   3.587  16.410  0.4370 -1.0055 -0.8580
17572TIP3   OH274130   6.776   2.531  14.569  0.4142  0.8286 -0.0716
17572TIP3    H174131   6.769   2.528  14.665 -1.2635 -1.7324 -0.1755
17572TIP3    H274132   6.780   2.624  14.548 -2.7601  1.6788  2.3262
17573TIP3   OH274133   4.397   6.616  14.353  0.5177 -0.1130 -0.8216
17573TIP3    H174134   4.318   6.647  14.310  0.0985  0.5168  0.3941
17573TIP3    H274135   4.465   6.679  14.328  0.2596  0.2895 -0.5056
17574TIP3   OH274136   3.683   3.186   4.403 -0.1999  0.4828  0.4284
17574TIP3    H174137   3.628   3.107   4.405  0.6625 -0.1179  1.2398
17574TIP3    H274138   3.722   3.190   4.490  0.0264  1.6441  0.2921
17575TIP3   OH274139   4.899   1.486   2.475  0.0774 -0.1598  0.2231
17575TIP3    H174140   4.968   1.489   2.409  0.9433 -0.3785  1.0783
17575TIP3    H274141   4.876   1.578   2.490 -1.1130 -0.1716 -1.3443
17576TIP3   OH274142   0.009   3.473  12.220 -0.2661 -0.0037 -0.2636
17576TIP3    H174143   0.025   3.545  12.282  0.0722  0.9412 -1.4218
17576TIP3    H274144   0.084   3.474  12.161 -0.0111 -1.6497 -0.0120
17577TIP3   OH274145   6.653   6.265   2.823 -0.5608  0.5330  0.0329
17577TIP3    H174146   6.602   6.195   2.783 -1.8001  0.2149  2.0272
17577TIP3    H274147   6.743   6.250   2.794 -0.9305 -1.4278 -0.2120
17578TIP3   OH274148   2.689   0.796  13.838  0.3280 -0.8598 -0.6086
17578TIP3    H174149   2.624   0.754  13.782 -0.4035 -1.4163  0.6016
17578TIP3    H274150   2.759   0.732  13.846  1.0519 -0.2550 -1.9245
17579TIP3   OH274151   0.052   6.443  14.629 -0.0875 -0.3105 -0.1327
17579TIP3    H174152   0.008   6.522  14.660  0.2372 -0.2746  0.2418
17579TIP3    H274153   0.068   6.459  14.536  0.4032  0.2645  0.0462
17580TIP3   OH274154   1.918   1.272  12.686 -0.7030 -0.5082 -0.1585
17580TIP3    H174155   1.967   1.354  12.684 -0.8977 -0.4003 -0.6107
17580TIP3    H274156   1.841   1.291  12.740 -1.1155 -0.1798 -0.8505
17581TIP3   OH274157   1.717   4.426  15.236 -0.7496  0.0934 -0.6659
17581TIP3    H174158   1.771   4.351  15.259  1.5680  1.7253 -0.4689
17581TIP3    H274159   1.757   4.462  15.157 -0.2651  2.5231  0.6013
17582TIP3   OH274160   5.825   5.917   5.725  0.3444 -0.4737 -0.3385
17582TIP3    H174161   5.749   5.942   5.672  0.3853 -1.2215 -0.7603
17582TIP3    H274162   5.833   5.987   5.789  0.0365  0.2338 -1.0523
17583TIP3   OH274163   4.112   4.166  16.426  0.1847 -0.2599  0.0544
17583TIP3    H174164   4.070   4.104  16.486  1.4743 -1.2154  0.0225
17583TIP3    H274165   4.122   4.117  16.345 -0.4863  0.6405 -0.5908
17584TIP3   OH274166   5.930   0.126   5.167  0.2349  0.0780 -0.2257
17584TIP3    H174167   5.934   0.033   5.146 -1.5269  0.1115 -0.9052
17584TIP3    H274168   5.953   0.170   5.085  0.2015  0.2277 -0.1557
17585TIP3   OH274169   4.029   3.135  12.467 -0.6696  0.0406  0.0867
17585TIP3    H174170   3.968   3.124  12.394  0.3046 -1.5279 -0.5380
17585TIP3    H274171   4.111   3.098  12.436  0.3527  1.1972  1.2680
17586TIP3   OH274172   0.569   2.122  12.566 -0.1488  0.7030  0.0299
17586TIP3    H174173   0.552   2.214  12.544 -0.8860  0.1637 -1.8836
17586TIP3    H274174   0.482   2.082  12.569  0.2461 -0.2346 -0.6761
17587TIP3   OH274175   2.030   6.144   5.504 -0.0454 -0.1301  1.0191
17587TIP3    H174176   2.094   6.081   5.472 -1.3631 -0.8543 -0.3295
17587TIP3    H274177   1.946   6.099   5.495 -0.9926  1.6654  0.3830
17588TIP3   OH274178   0.310   0.036  13.784  0.2195 -0.2192 -0.1325
17588TIP3    H174179   0.294   0.130  13.795 -3.1744 -0.7444  0.6734
17588TIP3    H274180   0.289   0.019  13.692  0.8841 -0.2099 -0.2916
17589TIP3   OH274181   5.975   5.243  11.953  0.1210 -0.0881 -0.7876
17589TIP3    H174182   5.984   5.297  12.032 -2.4674 -1.8030  0.8225
17589TIP3    H274183   5.925   5.298  11.892 -4.5557 -1.0679  1.6592
17590TIP3   OH274184   5.814   3.309   0.989 -0.1153 -0.7720 -0.4501
17590TIP3    H174185   5.722   3.313   1.015  0.3507 -0.4962  1.2872
17590TIP3    H274186   5.842   3.400   0.985  0.6134 -0.8895  1.1918
17591TIP3   OH274187   0.310   1.090  15.401 -0.0951 -0.2476  0.1631
17591TIP3    H174188   0.274   1.174  15.429 -0.9043 -0.4424 -0.2536
17591TIP3    H274189   0.265   1.071  15.318  1.5058 -0.1619 -0.7519
17592TIP3   OH274190   3.181   2.438  11.405 -0.2902 -0.4461 -0.5576
17592TIP3    H174191   3.250   2.456  11.470  0.3688 -0.8278 -1.1460
17592TIP3    H274192   3.200   2.498  11.333 -0.7727 -0.3221 -0.5846
17593TIP3   OH274193   2.648   2.540   5.306  0.6863  0.3983 -0.2069
17593TIP3    H174194   2.723   2.481   5.314 -1.9784 -3.4938 -0.8576
17593TIP3    H274195   2.617   2.553   5.395  0.6267 -0.2216 -0.1321
17594TIP3   OH274196   3.487   2.440   4.103 -0.1146 -0.0615  0.7666
17594TIP3    H174197   3.469   2.347   4.089 -0.8016  0.2798 -0.7666
17594TIP3    H274198   3.401   2.482   4.101  0.1642  0.5978  1.6790
17595TIP3   OH274199   6.056   1.483   5.170  0.1321  0.0143 -0.4002
17595TIP3    H174200   6.066   1.388   5.167  2.4838  0.0592  2.0971
17595TIP3    H274201   6.103   1.515   5.093 -0.1252 -0.8077 -0.9059
17596TIP3   OH274202   4.234   1.493   2.819  0.0929  0.0466  0.0131
17596TIP3    H174203   4.278   1.417   2.857  1.6117  0.5736 -0.6101
17596TIP3    H274204   4.234   1.477   2.725  0.5071  0.8447 -0.1314
17597TIP3   OH274205   0.958   0.204   0.827  0.1028  0.1578 -0.2064
17597TIP3    H174206   0.873   0.240   0.800  0.5542  0.7692 -0.8620
17597TIP3    H274207   1.011   0.205   0.747  1.9374  3.3177  0.8368
17598TIP3   OH274208   6.205   6.000  12.077  0.4058 -0.0566  0.0587
17598TIP3    H174209   6.262   5.923  12.071 -0.4710 -0.7005 -0.2190
17598TIP3    H274210   6.224   6.050  11.998  2.3653  1.0192  1.1480
17599TIP3   OH274211   6.188   0.543   1.055 -0.4622 -0.4259  0.1025
17599TIP3    H174212   6.243   0.489   1.111 -1.1386 -2.0649 -0.7344
17599TIP3    H274213   6.116   0.485   1.028 -2.5805  1.5701  1.0463
17600TIP3   OH274214   4.479   5.052   1.073  0.2708  0.9011  0.1302
17600TIP3    H174215   4.568   5.017   1.068  0.9101  2.4790  0.0573
17600TIP3    H274216   4.460   5.082   0.984  0.3338  2.1196  0.5143
17601TIP3   OH274217   1.371   4.089  13.890 -0.6788 -0.2991 -0.1069
17601TIP3    H174218   1.364   4.159  13.826 -0.4619  1.1215  1.3514
17601TIP3    H274219   1.431   4.122  13.956 -1.3371 -1.4596  1.1391
17602TIP3   OH274220   0.219   1.801  13.503 -0.2061  0.3018  0.4395
17602TIP3    H174221   0.225   1.712  13.538 -2.3425  0.5316  1.5632
17602TIP3    H274222   0.305   1.839  13.521  1.4101 -2.0274 -1.7114
17603TIP3   OH274223   1.440   1.600  13.418 -0.0541 -0.2720 -0.0374
17603TIP3    H174224   1.521   1.650  13.417 -0.2788  0.1311  0.8403
17603TIP3    H274225   1.420   1.588  13.511 -2.3910  1.9831 -0.1272
17604TIP3   OH274226   0.439   5.806  12.893  0.2404 -0.1873  0.2577
17604TIP3    H174227   0.348   5.814  12.920 -0.9886  0.4642 -3.5007
17604TIP3    H274228   0.446   5.717  12.858  1.5767 -0.8132  1.9911
17605TIP3   OH274229   5.572   1.569   4.991  0.8801 -0.0575 -0.2155
17605TIP3    H174230   5.525   1.651   4.973 -1.9570 -1.3999  0.5263
17605TIP3    H274231   5.632   1.559   4.917  0.9598  2.4285 -0.5649
17606TIP3   OH274232   4.638   2.150  16.861  0.3173  0.1133 -0.0535
17606TIP3    H174233   4.700   2.196  16.918 -1.3973  0.8772  1.2853
17606TIP3    H274234   4.604   2.217  16.802 -0.8335  0.2098  0.6876
17607TIP3   OH274235   0.356   2.369   5.578 -0.4913 -0.8737 -0.1006
17607TIP3    H174236   0.328   2.351   5.667 -0.6651  1.9507  0.4888
17607TIP3    H274237   0.397   2.455   5.582  2.5138 -2.0389 -2.1569
17608TIP3   OH274238   4.314   1.621  14.411  0.0288 -0.0057 -0.1227
17608TIP3    H174239   4.305   1.562  14.486  0.4949  0.8489  0.6321
17608TIP3    H274240   4.229   1.665  14.404 -0.5008 -1.1315 -1.0273
17609TIP3   OH274241   0.745   5.859  12.474  0.5259 -0.3827 -0.0090
17609TIP3    H174242   0.816   5.919  12.452  2.5842 -2.6130  0.0938
17609TIP3    H274243   0.780   5.806  12.546 -1.4607 -1.2324  0.4045
17610TIP3   OH274244   6.240   1.882   0.702  0.1021 -0.1532  0.4962
17610TIP3    H174245   6.239   1.966   0.747 -1.5048 -1.0171  2.1952
17610TIP3    H274246   6.321   1.841   0.729  1.6026  1.3049 -1.4214
17611TIP3   OH274247   1.245   1.157  17.211  0.8681  0.2721  0.6774
17611TIP3    H174248   1.212   1.222  17.274 -1.6211 -1.6498  1.5346
17611TIP3    H274249   1.298   1.208  17.150 -0.0723  2.9257  1.9046
17612TIP3   OH274250   4.236   4.373  16.621  0.7618 -0.3891  0.3988
17612TIP3    H174251   4.223   4.305  16.555 -0.1815 -0.2512  0.4328
17612TIP3    H274252   4.221   4.330  16.705 -1.1248  0.1085  0.3699
17613TIP3   OH274253   5.088   1.586  12.723  0.5137  0.1303 -0.0323
17613TIP3    H174254   5.141   1.632  12.788 -1.0620  0.1952  1.2520
17613TIP3    H274255   5.143   1.513  12.694  0.7756 -0.6801  2.3484
17614TIP3   OH274256   1.033   2.307   4.021  0.3665  0.1784 -0.0550
17614TIP3    H174257   1.105   2.300   4.084 -0.8885 -0.8498  1.3439
17614TIP3    H274258   1.068   2.269   3.941  0.6880 -2.6503  1.2914
17615TIP3   OH274259   4.969   3.606   3.908 -0.2615 -0.0052  1.0386
17615TIP3    H174260   4.881   3.621   3.875  0.2377 -0.4232 -0.5995
17615TIP3    H274261   4.956   3.562   3.992 -1.6038  0.2514  0.9873
17616TIP3   OH274262   6.232   3.056   0.389  0.3057 -0.4490 -0.0270
17616TIP3    H174263   6.267   3.030   0.304  1.0817 -0.1808  0.1945
17616TIP3    H274264   6.289   3.129   0.417 -0.7525  0.3397  0.1296
17617TIP3   OH274265   5.992   1.286  14.030 -0.2727 -0.5645  0.4260
17617TIP3    H174266   6.055   1.226  14.071 -0.9066 -0.0498  2.2791
17617TIP3    H274267   5.972   1.247  13.946  3.7003  0.0351 -1.0239
17618TIP3   OH274268   5.735   0.976   2.611 -0.4014 -0.3353 -0.3211
17618TIP3    H174269   5.707   0.903   2.665 -1.0967 -0.5945 -1.0037
17618TIP3    H274270   5.825   0.994   2.638 -0.8715 -0.1819  1.1970
17619TIP3   OH274271   3.971   2.494  13.010 -0.7858 -0.0657  0.3599
17619TIP3    H174272   3.902   2.514  13.073 -0.7338  0.1104  0.3621
17619TIP3    H274273   4.045   2.466  13.064 -0.5073  0.7636  0.4232
17620TIP3   OH274274   0.212   4.030  11.211  0.3507 -0.6094  0.4345
17620TIP3    H174275   0.204   4.047  11.305 -1.0996 -1.8262  0.5628
17620TIP3    H274276   0.213   3.935  11.204  0.7803 -0.5353 -0.7758
17621TIP3   OH274277   5.264   2.601  16.394 -0.3828 -0.2115  0.1829
17621TIP3    H174278   5.318   2.639  16.324 -0.8600  1.4470  0.6577
17621TIP3    H274279   5.184   2.573  16.350 -0.0625 -0.5894 -0.1685
17622TIP3   OH274280   5.391   1.200   6.145 -0.6116 -0.9451 -0.3889
17622TIP3    H174281   5.451   1.164   6.080  2.3438  1.7537  0.5233
17622TIP3    H274282   5.411   1.152   6.225 -0.1955 -0.5927 -0.2740
17623TIP3   OH274283   5.871   3.074  13.768 -0.2223  0.2487  0.4865
17623TIP3    H174284   5.837   3.144  13.711  0.1490  0.5883  0.6743
17623TIP3    H274285   5.950   3.112  13.807  0.3126 -0.4801  0.1486
17624TIP3   OH274286   2.783   0.689   4.729  0.0339  0.2766 -0.0141
17624TIP3    H174287   2.793   0.715   4.821  1.2547  0.3302 -0.1431
17624TIP3    H274288   2.806   0.596   4.728 -0.2144  0.2190 -0.2216
17625TIP3   OH274289   0.562   3.037  13.902  0.2648 -0.2277 -0.3498
17625TIP3    H174290   0.527   3.089  13.975 -0.1629 -1.2306  0.1694
17625TIP3    H274291   0.560   3.097  13.828  0.7645  0.8364  0.4615
17626TIP3   OH274292   5.787   5.317   2.354  0.6377 -0.3128  0.2757
17626TIP3    H174293   5.702   5.360   2.347 -0.3557 -2.2465 -0.2821
17626TIP3    H274294   5.827   5.330   2.268  1.7965  2.1942  1.0949
17627TIP3   OH274295   0.513   0.317  12.766 -0.1520 -0.2868  0.6025
17627TIP3    H174296   0.436   0.314  12.709  0.2135  0.0445  0.0816
17627TIP3    H274297   0.563   0.393  12.734  0.5040 -0.6421  0.7837
17628TIP3   OH274298   0.930   1.210   5.377  0.4791  1.0441  0.7559
17628TIP3    H174299   0.917   1.266   5.300 -1.0587  1.6203  1.3894
17628TIP3    H274300   1.023   1.188   5.375  0.3291  0.2115 -1.8212
17629TIP3   OH274301   2.219   4.149  14.983 -0.1463  0.2358  0.3125
17629TIP3    H174302   2.310   4.125  14.969  0.4607  1.1897  2.2172
17629TIP3    H274303   2.191   4.093  15.056 -0.3290  1.5916  1.3093
17630TIP3   OH274304   6.551   4.556  13.956 -0.0344 -0.1088  0.3478
17630TIP3    H174305   6.590   4.472  13.979  0.1565 -0.0828  0.1255
17630TIP3    H274306   6.519   4.545  13.866  0.6531  0.2764  0.0425
17631TIP3   OH274307   1.626   0.950  12.322 -0.5664 -0.0944  0.2711
17631TIP3    H174308   1.624   0.933  12.416 -0.6896 -3.2290 -0.1753
17631TIP3    H274309   1.535   0.967  12.299 -1.1840 -2.9055  0.2900
17632TIP3   OH274310   0.562   1.348  11.157  0.1310 -0.6732  0.4258
17632TIP3    H174311   0.543   1.307  11.241 -0.1355 -0.8447  0.2833
17632TIP3    H274312   0.486   1.403  11.139  1.6926  2.3016  2.0449
17633TIP3   OH274313   4.710   1.199  11.912  0.1739  0.3128 -0.4551
17633TIP3    H174314   4.794   1.245  11.918  0.9149 -1.1171  0.9555
17633TIP3    H274315   4.658   1.234  11.984  0.2610 -0.1203 -0.1786
17634TIP3   OH274316   4.416   3.558   6.299  0.3908 -0.2760 -0.2694
17634TIP3    H174317   4.498   3.564   6.349  0.6033 -1.6625 -0.4036
17634TIP3    H274318   4.349   3.539   6.365  0.5227 -1.1666 -0.3715
17635TIP3   OH274319   1.959   6.069  12.328 -1.0332 -0.0052  0.5117
17635TIP3    H174320   2.024   6.016  12.282  0.4230  0.3916  2.0007
17635TIP3    H274321   1.918   6.121  12.260  0.9593  0.4862 -0.4035
17636TIP3   OH274322   0.015   4.857  16.393 -0.4352 -0.2217 -0.4230
17636TIP3    H174323  -0.009   4.819  16.477 -1.0942 -1.5550 -1.1698
17636TIP3    H274324   0.061   4.786  16.347  0.6309  0.7456 -0.8807
17637TIP3   OH274325   1.381   0.503   0.962  0.2271 -0.6883 -0.0560
17637TIP3    H174326   1.373   0.412   0.934  0.5926 -1.0502  0.9981
17637TIP3    H274327   1.376   0.500   1.057  0.8162  0.3310  0.0247
17638TIP3   OH274328   1.491   2.656   5.455  0.2862 -0.8692 -0.4631
17638TIP3    H174329   1.442   2.609   5.388  0.3731 -2.2260  0.3807
17638TIP3    H274330   1.425   2.708   5.502  0.1863 -0.1445 -1.3752
17639TIP3   OH274331   1.275   5.509  14.928 -0.5632  0.4353 -0.1870
17639TIP3    H174332   1.278   5.599  14.897  0.3581 -0.1394 -1.9278
17639TIP3    H274333   1.182   5.490  14.942 -0.9335  1.0435 -1.7252
17640TIP3   OH274334   5.719   6.729  11.369  0.1161 -0.6562  0.0682
17640TIP3    H174335   5.696   6.717  11.276  0.9569 -0.7049 -0.1401
17640TIP3    H274336   5.814   6.734  11.370  0.0559  1.8243  0.6521
17641TIP3   OH274337   5.206   2.889  12.038 -0.1646  0.6335  0.2723
17641TIP3    H174338   5.301   2.882  12.028 -0.2757  0.8592 -1.0173
17641TIP3    H274339   5.194   2.959  12.102  0.5231  1.1216 -0.1194
17642TIP3   OH274340   1.808   0.821   5.331 -0.4039  0.4248 -0.3145
17642TIP3    H174341   1.836   0.733   5.305 -1.0906  0.0845  0.0990
17642TIP3    H274342   1.734   0.841   5.274  0.6651  1.3506 -1.4434
17643TIP3   OH274343   0.753   3.702   0.049 -0.2274  0.1915  0.2236
17643TIP3    H174344   0.659   3.718   0.049 -0.2391  0.1471  0.5651
17643TIP3    H274345   0.783   3.729  -0.037 -0.2542  2.0177  0.7503
17644TIP3   OH274346   5.879   6.590  14.610  0.9969  0.6251 -0.1988
17644TIP3    H174347   5.923   6.579  14.526 -0.5550 -0.5887 -0.9062
17644TIP3    H274348   5.804   6.647  14.591 -0.5529 -1.2960 -0.1531
17645TIP3   OH274349   2.662   4.738   0.918 -0.4177 -0.4813  0.2580
17645TIP3    H174350   2.594   4.676   0.891  0.8016 -1.0719 -1.6427
17645TIP3    H274351   2.733   4.682   0.952 -1.3279  0.1764  3.6747
17646TIP3   OH274352   1.002   3.846   5.382 -0.7345  0.7517 -0.2411
17646TIP3    H174353   1.046   3.764   5.406 -0.5230  0.8825 -0.1796
17646TIP3    H274354   0.962   3.827   5.297  1.2275  1.2681 -1.3376
17647TIP3   OH274355   0.555   2.952  15.407 -0.0586  0.2213 -0.6394
17647TIP3    H174356   0.542   2.988  15.495  0.1805 -1.2108  0.0114
17647TIP3    H274357   0.594   2.866  15.422 -1.0640 -0.5354 -2.0905
17648TIP3   OH274358   3.606   4.942  15.651  0.8362 -0.4028 -0.1406
17648TIP3    H174359   3.591   5.030  15.616 -0.8886 -0.7896 -0.4675
17648TIP3    H274360   3.652   4.957  15.734  0.8383  0.7901 -0.3385
17649TIP3   OH274361   0.832   1.899  14.924 -0.4322  0.0935  0.2585
17649TIP3    H174362   0.882   1.853  14.991  0.8932  0.7254 -0.2578
17649TIP3    H274363   0.762   1.838  14.900  0.8051 -1.3483  0.1316
17650TIP3   OH274364   6.556   4.070   1.468  0.2547  0.2057  0.5067
17650TIP3    H174365   6.491   4.095   1.402  2.3173 -1.2896 -2.2858
17650TIP3    H274366   6.590   4.154   1.500 -1.6788  0.9815  0.6966
17651TIP3   OH274367   1.323   3.237   1.348 -0.6750 -0.5343  0.0258
17651TIP3    H174368   1.377   3.308   1.385 -1.8584  0.7919 -0.6763
17651TIP3    H274369   1.360   3.224   1.260 -0.5714 -0.6672  0.0887
17652TIP3   OH274370   6.575   5.497   0.686 -0.0525 -0.4996 -0.2275
17652TIP3    H174371   6.559   5.403   0.677  1.9666 -0.7794 -1.3014
17652TIP3    H274372   6.618   5.506   0.771 -3.2738 -0.0374  1.5177
17653TIP3   OH274373   0.333   2.221  15.926 -0.1166  0.2655 -0.6741
17653TIP3    H174374   0.370   2.277  15.857  1.1498  2.4890  1.6345
17653TIP3    H274375   0.388   2.239  16.003  0.0155 -3.8346  0.4034
17654TIP3   OH274376   5.850   5.540   1.903  0.0401 -0.4623 -0.2574
17654TIP3    H174377   5.930   5.570   1.860 -0.6003  0.6713 -0.6941
17654TIP3    H274378   5.834   5.605   1.971 -0.3352 -0.8547  0.0306
17655TIP3   OH274379   0.044   6.699   0.118 -0.2100  0.1197  0.1818
17655TIP3    H174380   0.013   6.632   0.058  2.2384  0.9190 -2.1978
17655TIP3    H274381  -0.031   6.758   0.128 -0.9708 -0.4952 -1.4537
17656TIP3   OH274382   3.912   6.227   4.693 -0.2018 -0.2013 -0.4256
17656TIP3    H174383   3.934   6.194   4.606  3.3037  1.3229 -0.2840
17656TIP3    H274384   3.897   6.321   4.680 -1.3856 -0.2547  0.4096
17657TIP3   OH274385   3.115   4.059  14.485  0.1251  0.0669  0.5665
17657TIP3    H174386   3.183   4.018  14.539  0.0991 -2.3617 -1.0674
17657TIP3    H274387   3.064   4.111  14.547  2.6158  0.8825  2.0773
17658TIP3   OH274388   5.091   2.567   2.961  0.3779  1.2855  0.1664
17658TIP3    H174389   5.044   2.559   2.878  0.2092 -2.8135  0.4571
17658TIP3    H274390   5.023   2.569   3.028  0.5305  0.7271  0.3465
17659TIP3   OH274391   1.503   4.125   2.072 -0.2801 -0.2741  0.3028
17659TIP3    H174392   1.445   4.135   1.996 -0.0182  0.1373  0.1563
17659TIP3    H274393   1.456   4.065   2.129 -2.2583  2.2731  1.5377
17660TIP3   OH274394   3.712   6.453  12.571  0.0661 -0.7970  0.2448
17660TIP3    H174395   3.697   6.527  12.630 -0.4803 -0.0494 -0.7869
17660TIP3    H274396   3.693   6.489  12.484 -0.9565 -2.3666 -0.2143
17661TIP3   OH274397   4.390   4.966  14.504  0.0181  0.2393 -0.4805
17661TIP3    H174398   4.372   4.993  14.414  0.6443  0.1025 -0.6493
17661TIP3    H274399   4.303   4.962  14.546 -0.3641 -0.5619 -1.3215
17662TIP3   OH274400   4.826   2.230   5.389  0.2426 -0.2221  0.0886
17662TIP3    H174401   4.751   2.180   5.421  0.0647 -0.0243 -0.0182
17662TIP3    H274402   4.809   2.320   5.415  1.1520 -0.3866  1.3462
17663TIP3   OH274403   2.226   1.083  16.008  0.0364 -0.4526 -0.5756
17663TIP3    H174404   2.263   1.040  15.931  1.0987  0.2485 -0.4736
17663TIP3    H274405   2.255   1.031  16.082 -1.5642 -1.5354 -0.6532
17664TIP3   OH274406   5.840   1.035  13.777 -0.3223  0.4734 -0.2384
17664TIP3    H174407   5.854   0.983  13.857 -3.0337  0.7710  0.5335
17664TIP3    H274408   5.761   1.086  13.796 -1.3969  0.1247 -3.3479
17665TIP3   OH274409   0.765   3.856   5.200  0.4504 -0.0061  0.2120
17665TIP3    H174410   0.782   3.947   5.224  2.2719 -0.5974  1.3101
17665TIP3    H274411   0.669   3.851   5.195  0.2581  1.7145  1.1915
17666TIP3   OH274412   5.870   5.760   0.621 -0.2202 -0.0469  0.4913
17666TIP3    H174413   5.881   5.740   0.528 -0.3954  0.5172  0.3418
17666TIP3    H274414   5.948   5.724   0.663  0.5802  0.9654 -0.0783
17667TIP3   OH274415   3.225   3.017  13.607 -0.0607 -0.2348  0.1574
17667TIP3    H174416   3.277   2.954  13.656 -1.1786 -0.7248  0.7533
17667TIP3    H274417   3.244   3.102  13.647 -0.5918 -0.5666  1.1546
17668TIP3   OH274418   5.168   5.690  13.122 -0.4792  0.0730  0.8827
17668TIP3    H174419   5.260   5.679  13.099 -0.7389 -2.1221  0.6450
17668TIP3    H274420   5.149   5.782  13.104  1.7250  0.6416  1.2360
17669TIP3   OH274421   5.091   3.544  14.441 -0.2541  0.0922 -0.1629
17669TIP3    H174422   5.081   3.612  14.375  0.5507 -1.0417 -1.4951
17669TIP3    H274423   5.181   3.556  14.474 -0.1631 -0.2289 -0.2940
17670TIP3   OH274424   6.277   5.305   2.208 -0.2213 -0.4974 -0.0643
17670TIP3    H174425   6.352   5.351   2.170 -1.4512  1.1026 -0.6821
17670TIP3    H274426   6.262   5.231   2.150 -0.2001  0.1851 -0.9514
17671TIP3   OH274427   4.890   5.060   0.977  0.2877  0.3907  0.1822
17671TIP3    H174428   4.925   5.005   0.906  1.7716  1.4168  0.0674
17671TIP3    H274429   4.912   5.013   1.057  0.5398  0.2564  0.0362
17672TIP3   OH274430   6.167   3.338   3.207 -0.0109 -0.3898 -0.0732
17672TIP3    H174431   6.157   3.243   3.199  2.0232 -0.6465 -0.1927
17672TIP3    H274432   6.221   3.350   3.286  1.0337  0.5478 -0.8992
17673TIP3   OH274433   3.626   2.931   5.101  0.0134  0.2388  0.1496
17673TIP3    H174434   3.553   2.972   5.147  1.4807  1.6425  1.3570
17673TIP3    H274435   3.684   2.900   5.171  0.2235 -1.5844 -0.7763
17674TIP3   OH274436   0.494   3.594  10.576 -0.0620  0.1471 -0.1233
17674TIP3    H174437   0.473   3.528  10.509 -0.3646  1.3705 -1.2770
17674TIP3    H274438   0.433   3.665  10.559  2.6444  2.3474 -1.3333
17675TIP3   OH274439   1.161   1.545   4.077 -0.4626  0.8413  0.3672
17675TIP3    H174440   1.099   1.597   4.026 -1.9458 -0.6097  0.6095
17675TIP3    H274441   1.130   1.455   4.068 -0.0932  0.3966  2.8642
17676TIP3   OH274442   2.844   5.119   1.730  0.6236  0.0227 -0.0476
17676TIP3    H174443   2.768   5.066   1.752  0.0444  0.3169 -1.2683
17676TIP3    H274444   2.898   5.118   1.809 -0.5540 -0.3374  0.7670
17677TIP3   OH274445   2.920   4.306   3.165 -0.4892 -0.2538 -0.0471
17677TIP3    H174446   2.841   4.293   3.111 -1.6977 -1.1802  1.8488
17677TIP3    H274447   2.887   4.339   3.248  0.8518 -2.6994  1.5743
17678TIP3   OH274448   5.434   3.909   5.359 -0.5408  0.1010  0.5698
17678TIP3    H174449   5.491   3.889   5.433  0.1554  1.9791  0.5781
17678TIP3    H274450   5.493   3.944   5.292 -1.5046  0.8758  0.1039
17679TIP3   OH274451   1.104   6.042   1.484 -0.6419  0.2924 -0.5553
17679TIP3    H174452   1.136   5.960   1.520  2.6553  1.0097 -1.5321
17679TIP3    H274453   1.062   6.086   1.557  1.4563 -0.4052  1.1613
17680TIP3   OH274454   5.092   4.000  14.749  0.6606  0.4247 -0.4948
17680TIP3    H174455   5.174   3.952  14.761  1.3416  1.0895 -2.1953
17680TIP3    H274456   5.040   3.944  14.691 -0.9313 -0.8846  2.0182
17681TIP3   OH274457   4.460   1.911  11.527 -0.4290 -0.3852  0.3869
17681TIP3    H174458   4.539   1.931  11.577 -0.3092  1.6551 -0.5267
17681TIP3    H274459   4.405   1.989  11.536 -1.2388 -0.7548 -1.0442
17682TIP3   OH274460   5.355   3.415  14.914 -0.0071 -0.4753  0.0001
17682TIP3    H174461   5.344   3.337  14.861 -1.6356 -0.5998  0.4602
17682TIP3    H274462   5.277   3.418  14.969 -0.1386  1.6268 -0.2118
17683TIP3   OH274463   4.433   4.393  15.642  0.0647 -0.0755 -0.7822
17683TIP3    H174464   4.423   4.303  15.673  0.5144  0.6771  1.7146
17683TIP3    H274465   4.495   4.433  15.703  1.3181  1.4458 -2.9321
17684TIP3   OH274466   1.533   1.878   2.269  0.3586 -0.2440  0.1443
17684TIP3    H174467   1.441   1.901   2.254  0.0853 -0.6254  1.1562
17684TIP3    H274468   1.546   1.891   2.363  1.3622 -0.1418  0.0032
17685TIP3   OH274469   5.754   0.212   1.063 -0.0478 -0.8240  0.1460
17685TIP3    H174470   5.754   0.131   1.113  0.1264 -1.0941 -0.2796
17685TIP3    H274471   5.664   0.244   1.067 -0.1998 -1.2301  0.0162
17686TIP3   OH274472   4.299   5.906   5.539 -0.2771 -0.4338 -0.3065
17686TIP3    H174473   4.322   5.902   5.631 -0.1999  0.1328 -0.2994
17686TIP3    H274474   4.280   5.815   5.515  1.9783 -0.9422 -0.3358
17687TIP3   OH274475   5.594   1.888   0.530  0.4391  0.4165 -0.1057
17687TIP3    H174476   5.664   1.839   0.487  0.9372  0.3409  0.7631
17687TIP3    H274477   5.579   1.841   0.612  0.9455  1.7060  0.7696
17688TIP3   OH274478   3.150   3.339   3.353  0.2631 -0.0077  0.6380
17688TIP3    H174479   3.198   3.377   3.427 -0.2542  2.4103 -0.1874
17688TIP3    H274480   3.060   3.369   3.365  0.4751  1.8712 -1.8005
17689TIP3   OH274481   3.393   3.927   1.394  0.2552  0.1138  0.6496
17689TIP3    H174482   3.384   3.991   1.464  1.6699 -0.5176  1.4223
17689TIP3    H274483   3.484   3.900   1.396  0.2448 -0.2246 -1.1816
17690TIP3   OH274484   0.112   3.316   1.284  0.1796 -0.2606  0.2818
17690TIP3    H174485   0.073   3.240   1.240 -0.9855  0.9598 -0.8797
17690TIP3    H274486   0.177   3.349   1.222  0.6022 -0.2296  0.7355
17691TIP3   OH274487   2.280   3.647   4.362 -0.2248  0.2098 -0.3424
17691TIP3    H174488   2.209   3.647   4.427 -0.2843 -0.8166 -0.3934
17691TIP3    H274489   2.295   3.554   4.343  1.7705  0.3454  0.3442
17692TIP3   OH274490   0.453   2.327   0.803  0.4605 -0.0797 -0.7254
17692TIP3    H174491   0.501   2.409   0.793 -0.6293  0.4025 -2.6777
17692TIP3    H274492   0.478   2.274   0.727  0.8093 -1.4042  0.2646
17693TIP3   OH274493   6.375   6.625  14.239  0.2341  0.1000  0.2337
17693TIP3    H174494   6.367   6.708  14.288  0.6293  0.7252 -0.7347
17693TIP3    H274495   6.338   6.645  14.153  3.0578  0.1818 -1.0539
17694TIP3   OH274496   0.381   1.336   4.107  0.0900  0.0944  0.1967
17694TIP3    H174497   0.427   1.378   4.035  0.4889  1.7690  1.3818
17694TIP3    H274498   0.361   1.407   4.168  0.4186 -1.3530  2.0962
17695TIP3   OH274499   2.100   6.668  11.157 -0.2247 -0.1006 -0.1816
17695TIP3    H174500   2.118   6.714  11.075 -2.6364  3.6457  1.1017
17695TIP3    H274501   2.011   6.634  11.146 -0.3362 -0.1048  0.6797
17696TIP3   OH274502   6.397   1.202  11.332  0.0308 -0.1418  0.0681
17696TIP3    H174503   6.311   1.198  11.289  0.0245  0.7438 -0.0383
17696TIP3    H274504   6.399   1.127  11.391 -0.6034 -0.4722 -0.3198
17697TIP3   OH274505   0.695   0.026  11.941  0.0082  0.2012  0.1861
17697TIP3    H174506   0.703   0.027  11.845  1.6388  0.8597  0.2792
17697TIP3    H274507   0.784   0.043  11.971  0.4060 -3.9490  1.9018
17698TIP3   OH274508   1.771   0.177  11.474 -0.2854  0.0733  0.0506
17698TIP3    H174509   1.728   0.091  11.472 -2.0194  0.8193  2.0001
17698TIP3    H274510   1.823   0.176  11.555 -2.4627  1.7346  1.5835
17699TIP3   OH274511   1.932   2.711   1.645  0.0551 -0.1771 -0.7661
17699TIP3    H174512   2.020   2.699   1.682 -0.1071  0.3904 -0.1814
17699TIP3    H274513   1.903   2.795   1.680 -0.8782 -0.5453 -0.6481
17700TIP3   OH274514   1.147   1.444   3.085  0.1837 -0.0552 -0.7795
17700TIP3    H174515   1.111   1.514   3.140  1.6014 -0.8606  1.3431
17700TIP3    H274516   1.100   1.365   3.112 -0.1607 -0.2181 -1.8451
17701TIP3   OH274517   0.315   4.725  11.439 -0.6652  0.0436 -0.3363
17701TIP3    H174518   0.304   4.723  11.344 -0.0473 -0.2473 -0.4105
17701TIP3    H274519   0.227   4.717  11.475 -0.9080  0.2707 -0.8880
17702TIP3   OH274520   4.634   4.072   4.000  0.6079  0.1241 -0.2347
17702TIP3    H174521   4.617   4.164   4.022  1.2912  0.3505 -0.6354
17702TIP3    H274522   4.586   4.059   3.918 -0.0613 -0.0833  0.1769
17703TIP3   OH274523   5.416   1.791   1.677  0.1334 -0.3900  0.4315
17703TIP3    H174524   5.406   1.872   1.727 -1.7530  0.4085 -1.0975
17703TIP3    H274525   5.326   1.762   1.659  0.7616 -2.1378 -0.1383
17704TIP3   OH274526   5.831   0.714   0.296  0.5094  0.3427  0.3281
17704TIP3    H174527   5.922   0.687   0.310  0.1191 -1.1446  0.1727
17704TIP3    H274528   5.824   0.728   0.202  0.6472  0.7271  0.3750
17705TIP3   OH274529   5.949   5.175  14.407  0.6209  0.0870  0.4695
17705TIP3    H174530   5.854   5.181  14.410  0.4138 -0.7069 -1.9021
17705TIP3    H274531   5.972   5.207  14.319  2.6530  1.1910  1.3204
17706TIP3   OH274532   2.050   5.359  11.756 -0.1526 -0.4332  0.2602
17706TIP3    H174533   1.970   5.323  11.718  0.0496 -2.0931  1.2890
17706TIP3    H274534   2.050   5.326  11.846  0.3067  1.8371  1.1492
17707TIP3   OH274535   2.800   2.115  13.782  0.0747  0.3769 -0.3005
17707TIP3    H174536   2.780   2.022  13.789  1.8917  0.0553  2.6406
17707TIP3    H274537   2.729   2.158  13.831 -0.5300  0.5324 -1.2904
17708TIP3   OH274538   5.134   1.385  17.024 -0.1834  0.4804  0.2368
17708TIP3    H174539   5.090   1.465  16.995 -1.4918  0.5262  2.1547
17708TIP3    H274540   5.079   1.352  17.095  1.8684 -0.5634  1.4378
17709TIP3   OH274541   6.463   3.275  12.250  0.1481 -0.2840 -0.5041
17709TIP3    H174542   6.524   3.315  12.313  2.3873 -1.6055 -1.6908
17709TIP3    H274543   6.437   3.347  12.193  0.7242  0.2925 -0.0496
17710TIP3   OH274544   4.784   2.456   4.323 -0.2082 -0.3127 -0.1873
17710TIP3    H174545   4.823   2.370   4.338 -0.8354 -0.7151 -0.8171
17710TIP3    H274546   4.698   2.437   4.285 -0.6556  0.5765  0.3510
17711TIP3   OH274547   4.437   0.977   0.333 -0.7383 -0.2462  0.4649
17711TIP3    H174548   4.439   0.886   0.363 -0.3664 -0.9287 -1.4544
17711TIP3    H274549   4.470   1.028   0.406  0.5913 -1.8314  1.0212
17712TIP3   OH274550   1.143   1.911  15.857  0.5489  0.3929 -0.3106
17712TIP3    H174551   1.139   1.817  15.842  0.0791  0.0760  1.6147
17712TIP3    H274552   1.217   1.940  15.803  2.1509 -1.4434  0.7448
17713TIP3   OH274553   4.986   0.283   6.210  0.9136 -0.3616 -0.6047
17713TIP3    H174554   5.014   0.238   6.130  0.9357 -0.8191 -0.3410
17713TIP3    H274555   4.950   0.214   6.265  0.7734 -0.0254 -0.2732
17714TIP3   OH274556   4.345   5.434   2.097 -0.2045 -0.0560 -0.7938
17714TIP3    H174557   4.302   5.518   2.112 -0.1669  0.2684 -2.3131
17714TIP3    H274558   4.428   5.441   2.144 -0.2813  0.6809 -0.7557
17715TIP3   OH274559   4.424   0.436  11.768 -0.0038 -0.0120  0.0137
17715TIP3    H174560   4.467   0.407  11.687  0.4195  0.5428  0.0335
17715TIP3    H274561   4.490   0.422  11.836 -0.6840 -1.3625  0.4257
17716TIP3   OH274562   4.736   1.207  12.753 -0.3262 -0.9744 -0.0717
17716TIP3    H174563   4.653   1.252  12.734 -0.6857 -1.9365 -0.8706
17716TIP3    H274564   4.774   1.256  12.826 -0.9855  0.2499 -0.5276
17717TIP3   OH274565   2.195   5.818  16.636 -0.0209 -0.7607 -0.0342
17717TIP3    H174566   2.276   5.840  16.590 -0.4371  0.1534 -0.3623
17717TIP3    H274567   2.130   5.878  16.599 -1.0102 -1.9340 -0.2586
17718TIP3   OH274568   5.157   4.950   4.721  0.1851 -0.3327  0.7992
17718TIP3    H174569   5.140   4.857   4.736  0.6227 -0.8589 -1.6106
17718TIP3    H274570   5.221   4.974   4.788  0.7065 -1.9998  0.9492
17719TIP3   OH274571   0.004   3.716  13.214 -0.2183  0.0506  0.8030
17719TIP3    H174572   0.063   3.662  13.162 -1.0786  0.3258 -0.5023
17719TIP3    H274573   0.001   3.800  13.169  0.0726  0.7715  2.0794
17720TIP3   OH274574   0.365   1.227  12.461 -0.8716  0.2885  0.3763
17720TIP3    H174575   0.334   1.231  12.371 -1.2405 -1.0151  0.4155
17720TIP3    H274576   0.385   1.318  12.484 -0.2550  0.5846 -1.1776
17721TIP3   OH274577   4.101   2.126   1.412  0.0727 -0.6645  0.1578
17721TIP3    H174578   4.194   2.105   1.403 -0.0346 -2.1509  1.8250
17721TIP3    H274579   4.059   2.079   1.340  0.5668 -0.3015 -0.3741
17722TIP3   OH274580   0.307   5.518  15.680 -0.1775 -0.6983  0.0621
17722TIP3    H174581   0.299   5.524  15.585  0.9707 -1.1505 -0.0741
17722TIP3    H274582   0.224   5.553  15.713 -0.8029 -1.0167 -1.1082
17723TIP3   OH274583   5.258   0.251   5.341  0.1809 -0.4486 -0.5462
17723TIP3    H174584   5.214   0.175   5.381 -0.1399 -0.5437 -1.0656
17723TIP3    H274585   5.338   0.214   5.304  0.0102 -0.5383 -0.8249
17724TIP3   OH274586   6.607   0.558  13.464 -0.3078 -0.3339 -0.0700
17724TIP3    H174587   6.643   0.469  13.465  1.8403  0.4848  0.5623
17724TIP3    H274588   6.629   0.591  13.377 -0.3082 -0.0940  0.0226
17725TIP3   OH274589   0.041   6.162   3.179  0.1606 -0.1728  0.2429
17725TIP3    H174590   0.045   6.250   3.141  0.2674 -0.3598 -0.1927
17725TIP3    H274591  -0.045   6.157   3.220  0.7941  0.7374  1.7700
17726TIP3   OH274592   4.805   4.199   3.086  0.0951 -0.3515  0.0351
17726TIP3    H174593   4.748   4.127   3.059 -0.4979  0.4549 -0.9092
17726TIP3    H274594   4.850   4.166   3.164 -1.9607 -0.8634  1.0739
17727TIP3   OH274595   2.555   4.322   0.167 -0.3382 -0.5502  0.1669
17727TIP3    H174596   2.607   4.388   0.213  0.3732 -2.3215  1.9911
17727TIP3    H274597   2.613   4.289   0.099 -0.2053 -0.3133  0.1641
17728TIP3   OH274598   1.872   3.252   4.383 -0.4605  0.6584  0.1938
17728TIP3    H174599   1.940   3.203   4.429 -0.8903  0.5537  0.7303
17728TIP3    H274600   1.851   3.199   4.306  0.9855  1.3295 -0.7046
17729TIP3   OH274601   5.752   3.637   5.489 -0.2758 -0.2014  0.5412
17729TIP3    H174602   5.794   3.618   5.405 -1.5228  1.9883 -0.6634
17729TIP3    H274603   5.825   3.655   5.548  0.6297  2.1249 -1.1300
17730TIP3   OH274604   0.629   2.533   0.747  0.5490  0.6365  0.5264
17730TIP3    H174605   0.696   2.561   0.810  1.6921  2.1997 -1.2627
17730TIP3    H274606   0.598   2.615   0.708 -0.6539 -0.2384 -0.4307
17731TIP3   OH274607   5.064   0.015   0.406  0.1158  0.7771 -0.2767
17731TIP3    H174608   5.104  -0.070   0.422 -1.8990 -0.5393 -1.6726
17731TIP3    H274609   4.984   0.014   0.459  0.4010  2.0974  0.2119
17732TIP3   OH274610   0.248   2.502  14.482  0.1402  0.2324 -0.4562
17732TIP3    H174611   0.158   2.492  14.514  0.4936  1.2235  0.9309
17732TIP3    H274612   0.242   2.567  14.412 -0.2187  0.3088 -0.3548
17733TIP3   OH274613   5.098   1.324   3.201  0.2575  0.1615  0.2170
17733TIP3    H174614   5.178   1.342   3.252  0.7515  1.5439 -0.9607
17733TIP3    H274615   5.123   1.342   3.110 -0.7362 -1.7577 -0.4924
17734TIP3   OH274616   6.258   6.775   3.249 -0.0289  0.4364  0.1713
17734TIP3    H174617   6.213   6.691   3.260 -0.6049  0.8222  0.8483
17734TIP3    H274618   6.212   6.835   3.307  0.8299  1.0578  0.2349
17735TIP3   OH274619   1.007   4.775  13.427 -0.1800  0.0364  0.1839
17735TIP3    H174620   1.067   4.747  13.358  0.6170  1.2209  0.3669
17735TIP3    H274621   0.923   4.738  13.401  0.1459  0.2405 -1.2973
17736TIP3   OH274622   6.146   3.521  13.950 -0.1179  0.3368 -0.4273
17736TIP3    H174623   6.153   3.428  13.931  0.1535  0.3879 -0.5694
17736TIP3    H274624   6.232   3.557  13.931  0.8665  0.0488  2.8315
17737TIP3   OH274625   1.608   0.679   2.202  0.1491  0.1963 -0.4427
17737TIP3    H174626   1.612   0.764   2.157  0.9671  0.5741  0.3089
17737TIP3    H274627   1.637   0.698   2.291 -0.0692 -0.8029 -0.1514
17738TIP3   OH274628   1.342   5.826  16.875 -0.7223  0.1032  0.0326
17738TIP3    H174629   1.350   5.835  16.780 -2.1487 -2.1983 -0.3753
17738TIP3    H274630   1.249   5.808  16.891 -0.6109  0.8816  1.9466
17739TIP3   OH274631   1.700   6.688   3.042  0.4729 -0.3411 -0.1580
17739TIP3    H174632   1.717   6.598   3.014  0.0617 -0.6249  0.4778
17739TIP3    H274633   1.771   6.740   3.004  0.1624 -0.7790 -1.3491
17740TIP3   OH274634   4.649   3.781  13.996 -0.1127 -0.1644 -0.0487
17740TIP3    H174635   4.708   3.712  13.966  0.4461  1.3485 -2.7429
17740TIP3    H274636   4.632   3.834  13.918 -0.7751  2.5741  1.8094
17741TIP3   OH274637   1.873   0.758   2.715 -0.1553  0.1393 -0.5820
17741TIP3    H174638   1.865   0.853   2.724 -0.3578  0.2392 -1.7463
17741TIP3    H274639   1.892   0.727   2.804 -2.1723  1.0387  0.2169
17742TIP3   OH274640   1.923   5.730   0.466 -0.1711 -0.1256 -0.1361
17742TIP3    H174641   1.934   5.824   0.456  0.6137 -0.1517  0.4222
17742TIP3    H274642   1.900   5.699   0.378  0.0733  0.5171 -0.4297
17743TIP3   OH274643   1.399   0.314   3.081 -0.1591  0.6488  0.4023
17743TIP3    H174644   1.418   0.275   3.166 -1.2782  0.1780  0.4544
17743TIP3    H274645   1.304   0.304   3.071 -0.3234  2.4620 -0.0392
17744TIP3   OH274646   1.449   4.301  13.172  0.2203  0.0149  0.7367
17744TIP3    H174647   1.384   4.273  13.108  3.0942 -0.0536 -2.4231
17744TIP3    H274648   1.408   4.375  13.217 -2.4222 -0.7544 -0.1941
17745TIP3   OH274649   1.643   0.922   3.798  0.4670  0.5468  0.4996
17745TIP3    H174650   1.667   0.908   3.889  0.2218 -0.1907  0.4522
17745TIP3    H274651   1.633   0.834   3.761 -0.6998  0.8212  0.1027
17746TIP3   OH274652   0.529   5.853   3.970  0.3086  0.3595 -0.0559
17746TIP3    H174653   0.482   5.927   4.007 -0.8290  0.1381 -0.9766
17746TIP3    H274654   0.512   5.780   4.030 -0.3962  0.3283 -0.2868
17747TIP3   OH274655   0.413   0.909  11.954 -0.6094  0.5856 -0.0191
17747TIP3    H174656   0.504   0.891  11.977 -0.6608 -1.0472 -0.9680
17747TIP3    H274657   0.420   0.968  11.878 -0.4266  2.9010  1.6725
17748TIP3   OH274658   5.169   1.587  12.310 -0.5763  0.5842 -0.5766
17748TIP3    H174659   5.230   1.513  12.301 -3.4677 -1.8938 -1.1630
17748TIP3    H274660   5.163   1.601  12.404 -1.3487 -1.2056 -0.3251
17749TIP3   OH274661   3.868   2.081   3.097  0.0161 -0.6412 -0.0801
17749TIP3    H174662   3.844   2.114   3.010 -0.3571 -0.9169 -0.0841
17749TIP3    H274663   3.900   2.158   3.144  1.3520 -0.7056 -0.8435
17750TIP3   OH274664   2.507   3.918   2.244 -0.0485 -0.3984  0.0301
17750TIP3    H174665   2.445   3.970   2.193  0.4545  0.9740  0.7945
17750TIP3    H274666   2.503   3.831   2.204 -2.6793 -0.4559  0.1983
17751TIP3   OH274667   1.101   4.543  11.689 -0.0168  0.1948 -0.1690
17751TIP3    H174668   1.129   4.467  11.739  0.0287  0.0325 -0.4412
17751TIP3    H274669   1.017   4.568  11.727 -0.4797 -0.5523 -0.6905
17752TIP3   OH274670   5.988   3.264  14.136  1.1897  0.2834 -0.1011
17752TIP3    H174671   5.994   3.357  14.114  1.0385  0.7261  1.6310
17752TIP3    H274672   5.918   3.259  14.201 -0.4842 -1.4011 -1.8745
17753TIP3   OH274673   3.333   4.521   5.336  0.0072  0.3061  0.3231
17753TIP3    H174674   3.416   4.561   5.310  1.7006 -1.5706  2.4428
17753TIP3    H274675   3.268   4.563   5.280  2.5799  0.4305 -2.8456
17754TIP3   OH274676   2.352   2.765   4.165  0.1584  0.3065 -0.1585
17754TIP3    H174677   2.424   2.825   4.185  1.0172 -0.8758  0.3821
17754TIP3    H274678   2.392   2.679   4.161 -1.1763 -0.3446 -0.2081
17755TIP3   OH274679   6.227   3.824   2.752  0.2990  0.2135  0.1293
17755TIP3    H174680   6.293   3.893   2.748  0.1284  0.4346  0.9386
17755TIP3    H274681   6.184   3.827   2.667 -0.0121  1.4210  0.3041
17756TIP3   OH274682   5.519   2.527   2.821 -0.1504 -1.4949 -0.0431
17756TIP3    H174683   5.552   2.588   2.887 -0.3300  1.1393 -2.2571
17756TIP3    H274684   5.596   2.502   2.771 -0.1973 -2.5524  0.3866
17757TIP3   OH274685   5.780   4.883   5.458 -0.2193  0.3153  0.3231
17757TIP3    H174686   5.717   4.921   5.397  0.6301  1.3402  0.0355
17757TIP3    H274687   5.809   4.958   5.511 -0.3031 -0.4008  1.3950
17758TIP3   OH274688   2.848   2.920   1.351  0.0029  0.1862 -0.0812
17758TIP3    H174689   2.866   2.973   1.429  1.8437  0.6707 -0.7894
17758TIP3    H274690   2.898   2.962   1.281  1.8128 -2.6272 -0.6129
17759TIP3   OH274691   6.272   0.753  11.629 -0.4963 -0.0525 -0.2910
17759TIP3    H174692   6.360   0.720  11.650 -0.2946 -0.7036 -2.0164
17759TIP3    H274693   6.213   0.692  11.673 -0.1061  0.2582  0.6949
17760TIP3   OH274694   4.345   2.593  15.758  0.0764  0.0175  0.5080
17760TIP3    H174695   4.317   2.661  15.697 -0.3528 -0.9720 -0.4403
17760TIP3    H274696   4.296   2.610  15.838  2.0241  2.4585  1.3065
17761TIP3   OH274697   4.068   5.096   5.336 -0.1174  0.5344  0.0556
17761TIP3    H174698   3.974   5.098   5.319 -0.3839 -1.0368  1.1072
17761TIP3    H274699   4.083   5.012   5.380  2.3150 -0.8725 -3.0693
17762TIP3   OH274700   1.491   6.548  13.458  0.2302 -0.4079  0.0946
17762TIP3    H174701   1.432   6.623  13.466  2.4788  1.4841 -0.2027
17762TIP3    H274702   1.435   6.478  13.423 -1.7668  1.3469 -0.4554
17763TIP3   OH274703   1.922   0.653  15.841 -0.2023  0.3841  0.5174
17763TIP3    H174704   1.944   0.723  15.780  0.0037  1.3004  1.6135
17763TIP3    H274705   1.829   0.635  15.823  0.0986 -0.0454 -0.7113
17764TIP3   OH274706   0.071   3.843   0.103 -0.6782 -0.0530  0.2160
17764TIP3    H174707   0.104   3.797   0.180 -1.0730 -0.9996 -0.1726
17764TIP3    H274708   0.075   3.936   0.127  0.5082 -0.2588  0.8504
17765TIP3   OH274709   6.035   2.287   0.457 -0.1524  0.0074  0.1908
17765TIP3    H174710   5.986   2.240   0.389 -1.5759 -0.1412  1.2744
17765TIP3    H274711   6.090   2.221   0.497 -1.0433 -0.4266  0.7176
17766TIP3   OH274712   4.954   5.001   2.558 -0.1041 -0.0268 -0.7394
17766TIP3    H174713   4.953   4.915   2.516  0.3038 -0.3022 -0.1967
17766TIP3    H274714   5.046   5.026   2.559 -0.0362 -0.2843  0.4975
17767TIP3   OH274715   0.725   3.627  13.466 -0.1012  0.4776  0.0746
17767TIP3    H174716   0.714   3.579  13.384 -0.1277  1.2204 -0.3680
17767TIP3    H274717   0.804   3.679  13.452  0.0392  0.4148  0.6214
17768TIP3   OH274718   3.952   1.820  17.114 -0.3108 -0.0400 -0.0166
17768TIP3    H174719   4.003   1.860  17.184  0.4832 -0.3295 -0.4287
17768TIP3    H274720   3.908   1.893  17.071  2.1283  0.6168 -1.5902
17769TIP3   OH274721   4.615   2.915  14.485  0.3074 -0.0572  0.2877
17769TIP3    H174722   4.683   2.968  14.527  0.5902  0.2669 -0.5578
17769TIP3    H274723   4.644   2.825  14.495  0.2911  0.0094  0.9276
17770TIP3   OH274724   0.275   1.229  13.014  0.8295 -0.0604  0.5292
17770TIP3    H174725   0.317   1.238  13.100 -0.9394  0.7433  1.3589
17770TIP3    H274726   0.247   1.138  13.010 -1.1352  0.4219  1.8678
17771TIP3   OH274727   3.074   1.182  17.061 -0.7597  0.6374 -0.4624
17771TIP3    H174728   2.984   1.188  17.031 -0.6512  1.7513 -0.6156
17771TIP3    H274729   3.125   1.228  16.993 -0.1482  0.4962 -0.1090
17772TIP3   OH274730   5.322   4.265   3.118 -0.4695  0.1687 -0.4890
17772TIP3    H174731   5.250   4.294   3.060  0.6099  0.0710 -1.9387
17772TIP3    H274732   5.331   4.172   3.099 -1.5462 -0.3991  1.5207
17773TIP3   OH274733   3.423   5.032  15.251 -0.6012  0.6834  0.1388
17773TIP3    H174734   3.342   5.026  15.199  0.0671 -1.5791 -0.7682
17773TIP3    H274735   3.405   4.980  15.329 -0.2968  0.8390  0.3117
17774TIP3   OH274736   5.667   0.851   5.919  0.3755  0.3741 -0.3559
17774TIP3    H174737   5.647   0.757   5.919  1.5744  0.0919  0.2849
17774TIP3    H274738   5.647   0.880   5.830  0.1142 -0.5215 -0.5993
17775TIP3   OH274739   3.660   0.615  16.372 -0.4377 -0.4383 -0.4074
17775TIP3    H174740   3.639   0.671  16.447 -0.4041 -0.3242 -0.4826
17775TIP3    H274741   3.610   0.653  16.300  0.7549  0.4259 -0.8123
17776TIP3   OH274742   5.827   3.016  15.471  0.6335  0.7005  0.8944
17776TIP3    H174743   5.740   2.985  15.494  0.5658 -0.5485 -0.8338
17776TIP3    H274744   5.870   3.031  15.555 -0.3337 -1.3693  1.8420
17777TIP3   OH274745   3.842   0.604  14.579 -0.1062 -0.7766 -0.7891
17777TIP3    H174746   3.921   0.614  14.526  0.1560 -0.1814 -0.2991
17777TIP3    H274747   3.774   0.650  14.531  0.5097  1.2850  0.1809
17778TIP3   OH274748   1.306   1.943   1.447 -0.4337  0.9373 -0.4710
17778TIP3    H174749   1.359   2.012   1.408  1.1905 -0.7083 -1.2990
17778TIP3    H274750   1.365   1.868   1.454 -2.5896 -0.9372 -1.2465
17779TIP3   OH274751   5.034   0.010   4.280  0.2214  0.3373 -0.7111
17779TIP3    H174752   5.029  -0.002   4.375  1.8183 -0.4314 -0.6887
17779TIP3    H274753   5.112  -0.039   4.254 -1.3199 -1.2325 -2.7176
17780TIP3   OH274754   2.229   6.400   5.074 -0.2012  0.0455 -0.3590
17780TIP3    H174755   2.206   6.336   5.007  0.5877 -0.8153  0.1868
17780TIP3    H274756   2.215   6.485   5.031 -2.2579 -0.4393 -0.7563
17781TIP3   OH274757   4.983   6.239   3.387 -0.4397 -0.2559 -0.2805
17781TIP3    H174758   4.944   6.227   3.300  0.4590 -0.9426 -0.6055
17781TIP3    H274759   5.054   6.175   3.390  0.8231  1.1145  0.2117
17782TIP3   OH274760   4.668   3.876  11.700 -0.4033 -0.8006 -0.1522
17782TIP3    H174761   4.706   3.791  11.677  0.8636 -0.2720 -0.0599
17782TIP3    H274762   4.613   3.899  11.625  1.3453 -0.4749 -1.3791
17783TIP3   OH274763   4.346   4.253   3.182  0.0918 -0.3948  0.4560
17783TIP3    H174764   4.319   4.161   3.175  1.4319 -0.7704 -0.1353
17783TIP3    H274765   4.325   4.278   3.272 -2.4688 -0.5242 -0.0285
17784TIP3   OH274766   2.092   1.016   3.994  0.2540 -0.0930  0.6345
17784TIP3    H174767   2.032   1.085   4.024  1.4776  0.2987  2.3244
17784TIP3    H274768   2.071   1.006   3.901 -1.0167  1.4651  0.6935
17785TIP3   OH274769   3.111   5.233   4.473  0.4610 -0.3062 -0.1462
17785TIP3    H174770   3.113   5.303   4.538 -0.8253 -0.2595 -0.1434
17785TIP3    H274771   3.187   5.178   4.496 -0.2770 -0.5992  1.7617
17786TIP3   OH274772   2.832   4.994   3.760  0.5927  0.1919 -0.1411
17786TIP3    H174773   2.792   4.954   3.683  1.3450  1.0874 -1.0044
17786TIP3    H274774   2.773   4.969   3.832 -0.2202 -0.4953 -1.0160
17787TIP3   OH274775   3.736   4.974   1.815 -0.3541 -0.0586  0.5411
17787TIP3    H174776   3.747   4.893   1.866 -0.0467  0.2694  0.9982
17787TIP3    H274777   3.734   5.043   1.881 -1.2666  0.2507  0.2010
17788TIP3   OH274778   0.213   3.006   5.181 -0.4498  0.1012  0.2486
17788TIP3    H174779   0.260   3.062   5.118 -2.0495  0.5135 -0.6384
17788TIP3    H274780   0.182   2.932   5.129 -2.4937  0.8487  0.2942
17789TIP3   OH274781   3.915   4.857  13.121  0.7923 -0.0585  0.5220
17789TIP3    H174782   3.923   4.934  13.177 -0.9240  0.3898  0.1936
17789TIP3    H274783   3.949   4.886  13.036 -2.4865  1.3762 -0.4638
17790TIP3   OH274784   2.155   6.424  17.165 -0.8850  0.0646  0.2416
17790TIP3    H174785   2.061   6.405  17.162 -1.0732  0.3446  2.5712
17790TIP3    H274786   2.195   6.360  17.107 -2.3748 -1.1796  0.5308
17791TIP3   OH274787   4.815   4.736  14.130 -0.0250  0.5710 -0.7743
17791TIP3    H174788   4.738   4.781  14.165 -0.7006 -0.1944 -1.2285
17791TIP3    H274789   4.779   4.658  14.087  1.0822 -0.2235 -0.3048
17792TIP3   OH274790   5.731   6.286  15.716 -0.1538  0.1395  0.1097
17792TIP3    H174791   5.639   6.295  15.694 -0.8076 -3.5640  0.7462
17792TIP3    H274792   5.744   6.344  15.791 -1.3151  2.3699 -1.3008
17793TIP3   OH274793   3.894   3.635   0.932  0.2179  0.0315 -0.0865
17793TIP3    H174794   3.915   3.543   0.947  0.5803  0.1344  0.0513
17793TIP3    H274795   3.939   3.657   0.851 -0.9451 -0.2600 -0.8328
17794TIP3   OH274796   5.415   0.333   4.732  0.0408 -1.0200 -0.0811
17794TIP3    H174797   5.449   0.294   4.651  1.8109  1.4673 -0.6696
17794TIP3    H274798   5.476   0.404   4.751 -1.5485 -0.1815  2.2979
17795TIP3   OH274799   3.976   5.689  11.758  0.5789 -0.0227 -0.3047
17795TIP3    H174800   3.995   5.597  11.740  0.9723 -0.3254  1.4283
17795TIP3    H274801   4.055   5.736  11.730  1.5000 -0.5630  1.2152
17796TIP3   OH274802   3.897   0.302  13.550  0.1656 -0.2727  0.4210
17796TIP3    H174803   3.922   0.291  13.642 -0.2677  2.8230  1.0117
17796TIP3    H274804   3.842   0.380  13.549 -2.0329 -1.6771 -2.1431
17797TIP3   OH274805   1.467   2.817  13.056 -1.1013  0.4013  0.3547
17797TIP3    H174806   1.466   2.844  12.964  1.2878 -1.6462 -0.3695
17797TIP3    H274807   1.413   2.738  13.058  1.3090 -1.3595 -0.0325
17798TIP3   OH274808   5.536   5.334   5.971 -0.2970  0.0813  0.5133
17798TIP3    H174809   5.536   5.239   5.960  0.0467  0.1235  0.1211
17798TIP3    H274810   5.505   5.348   6.060 -3.0930 -0.2968 -0.3042
17799TIP3   OH274811   2.895   0.242   4.309 -0.0312 -0.4850 -0.3748
17799TIP3    H174812   2.836   0.274   4.241  0.7405  0.3624 -0.6733
17799TIP3    H274813   2.838   0.222   4.383 -0.8006 -0.7179 -1.0063
17800TIP3   OH274814   1.377   0.629   1.480  0.3074 -0.5972  0.4821
17800TIP3    H174815   1.420   0.627   1.394 -1.3592 -0.8001 -0.3838
17800TIP3    H274816   1.424   0.563   1.532  0.7783 -1.0929 -0.5419
17801TIP3   OH274817   2.786   6.472   4.786  0.1037 -0.2017 -0.2793
17801TIP3    H174818   2.875   6.496   4.811 -0.1812  0.6671 -0.0817
17801TIP3    H274819   2.745   6.443   4.867 -0.7518  2.4083  0.3031
17802TIP3   OH274820   5.127   2.378   1.910  0.1294  1.2315 -0.0458
17802TIP3    H174821   5.201   2.427   1.877  0.8513 -0.3849 -0.9529
17802TIP3    H274822   5.164   2.294   1.939 -1.2452  0.6065  0.0119
17803TIP3   OH274823   1.463   4.483  16.043 -0.6283  0.0977  0.0634
17803TIP3    H174824   1.485   4.420  16.112  0.8842  1.5101  0.9780
17803TIP3    H274825   1.441   4.563  16.090 -1.6867  0.5107 -1.0788
17804TIP3   OH274826   6.374   5.769   0.846  0.2017  0.0266  0.5118
17804TIP3    H174827   6.411   5.689   0.810 -2.8486 -1.2975  0.0579
17804TIP3    H274828   6.381   5.833   0.776  0.2094 -0.6388 -0.1001
17805TIP3   OH274829   6.524   3.569   3.337 -0.5870  0.0268 -0.5994
17805TIP3    H174830   6.533   3.571   3.433 -0.9628  1.7593 -0.5752
17805TIP3    H274831   6.441   3.525   3.322  0.0225 -1.3403 -0.2079
17806TIP3   OH274832   4.112   6.627   3.929  0.1867 -0.0010 -0.0037
17806TIP3    H174833   4.170   6.592   3.861  0.8262 -0.5253  0.7993
17806TIP3    H274834   4.029   6.644   3.883  1.2675  1.7894 -1.4200
17807TIP3   OH274835   3.575   2.676  13.860 -0.6379  0.4509  0.1075
17807TIP3    H174836   3.587   2.599  13.805 -0.0326  0.6977 -0.1146
17807TIP3    H274837   3.596   2.646  13.948  2.4318  1.0122 -0.3347
17808TIP3   OH274838   5.874   4.134  13.175 -0.1204 -0.3134 -0.0424
17808TIP3    H174839   5.858   4.161  13.085 -1.1381  0.1517  0.2511
17808TIP3    H274840   5.799   4.169  13.224 -0.1268 -1.4408  0.8101
17809TIP3   OH274841   6.046   4.713   6.313 -0.1524  0.1242 -0.0215
17809TIP3    H174842   6.078   4.626   6.288 -0.1536  0.8159 -2.7954
17809TIP3    H274843   5.953   4.711   6.291 -0.3271  0.6060  0.6410
17810TIP3   OH274844   2.173   5.657   3.450  0.0599 -0.3397  0.4290
17810TIP3    H174845   2.182   5.679   3.543  0.4347  1.0752  0.0701
17810TIP3    H274846   2.252   5.606   3.430  0.4723  0.2165  0.6415
17811TIP3   OH274847   4.669   4.993  13.917  0.2974 -0.4468  0.1063
17811TIP3    H174848   4.620   4.912  13.902  1.5576 -1.1102 -0.6470
17811TIP3    H274849   4.643   5.021  14.004 -1.1602 -0.9357 -0.1379
17812TIP3   OH274850   4.799   3.129   1.216 -0.2642  0.1094  0.1741
17812TIP3    H174851   4.890   3.141   1.187  0.0314 -1.9246  0.0989
17812TIP3    H274852   4.778   3.040   1.189 -1.8666  0.1085  1.3459
17813TIP3   OH274853   0.228   0.690  11.567 -0.1996  0.7380 -0.5466
17813TIP3    H174854   0.265   0.627  11.506 -1.7303 -1.4843  0.6956
17813TIP3    H274855   0.298   0.704  11.632  0.1531  0.2981 -0.8251
17814TIP3   OH274856   3.389   5.483  12.925 -0.5526 -0.5705  0.4011
17814TIP3    H174857   3.430   5.456  12.843  0.0172 -0.1333  0.5405
17814TIP3    H274858   3.361   5.573  12.910  1.6361  0.3421  1.4341
17815TIP3   OH274859   1.060   1.168   2.187  0.1089  0.1267 -0.5420
17815TIP3    H174860   1.082   1.193   2.097  1.0376 -0.5293 -0.5103
17815TIP3    H274861   0.994   1.100   2.177  0.8442 -0.5729 -0.7767
17816TIP3   OH274862   0.732   4.542   5.192 -0.0540 -0.3929  0.2211
17816TIP3    H174863   0.812   4.539   5.245  0.7695  1.1964 -0.8495
17816TIP3    H274864   0.738   4.466   5.134  1.6127  0.6625 -1.0696
17817TIP3   OH274865   6.390   0.143  15.688 -0.1443 -0.0519 -0.5156
17817TIP3    H174866   6.449   0.179  15.755 -0.7706  0.5911 -0.3002
17817TIP3    H274867   6.305   0.183  15.707 -1.2344 -2.6530  0.5670
17818TIP3   OH274868   4.306   5.106  11.743  0.4479 -0.1174 -0.1630
17818TIP3    H174869   4.252   5.032  11.716 -1.5445  1.7779 -1.6669
17818TIP3    H274870   4.386   5.098  11.691 -0.2926 -0.5410 -1.2720
17819TIP3   OH274871   4.334   6.714  14.039  0.1984 -0.8790  0.0392
17819TIP3    H174872   4.336   6.623  14.008 -1.6084 -0.5291 -1.2159
17819TIP3    H274873   4.412   6.754  14.001  0.4916 -1.6526 -0.2023
17820TIP3   OH274874   3.113   4.906   0.668 -0.6263  0.0563  0.1648
17820TIP3    H174875   3.024   4.900   0.705 -0.3585 -0.8608  0.6994
17820TIP3    H274876   3.156   4.826   0.697  0.5903  0.7919  0.4583
17821TIP3   OH274877   2.182   1.540   5.863  0.1647 -0.3603  0.1826
17821TIP3    H174878   2.239   1.500   5.797 -0.0561 -0.3498 -0.0178
17821TIP3    H274879   2.219   1.513   5.946 -0.6636 -2.0037  0.0674
17822TIP3   OH274880   1.423   2.854  16.906 -0.1518 -0.0144  0.8086
17822TIP3    H174881   1.466   2.824  16.986  2.3953 -0.0617 -0.5054
17822TIP3    H274882   1.487   2.911  16.863 -2.0887  1.3755 -0.4094
17823TIP3   OH274883   4.152   6.364  11.959 -0.0690  0.0941 -0.3777
17823TIP3    H174884   4.072   6.377  11.909 -1.9689 -0.0333  2.4174
17823TIP3    H274885   4.146   6.275  11.992 -0.0268  0.8452  1.8280
17824TIP3   OH274886   4.193   5.186  16.953  0.5662  0.1403  0.2717
17824TIP3    H174887   4.246   5.162  16.877  1.3387  0.4062  0.7063
17824TIP3    H274888   4.103   5.178  16.923  0.7938 -2.2530  0.0832
17825TIP3   OH274889   6.626   2.498   4.620 -0.3374  0.3795 -1.3254
17825TIP3    H174890   6.590   2.536   4.539  1.9329  1.8872 -1.7324
17825TIP3    H274891   6.718   2.527   4.621 -0.0392 -0.3892  1.3311
17826TIP3   OH274892   5.612   0.559   5.367 -0.1609  0.0712 -0.0131
17826TIP3    H174893   5.691   0.516   5.335 -0.1212 -0.6180  0.9693
17826TIP3    H274894   5.610   0.643   5.321  0.6464 -0.2847 -0.7259
17827TIP3   OH274895   5.111   4.243   4.330  0.0495 -0.1675 -0.4722
17827TIP3    H174896   5.199   4.281   4.337 -0.0684  0.3317 -1.5653
17827TIP3    H274897   5.082   4.235   4.421  0.6197  1.1131 -0.1535
17828TIP3   OH274898   6.034   2.072  16.688  0.1821 -0.3329 -0.0639
17828TIP3    H174899   5.942   2.101  16.687  0.0438 -0.7546  0.0622
17828TIP3    H274900   6.082   2.143  16.646 -0.0362  0.4664  1.0011
17829TIP3   OH274901   2.995   3.781   0.901 -0.3434 -0.5351  0.9114
17829TIP3    H174902   2.957   3.781   0.813 -0.9625 -3.2805  1.1015
17829TIP3    H274903   3.017   3.873   0.917 -0.6939  0.1282 -1.8784
17830TIP3   OH274904   5.864   2.186   3.958 -0.5855 -0.1590 -0.2690
17830TIP3    H174905   5.879   2.098   3.921 -1.9190 -0.6905  0.4070
17830TIP3    H274906   5.922   2.243   3.906 -1.1804 -1.1199 -2.1018
17831TIP3   OH274907   4.646   3.261  12.861 -0.2654 -0.3264 -0.3051
17831TIP3    H174908   4.581   3.196  12.889  0.4894 -1.1277 -0.3594
17831TIP3    H274909   4.602   3.311  12.792 -1.7180  0.8480  1.3681
17832TIP3   OH274910   4.785   3.960   5.379  0.7266 -0.0832 -0.0136
17832TIP3    H174911   4.820   4.031   5.432  0.1638  1.6847 -1.8994
17832TIP3    H274912   4.860   3.924   5.333  0.8463  0.0436  0.0845
17833TIP3   OH274913   5.234   2.668   4.525  0.1672  0.2459 -0.2465
17833TIP3    H174914   5.169   2.737   4.526  4.5035  4.9412  1.3098
17833TIP3    H274915   5.269   2.666   4.614  1.3911 -2.9046 -0.6562
17834TIP3   OH274916   6.122   3.089  11.319 -0.0143  0.0114 -0.1091
17834TIP3    H174917   6.033   3.120  11.302  0.2174  2.2277  2.0761
17834TIP3    H274918   6.119   2.995  11.300 -2.4226  0.2681 -1.4272
17835TIP3   OH274919   4.572   0.223   0.427  0.2687  0.3651 -0.3565
17835TIP3    H174920   4.623   0.142   0.417  0.7419  0.6054  0.0719
17835TIP3    H274921   4.612   0.267   0.502 -2.8338 -1.1722  2.4618
17836TIP3   OH274922   3.385   1.537  13.714 -0.3917 -0.1357  0.6235
17836TIP3    H174923   3.374   1.498  13.628 -0.0705  1.2150 -0.0602
17836TIP3    H274924   3.480   1.535  13.730 -0.2842  1.0535  0.2216
17837TIP3   OH274925   1.736   2.579  16.773 -0.0288  0.5236  0.2707
17837TIP3    H174926   1.643   2.561  16.783  0.1297 -1.2729 -0.8766
17837TIP3    H274927   1.756   2.551  16.683  1.4713  1.5355  0.2539
17838TIP3   OH274928   1.974   3.260   6.070 -0.1737 -0.6504  0.2970
17838TIP3    H174929   1.912   3.224   6.134 -2.7053  2.7344  0.0452
17838TIP3    H274930   1.924   3.265   5.988  1.0724  0.3497 -0.4468
17839TIP3   OH274931   5.783   5.678   2.513  0.3299  0.0489 -0.2803
17839TIP3    H174932   5.690   5.668   2.535  0.1294  0.6653 -0.8167
17839TIP3    H274933   5.805   5.766   2.543  0.0721  0.8887 -2.3851
17840TIP3   OH274934   4.713   6.381  16.008  0.0018  0.4110  0.4163
17840TIP3    H174935   4.800   6.369  15.968 -0.1228  1.4654 -0.2053
17840TIP3    H274936   4.698   6.476  16.004 -1.0896  0.2570  0.7310
17841TIP3   OH274937   5.973   2.391  14.477 -0.1134  0.1040  0.5233
17841TIP3    H174938   6.046   2.395  14.538  0.5158  1.4924 -0.2613
17841TIP3    H274939   5.970   2.478  14.437 -2.1894  0.0888  0.5061
17842TIP3   OH274940   6.329   0.118  15.402  0.5533 -0.2713  0.5515
17842TIP3    H174941   6.291   0.175  15.335  2.7958 -0.5881 -1.1000
17842TIP3    H274942   6.384   0.175  15.455  0.0413 -0.3114  1.1390
17843TIP3   OH274943   2.974   1.287  14.399 -0.5692  0.1575  0.4260
17843TIP3    H174944   2.960   1.253  14.487  1.5901  1.2403  1.2666
17843TIP3    H274945   2.927   1.370  14.397 -1.5123 -0.3701  0.1610
17844TIP3   OH274946   5.513   2.833  12.964 -0.2124  0.0997  0.9074
17844TIP3    H174947   5.503   2.739  12.980 -1.9923  0.2981  1.1977
17844TIP3    H274948   5.560   2.838  12.882 -1.5805 -1.0988 -0.0096
17845TIP3   OH274949   5.140   2.319  11.198  0.2862  0.0835 -0.8539
17845TIP3    H174950   5.083   2.394  11.217  2.2616  1.5961 -0.4989
17845TIP3    H274951   5.160   2.328  11.104  0.6893  0.1313 -0.7646
17846TIP3   OH274952   2.241   2.149   6.421 -0.1209  0.9176  0.3064
17846TIP3    H174953   2.190   2.171   6.343 -0.2607  1.0731  0.4433
17846TIP3    H274954   2.323   2.198   6.410  0.2904  0.1288 -0.2559
17847TIP3   OH274955   1.619   4.345   0.645 -0.1794 -0.4116  0.1035
17847TIP3    H174956   1.572   4.400   0.707  0.4040 -0.3128  0.4629
17847TIP3    H274957   1.681   4.405   0.602  1.0034 -0.9333  1.0508
17848TIP3   OH274958   0.021   0.846  13.972 -0.3216 -0.2295 -0.1613
17848TIP3    H174959   0.058   0.883  14.052  1.9857 -0.4652 -1.0531
17848TIP3    H274960   0.067   0.763  13.960  0.8703  0.7131 -2.7580
17849TIP3   OH274961   6.251   2.487  11.792 -0.1346  0.3526  0.1787
17849TIP3    H174962   6.231   2.483  11.886  2.2799 -0.6680  0.7400
17849TIP3    H274963   6.259   2.395  11.766 -1.7235  0.5825 -1.3261
17850TIP3   OH274964   5.684   5.523  16.933 -0.7484 -0.7793  0.4780
17850TIP3    H174965   5.619   5.585  16.899  0.9132  1.3334  0.8817
17850TIP3    H274966   5.685   5.539  17.027  0.1884 -0.9273  0.4999
17851TIP3   OH274967   1.701   3.355  12.118  0.2943  0.3656  0.1740
17851TIP3    H174968   1.691   3.260  12.127 -0.3232  0.3408 -0.6118
17851TIP3    H274969   1.614   3.389  12.140 -0.0439  0.5932 -1.4521
17852TIP3   OH274970   2.313   6.023   5.171  0.1955  0.0491  0.0995
17852TIP3    H174971   2.277   6.112   5.174 -1.1216 -0.4850  0.7817
17852TIP3    H274972   2.284   5.983   5.253 -0.5808 -1.5154 -0.8961
17853TIP3   OH274973   5.371   6.265   1.120  0.1916 -0.0861 -0.1480
17853TIP3    H174974   5.320   6.200   1.072 -0.0091  0.0943 -0.1823
17853TIP3    H274975   5.449   6.279   1.066  0.4052 -0.5582  0.0364
17854TIP3   OH274976   5.273   3.929  11.137 -0.3492 -0.2323 -0.2610
17854TIP3    H174977   5.292   4.022  11.128 -0.8080 -0.1212 -0.1316
17854TIP3    H274978   5.342   3.895  11.193  1.4404 -0.5480 -2.5161
17855TIP3   OH274979   3.727   0.566  10.813 -0.2761  0.2476  0.0068
17855TIP3    H174980   3.782   0.508  10.759  1.6309  1.8336  0.1143
17855TIP3    H274981   3.649   0.515  10.831  0.8023 -1.8429 -0.8749
17856TIP3   OH274982   6.377   2.993   0.180  0.0646 -0.3950 -0.6134
17856TIP3    H174983   6.412   3.026   0.097  1.8319 -2.3616 -0.7491
17856TIP3    H274984   6.406   2.902   0.183  0.1035 -0.3651  2.1969
17857TIP3   OH274985   6.588   0.890   0.904 -0.2847 -0.1972 -0.6520
17857TIP3    H174986   6.612   0.924   0.818  0.0470 -0.0064 -0.4856
17857TIP3    H274987   6.648   0.817   0.919  0.4555  0.5180 -0.0713
17858TIP3   OH274988   5.715   6.002  15.731  0.2757 -0.0083 -0.3219
17858TIP3    H174989   5.679   6.018  15.818 -1.3922 -0.5627 -0.8709
17858TIP3    H274990   5.715   6.089  15.690  0.7182  0.1940  0.0914
17859TIP3   OH274991   4.139   2.748  11.752 -0.7129  0.6410  0.1805
17859TIP3    H174992   4.152   2.839  11.780 -0.1464  0.5939  0.0861
17859TIP3    H274993   4.214   2.701  11.787 -1.6462 -0.0530  1.2936
17860TIP3   OH274994   1.632   2.006   0.341  0.0397  0.5457  0.5299
17860TIP3    H174995   1.541   2.009   0.313 -1.4936  1.9229  4.7694
17860TIP3    H274996   1.653   1.913   0.345 -0.9681  0.2174 -0.9607
17861TIP3   OH274997   3.760   0.718  12.534 -0.4754 -0.6642 -0.1709
17861TIP3    H174998   3.722   0.657  12.598  0.3837  0.1933  1.2215
17861TIP3    H274999   3.685   0.763  12.497 -0.9584 -0.0448  1.4479
17862TIP3   OH275000   0.928   0.842  12.262 -0.4037  0.7958  0.0609
17862TIP3    H175001   0.889   0.797  12.336 -0.8348  1.4385  0.2293
17862TIP3    H275002   0.999   0.895  12.300 -1.4004  2.0815  0.2157
17863TIP3   OH275003   3.348   0.927   2.453  0.4970 -0.5547 -0.7464
17863TIP3    H175004   3.415   0.900   2.516 -0.1353  0.7129  0.5284
17863TIP3    H275005   3.384   1.006   2.412  0.3253 -0.6072 -1.0023
17864TIP3   OH275006   4.014   1.304   5.966  0.6626  0.1640 -0.0185
17864TIP3    H175007   4.039   1.291   6.058  0.9604 -0.0893 -0.1344
17864TIP3    H275008   4.023   1.399   5.953 -1.4247  0.5344  0.7920
17865TIP3   OH275009   3.091   4.311  12.124 -0.2435  0.1019  0.5306
17865TIP3    H175010   3.146   4.240  12.157 -1.3907 -0.1836  1.9722
17865TIP3    H275011   3.147   4.389  12.126  0.6030 -0.4925  0.2994
17866TIP3   OH275012   6.636   2.958  12.107  0.2354  0.3464  0.2601
17866TIP3    H175013   6.690   2.886  12.141  1.1977 -0.0926 -2.0030
17866TIP3    H275014   6.688   3.036  12.122  1.4247 -0.0341 -1.5635
17867TIP3   OH275015   3.989   6.531  16.598  0.2784 -0.4415 -0.3254
17867TIP3    H175016   3.979   6.457  16.538  1.2087 -0.1570 -0.8589
17867TIP3    H275017   4.083   6.537  16.612  0.1737  0.3855  0.0507
17868TIP3   OH275018   1.802   3.997  16.505  0.2731  0.0241  0.1147
17868TIP3    H175019   1.819   4.024  16.415  0.3754 -0.4714 -0.0137
17868TIP3    H275020   1.707   4.006  16.516  0.2991  0.3885  0.0597
17869TIP3   OH275021   4.947   2.585  14.391  0.0338 -0.3087 -0.0462
17869TIP3    H175022   5.012   2.554  14.328 -0.1293 -1.1553  0.1842
17869TIP3    H275023   4.953   2.523  14.464 -2.0972 -1.3254 -0.6870
17870TIP3   OH275024   1.253   5.849   5.703  0.0328  0.0459  0.2524
17870TIP3    H175025   1.333   5.897   5.681  1.1953 -1.4562  1.0223
17870TIP3    H275026   1.258   5.836   5.798 -0.8919 -0.4946  0.2393
17871TIP3   OH275027   0.983   0.546   2.923 -0.1639  0.1980 -0.4108
17871TIP3    H175028   1.066   0.588   2.945  0.8925 -2.6108  1.5494
17871TIP3    H275029   0.928   0.558   3.001 -1.2779  1.1703 -1.3057
17872TIP3   OH275030   5.413   0.111  14.557 -0.5111 -0.3790 -0.1831
17872TIP3    H175031   5.319   0.094  14.550 -1.2758  2.6558  1.2551
17872TIP3    H275032   5.440   0.063  14.636 -1.0526 -0.4851 -0.0564
17873TIP3   OH275033   4.706   3.831  17.139 -0.0315 -0.1145  0.0872
17873TIP3    H175034   4.637   3.788  17.189  0.6807 -0.8601  0.4566
17873TIP3    H275035   4.759   3.875  17.205 -1.3722  2.3424 -0.3622
17874TIP3   OH275036   5.868   2.421  11.451 -0.5270 -0.2326  0.3499
17874TIP3    H175037   5.963   2.428  11.439 -0.5088 -0.8267  0.1242
17874TIP3    H275038   5.832   2.489  11.393 -0.3444 -1.7522 -1.6385
17875TIP3   OH275039   2.464   0.605   2.792 -0.6622  0.3733  0.3648
17875TIP3    H175040   2.454   0.700   2.794 -1.7565  0.2730  0.0213
17875TIP3    H275041   2.376   0.572   2.774 -0.1593 -0.6778 -0.1992
17876TIP3   OH275042   3.374   4.648  14.072  0.7677  0.1119  0.2247
17876TIP3    H175043   3.355   4.561  14.107  1.4862 -0.7907 -1.5061
17876TIP3    H275044   3.467   4.661  14.091  0.5951  0.6469  0.7312
17877TIP3   OH275045   5.114   6.223  11.074  0.1534  0.2944  0.0796
17877TIP3    H175046   5.148   6.289  11.134  1.1374 -0.1883  0.0801
17877TIP3    H275047   5.020   6.220  11.092  0.4906 -0.1912  1.9544
17878TIP3   OH275048   2.513   4.098  16.171 -0.5872  0.0710  0.4698
17878TIP3    H175049   2.450   4.103  16.242 -0.7018  1.7584  0.2754
17878TIP3    H275050   2.460   4.105  16.091 -0.3264 -0.4270  0.2451
17879TIP3   OH275051   3.058   1.554   1.902 -0.2288  0.0229  0.0593
17879TIP3    H175052   3.129   1.617   1.912 -0.4589  0.2978 -0.0253
17879TIP3    H275053   2.989   1.587   1.959 -0.8425  0.5618 -0.9720
17880TIP3   OH275054   4.709   4.474   4.260 -0.0920  0.0598 -0.8297
17880TIP3    H175055   4.711   4.493   4.166  2.4497  1.7798 -0.5089
17880TIP3    H275056   4.764   4.396   4.270 -1.3069 -0.8266 -0.8578
17881TIP3   OH275057   0.814   5.728   4.422 -0.4076  0.0870 -0.0337
17881TIP3    H175058   0.887   5.779   4.457 -0.6746  0.6567 -0.2962
17881TIP3    H275059   0.768   5.789   4.364  0.6879 -1.1518 -2.3259
17882TIP3   OH275060   4.080   2.354  14.234  0.3236  0.4694  0.1188
17882TIP3    H175061   4.017   2.411  14.277  0.6642  0.8940  0.0582
17882TIP3    H275062   4.026   2.289  14.188 -0.0427 -0.0712  1.2653
17883TIP3   OH275063   2.873   5.669   1.973 -0.2532 -0.5266 -0.5593
17883TIP3    H175064   2.810   5.739   1.957  0.3617 -0.0493 -0.9353
17883TIP3    H275065   2.854   5.639   2.062 -0.1696  0.4989 -0.1904
17884TIP3   OH275066   3.416   0.081  12.778 -0.1625  0.0142  0.1873
17884TIP3    H175067   3.413   0.164  12.826  0.5263  0.7011 -0.9237
17884TIP3    H275068   3.343   0.086  12.717 -2.0183 -1.5241  2.1268
17885TIP3   OH275069   6.762   4.337  12.760  0.0218 -0.4086 -0.0240
17885TIP3    H175070   6.751   4.386  12.842  0.3125 -1.9226  0.9545
17885TIP3    H275071   6.674   4.328  12.725  0.0642  1.8963 -0.9349
17886TIP3   OH275072   3.788   5.830   3.379 -0.0165  0.1715 -0.0170
17886TIP3    H175073   3.874   5.790   3.387 -0.6449 -1.1856  0.1344
17886TIP3    H275074   3.738   5.793   3.452 -1.1300 -0.0956 -0.9051
17887TIP3   OH275075   6.217   2.700  12.273 -1.0281  0.2052 -0.5246
17887TIP3    H175076   6.267   2.672  12.350  0.4390 -0.0982 -1.5477
17887TIP3    H275077   6.227   2.795  12.271  2.9372 -0.0614 -2.8454
17888TIP3   OH275078   4.740   0.500   4.732 -0.2599 -0.3810 -0.5069
17888TIP3    H175079   4.742   0.414   4.774 -1.9395 -1.6021 -2.6762
17888TIP3    H275080   4.647   0.522   4.727  0.0182  0.6384 -1.7409
17889TIP3   OH275081   3.570   6.215   0.736 -0.1275  0.2199  0.7461
17889TIP3    H175082   3.657   6.175   0.728 -0.7337 -0.8418 -0.9799
17889TIP3    H275083   3.587   6.303   0.770  1.4927 -0.4486  1.8021
17890TIP3   OH275084   5.450   5.622  16.777  0.0571 -0.0375 -0.1509
17890TIP3    H175085   5.361   5.589  16.768 -0.6969  0.1187  4.2339
17890TIP3    H275086   5.440   5.716  16.794  1.2974  0.3932 -1.5171
17891TIP3   OH275087   3.238   4.579   3.996 -0.5280 -0.0903 -0.2143
17891TIP3    H175088   3.210   4.529   4.072  0.0252  0.0701  0.1023
17891TIP3    H275089   3.311   4.633   4.028 -0.4144  0.1184 -0.8078
17892TIP3   OH275090   3.248   2.150  14.798 -0.2678  0.1715  0.3005
17892TIP3    H175091   3.225   2.060  14.775 -0.1759  0.3705 -0.5872
17892TIP3    H275092   3.283   2.143  14.887  3.0966 -1.2404 -0.9479
17893TIP3   OH275093   2.507   2.789   0.869  0.2571  0.0422 -0.2685
17893TIP3    H175094   2.562   2.778   0.947  1.3585  1.4114 -0.7935
17893TIP3    H275095   2.445   2.857   0.893 -0.8081 -1.0313  0.0965
17894TIP3   OH275096   6.602   3.204  13.959  0.7685  0.1568  0.9304
17894TIP3    H175097   6.566   3.225  13.873 -1.0892  1.5160  1.9316
17894TIP3    H275098   6.605   3.108  13.962 -0.2123  0.0692 -0.2405
17895TIP3   OH275099   4.396   5.610  13.849 -0.3546 -0.7543 -0.1187
17895TIP3    H175100   4.364   5.627  13.938  1.0935 -0.4882  0.3787
17895TIP3    H275101   4.371   5.519  13.832 -0.3087 -0.9333  0.7143
17896TIP3   OH275102   5.048   3.048  12.279  0.1394  0.2385 -0.0672
17896TIP3    H175103   4.998   2.986  12.332  0.4197 -0.1631 -0.2631
17896TIP3    H275104   5.129   3.061  12.327  0.5316 -0.3779 -0.5486
17897TIP3   OH275105   2.798   1.209  11.247 -0.1368  0.5218 -0.6656
17897TIP3    H175106   2.720   1.226  11.195 -0.1836  2.0429 -0.1265
17897TIP3    H275107   2.854   1.286  11.235 -0.5608  1.4143  2.2371
17898TIP3   OH275108   4.319   4.178   1.282  0.0828  0.1049 -0.0406
17898TIP3    H175109   4.228   4.181   1.309 -0.4555 -0.6313 -1.6089
17898TIP3    H275110   4.365   4.135   1.354 -0.7007  0.9872  1.0007
17899TIP3   OH275111   2.260   5.953  16.887  0.3039  0.2400  0.3700
17899TIP3    H175112   2.335   5.900  16.917 -0.5395 -0.9969  0.3427
17899TIP3    H275113   2.240   5.920  16.800  0.9030  1.8731 -0.4362
17900TIP3   OH275114   3.333   4.003  12.409  0.2652  0.0520 -0.0399
17900TIP3    H175115   3.302   3.944  12.340 -1.3064 -0.7639  1.2768
17900TIP3    H275116   3.293   3.969  12.489  0.3342  2.1732  0.9726
17901TIP3   OH275117   6.368   2.225  11.744 -0.3538 -0.3281 -0.0614
17901TIP3    H175118   6.456   2.259  11.761 -0.7567  0.9081 -0.3175
17901TIP3    H275119   6.363   2.144  11.795  1.2459 -0.9098 -0.7627
17902TIP3   OH275120   5.878   3.272   6.715 -0.2757 -0.5858  0.2057
17902TIP3    H175121   5.927   3.266   6.633 -0.5827  1.5634 -0.2058
17902TIP3    H275122   5.941   3.246   6.782  0.5090 -0.7460 -0.5680
17903TIP3   OH275123   1.857   2.606  12.114  0.2898 -0.0261  0.6336
17903TIP3    H175124   1.806   2.653  12.049 -0.2895 -0.0305  1.0767
17903TIP3    H275125   1.832   2.645  12.198  2.2997  1.1652  0.7553
17904TIP3   OH275126   6.136   4.216   1.188 -0.0127 -0.2663 -0.0022
17904TIP3    H175127   6.126   4.273   1.112 -0.6871 -1.9061 -1.2126
17904TIP3    H275128   6.047   4.204   1.221  0.0456 -1.0176 -0.0946
17905TIP3   OH275129   5.166   2.823   5.456 -0.3258  0.4483  0.3213
17905TIP3    H175130   5.162   2.810   5.362  1.1841  1.3761  0.1060
17905TIP3    H275131   5.166   2.735   5.493  4.3988 -0.2581 -0.8389
17906TIP3   OH275132   2.620   6.379  14.703 -0.1678 -0.1817 -0.2541
17906TIP3    H175133   2.637   6.288  14.728 -0.7083 -0.2696 -0.2001
17906TIP3    H275134   2.683   6.396  14.632  0.8822 -0.1561  0.6547
17907TIP3   OH275135   0.727   1.284   5.152 -0.1143  0.1333  0.0430
17907TIP3    H175136   0.800   1.264   5.094 -0.2195  0.2835 -0.1424
17907TIP3    H275137   0.678   1.353   5.106 -1.7541 -1.6102 -0.9813
17908TIP3   OH275138   2.772   5.084  12.092 -0.1699  0.0356 -0.4028
17908TIP3    H175139   2.783   5.010  12.032  0.4658  0.8393 -1.3170
17908TIP3    H275140   2.719   5.049  12.164  0.1255 -1.3051 -0.7986
17909TIP3   OH275141   1.549   3.147   3.866  0.3365 -0.2370 -0.7644
17909TIP3    H175142   1.580   3.206   3.934  1.0812  0.4648 -1.6874
17909TIP3    H275143   1.483   3.197   3.818 -1.5091 -1.3487  0.5190
17910TIP3   OH275144   4.438   0.822   3.578  0.9011 -0.4092  0.2847
17910TIP3    H175145   4.396   0.796   3.660  1.4065 -0.6151  0.4794
17910TIP3    H275146   4.508   0.881   3.604 -0.2986  1.3135 -0.1619
17911TIP3   OH275147   0.475   0.632  15.314  0.6049  0.0955 -0.2654
17911TIP3    H175148   0.447   0.571  15.246  1.6781 -1.4202  0.6027
17911TIP3    H275149   0.566   0.609  15.331  0.7164  1.2582  0.8344
17912TIP3   OH275150   1.856   5.379  16.170  0.5511 -1.0586  0.3874
17912TIP3    H175151   1.855   5.312  16.102  0.1157 -0.0829 -0.5926
17912TIP3    H275152   1.831   5.332  16.250 -0.1567 -1.9860 -0.3522
17913TIP3   OH275153   0.994   1.661   6.392  0.1250  0.1766  0.3101
17913TIP3    H175154   1.013   1.605   6.467 -0.5437 -0.6822 -0.1518
17913TIP3    H275155   1.059   1.731   6.397  0.8679 -0.5548  0.9770
17914TIP3   OH275156   1.308   5.075   5.205  0.0208  0.0917  0.0053
17914TIP3    H175157   1.286   4.989   5.242 -0.2988  0.1596 -0.0324
17914TIP3    H275158   1.355   5.054   5.124 -2.3711 -0.0570 -1.4106
17915TIP3   OH275159   6.762   1.153  13.973 -0.1939 -0.9182  0.3477
17915TIP3    H175160   6.769   1.058  13.983 -1.9243 -1.1649 -0.3595
17915TIP3    H275161   6.686   1.165  13.916 -0.6437  0.9277  1.2630
17916TIP3   OH275162   4.002   1.142  15.510  0.1892 -0.2017  0.2802
17916TIP3    H175163   3.948   1.117  15.435 -0.5783  0.9101  0.4371
17916TIP3    H275164   4.057   1.213  15.478 -0.3821  0.5108  0.8392
17917TIP3   OH275165   4.275   1.458   4.792  0.3250 -1.1582  0.0851
17917TIP3    H175166   4.245   1.549   4.789 -0.8140 -1.4859  0.7988
17917TIP3    H275167   4.199   1.409   4.823  1.0620 -2.2980  0.1435
17918TIP3   OH275168   1.250   0.205   6.629  0.3067 -0.3242 -0.0919
17918TIP3    H175169   1.244   0.135   6.695  1.2162  0.2065  0.5633
17918TIP3    H275170   1.272   0.283   6.679 -0.2684  0.3509 -0.8824
17919TIP3   OH275171   4.218   0.705  14.881 -0.5524 -0.0247  0.0242
17919TIP3    H175172   4.238   0.705  14.787 -0.8538  1.1691 -0.0592
17919TIP3    H275173   4.123   0.702  14.885 -0.5783  0.7504  0.2541
17920TIP3   OH275174   0.037   4.570   4.023 -0.7573 -0.5513  0.3288
17920TIP3    H175175   0.077   4.638   4.077 -0.0082 -1.7069  1.2707
17920TIP3    H275176   0.111   4.522   3.987 -1.2065  0.6224 -2.3851
17921TIP3   OH275177   6.147   0.413   5.800 -0.3781  0.0004 -0.1599
17921TIP3    H175178   6.134   0.323   5.770 -0.1340  0.4331 -1.6342
17921TIP3    H275179   6.124   0.411   5.893 -0.2180 -1.6146 -0.1330
17922TIP3   OH275180   4.129   6.028   5.357  0.1564 -0.0190  0.0612
17922TIP3    H175181   4.138   5.959   5.423 -0.3732 -0.0878  0.0641
17922TIP3    H275182   4.200   6.088   5.376 -0.0869  0.0448  0.7969
17923TIP3   OH275183   3.433   2.653  14.653 -0.2268  0.1928 -0.7481
17923TIP3    H175184   3.435   2.740  14.612 -2.2085  0.5657 -0.1672
17923TIP3    H275185   3.356   2.611  14.615  0.1317 -0.9284 -0.2560
17924TIP3   OH275186   0.544   5.574  12.363  0.7202 -0.6905 -0.1565
17924TIP3    H175187   0.589   5.499  12.324  2.0074 -1.2827  2.2901
17924TIP3    H275188   0.452   5.548  12.366  0.6566 -0.8655 -2.0712
17925TIP3   OH275189   4.995   4.908  16.624 -0.6756 -0.7406  0.2364
17925TIP3    H175190   4.996   4.882  16.532  1.1308 -1.6753  0.4652
17925TIP3    H275191   4.948   4.837  16.668 -0.8911 -0.6620  0.1342
17926TIP3   OH275192   5.193   3.984  16.063  0.3737  0.0269 -0.1535
17926TIP3    H175193   5.254   4.027  16.123  0.0197 -0.6880  0.7313
17926TIP3    H275194   5.151   4.056  16.016  1.8846  0.5442 -0.7943
17927TIP3   OH275195   5.003   6.469  12.583  0.4269  0.3085 -0.1012
17927TIP3    H175196   4.908   6.460  12.575 -0.0401  0.7397  3.4092
17927TIP3    H275197   5.019   6.563  12.577  0.8564  0.1580 -1.9053
17928TIP3   OH275198   2.365   0.194   1.717 -0.4126 -0.4131  0.4431
17928TIP3    H175199   2.364   0.104   1.684 -0.0361 -0.1044 -0.4280
17928TIP3    H275200   2.433   0.193   1.785  0.4156 -0.5237 -0.3612
17929TIP3   OH275201   6.101   5.854  14.539  0.9489  0.7179  0.5637
17929TIP3    H175202   6.196   5.841  14.535  0.5441 -5.3410  0.4696
17929TIP3    H275203   6.073   5.847  14.448  0.3242 -0.6772  0.8346
17930TIP3   OH275204   1.663   6.493  15.004 -0.2701  0.4825  0.4438
17930TIP3    H175205   1.625   6.429  14.943  0.1339  0.6765 -0.0180
17930TIP3    H275206   1.751   6.509  14.970 -0.3581  1.2649  0.5783
17931TIP3   OH275207   0.812   0.856  17.076  0.1842  0.3461 -0.7353
17931TIP3    H175208   0.859   0.791  17.129 -0.5225 -1.0144 -1.7288
17931TIP3    H275209   0.825   0.938  17.123  1.7499 -0.3676  0.1479
17932TIP3   OH275210   4.964   6.505   3.514  0.1553  0.7586  0.0258
17932TIP3    H175211   4.972   6.416   3.481  0.6510  0.5028  0.7926
17932TIP3    H275212   4.967   6.560   3.436  1.8465  0.2138 -0.3508
17933TIP3   OH275213   2.684   0.230   3.036 -0.3306  0.3406 -0.2995
17933TIP3    H175214   2.767   0.209   3.079 -0.7356  0.8609  0.7909
17933TIP3    H275215   2.678   0.325   3.042 -0.2929  0.4575 -1.7675
17934TIP3   OH275216   4.354   2.289  11.903  0.9337 -0.3729  0.5938
17934TIP3    H175217   4.422   2.352  11.927  0.7119  0.5690 -1.0584
17934TIP3    H275218   4.401   2.208  11.884  1.4479 -0.1095  0.7230
17935TIP3   OH275219   5.401   5.701   4.646 -0.4654  0.3306 -0.5780
17935TIP3    H175220   5.456   5.742   4.579 -0.0470 -1.5047 -1.4111
17935TIP3    H275221   5.453   5.708   4.726  1.0060 -1.2591 -1.3224
17936TIP3   OH275222   3.521   4.936  11.593 -0.0355 -0.1241  0.3307
17936TIP3    H175223   3.541   4.906  11.504 -0.5156 -1.6618  0.7095
17936TIP3    H275224   3.486   4.858  11.637  2.1668  0.0052  2.5182
17937TIP3   OH275225   1.034   0.296  14.370 -0.1709  0.5071 -0.0848
17937TIP3    H175226   0.944   0.272  14.347 -0.8442  1.1435  1.6894
17937TIP3    H275227   1.024   0.359  14.442  1.6725  1.6017 -0.7278
17938TIP3   OH275228   5.221   5.344   3.112 -0.0265  0.1755 -1.1133
17938TIP3    H175229   5.191   5.255   3.124  3.5661 -1.2338 -1.2678
17938TIP3    H275230   5.182   5.372   3.029 -1.5551 -1.0576 -0.8468
17939TIP3   OH275231   4.734   1.804  10.900  0.2514  0.3433 -0.5978
17939TIP3    H175232   4.730   1.732  10.963  0.5236  0.8376 -0.0114
17939TIP3    H275233   4.671   1.779  10.832 -0.1122 -0.1546 -0.0914
17940TIP3   OH275234   4.171   1.967   5.645 -0.7070 -0.3466 -0.2365
17940TIP3    H175235   4.182   1.943   5.737 -1.8470  1.2141  0.3610
17940TIP3    H275236   4.086   1.931   5.621  0.5910 -2.7978 -1.4526
17941TIP3   OH275237   6.705   4.491   0.859  0.6446  0.1286 -0.1169
17941TIP3    H175238   6.690   4.445   0.942  1.2711  1.4353  0.7542
17941TIP3    H275239   6.620   4.529   0.837  0.4190 -0.4173 -0.2093
17942TIP3   OH275240   4.410   3.912  11.215 -0.3102  0.4047  0.1987
17942TIP3    H175241   4.347   3.850  11.176 -0.5925  1.2174 -0.6792
17942TIP3    H275242   4.365   3.996  11.210 -0.5833  0.4898  2.8181
17943TIP3   OH275243   2.321   6.290  11.242  0.1812  0.1998  0.2619
17943TIP3    H175244   2.244   6.282  11.185  0.6804 -0.7763 -0.2939
17943TIP3    H275245   2.306   6.372  11.290  0.0016  1.3510 -1.6623
17944TIP3   OH275246   0.509   0.687   0.295 -0.0790 -0.0595  0.1835
17944TIP3    H175247   0.550   0.650   0.217  0.3163 -3.0453  1.6371
17944TIP3    H275248   0.580   0.731   0.342 -0.1452  1.0275 -0.7147
17945TIP3   OH275249   4.181   5.796  15.532  0.6138  0.0515  0.2623
17945TIP3    H175250   4.189   5.856  15.606 -2.3146 -1.6753  2.1857
17945TIP3    H275251   4.185   5.709  15.572 -0.0549 -0.9667 -1.7540
17946TIP3   OH275252   2.774   6.007  16.385 -0.3173  0.7365  0.2356
17946TIP3    H175253   2.796   5.925  16.341 -0.2201 -0.1608  1.8759
17946TIP3    H275254   2.852   6.062  16.377 -0.2385  0.5189 -0.5134
17947TIP3   OH275255   4.183   4.163  10.865 -0.3323  0.2772 -0.0784
17947TIP3    H175256   4.253   4.213  10.905 -1.6159  1.4176  0.8156
17947TIP3    H275257   4.113   4.227  10.849 -1.3835 -0.9103 -0.4304
17948TIP3   OH275258   3.995   0.553   4.785  0.0653 -0.3773  0.8318
17948TIP3    H175259   3.998   0.510   4.871  0.5424 -1.6238  0.2132
17948TIP3    H275260   4.035   0.490   4.725  4.3097  2.3054  0.4165
17949TIP3   OH275261   0.094   0.449   5.418  0.0329 -0.6677  0.4997
17949TIP3    H175262   0.084   0.406   5.504  0.4363  0.2963  1.0488
17949TIP3    H275263   0.128   0.536   5.439  3.5723 -1.5541 -0.8070
17950TIP3   OH275264   5.112   2.657   0.310  0.1782 -0.1664  0.2433
17950TIP3    H175265   5.121   2.734   0.367  1.3012  0.4253 -0.6691
17950TIP3    H275266   5.196   2.653   0.264 -0.9451 -0.1604 -1.9087
17951TIP3   OH275267   3.841   3.520   1.215 -0.4693  0.3534 -0.3671
17951TIP3    H175268   3.871   3.609   1.196 -1.0516  0.1733 -2.3975
17951TIP3    H275269   3.853   3.510   1.309  0.5197  2.2318 -0.2473
17952TIP3   OH275270   4.627   5.692  10.861 -0.3648  0.4720  0.6489
17952TIP3    H175271   4.653   5.601  10.877  1.6316  1.3154  2.6711
17952TIP3    H275272   4.568   5.687  10.786 -0.3767 -2.4882  0.7421
17953TIP3   OH275273   0.628   4.518   3.743 -0.0583 -0.2026  0.1373
17953TIP3    H175274   0.542   4.502   3.705  0.8175 -1.5813 -1.3911
17953TIP3    H275275   0.618   4.599   3.793 -2.1639 -0.2158 -0.1961
17954TIP3   OH275276   6.370   3.879   2.221 -0.2929 -0.1930 -0.4083
17954TIP3    H175277   6.416   3.801   2.253 -1.7546 -1.1272 -0.4728
17954TIP3    H275278   6.418   3.952   2.259  0.6617 -1.1366  0.2892
17955TIP3   OH275279   0.359   4.837   4.724  0.1879 -0.2398 -0.1965
17955TIP3    H175280   0.284   4.789   4.758 -0.3890  0.7785  0.0195
17955TIP3    H275281   0.321   4.907   4.670  0.9581  0.3970  0.0609
17956TIP3   OH275282   0.692   3.209  15.510  0.2468 -0.3914 -0.5655
17956TIP3    H175283   0.745   3.134  15.484  0.3526 -0.1425 -1.0794
17956TIP3    H275284   0.711   3.276  15.443 -1.5961 -0.6932 -1.4343
17957TIP3   OH275285   5.616   4.803   4.516 -0.0500 -0.2104 -0.1412
17957TIP3    H175286   5.692   4.757   4.482  0.3237  1.2602 -1.3783
17957TIP3    H275287   5.625   4.893   4.484 -1.9262  0.1836  0.2929
17958TIP3   OH275288   5.229   2.468   5.948  0.6369  0.4066  0.7926
17958TIP3    H175289   5.273   2.435   6.027 -0.1576 -0.2619  0.9733
17958TIP3    H275290   5.269   2.421   5.876  0.2668 -0.1621  0.9517
17959TIP3   OH275291   4.265   0.355   5.636 -0.9356  0.2201 -0.7896
17959TIP3    H175292   4.325   0.301   5.688 -1.1161 -1.1317 -1.8896
17959TIP3    H275293   4.203   0.292   5.600  1.0603  0.4043 -5.2807
17960TIP3   OH275294   1.705   1.565  12.888  0.7340 -0.1242  0.8767
17960TIP3    H175295   1.680   1.478  12.857  0.5908 -0.0275  0.7201
17960TIP3    H275296   1.685   1.564  12.982  0.4011 -0.1422  0.8073
17961TIP3   OH275297   5.729   1.846   4.247  0.1322 -0.2729 -0.4049
17961TIP3    H175298   5.711   1.888   4.162 -1.5101 -2.8621 -1.4559
17961TIP3    H275299   5.801   1.786   4.229 -0.0229 -0.6133  0.1137
17962TIP3   OH275300   3.282   4.891  12.496  0.0537 -0.4513  0.2239
17962TIP3    H175301   3.326   4.820  12.450  2.2501  1.8311 -1.5505
17962TIP3    H275302   3.191   4.886  12.468  0.7387 -0.9413 -2.1687
17963TIP3   OH275303   3.562   6.730  15.558  0.3961 -0.1773 -0.7645
17963TIP3    H175304   3.559   6.775  15.642  0.0555  0.6537 -1.2095
17963TIP3    H275305   3.538   6.797  15.494 -1.7066 -1.3675 -1.3088
17964TIP3   OH275306   4.581   2.859   4.633 -0.0886  0.1412 -0.0759
17964TIP3    H175307   4.507   2.855   4.694 -0.2568  1.2368 -0.1785
17964TIP3    H275308   4.559   2.796   4.565 -0.7476  0.1696  0.1034
17965TIP3   OH275309   2.965   6.173   0.094  0.2136 -0.3104  0.2745
17965TIP3    H175310   2.885   6.186   0.042 -0.3146 -1.8070  0.6456
17965TIP3    H275311   3.027   6.134   0.033 -0.1913 -1.4636  0.5727
17966TIP3   OH275312   2.579   2.215   6.732 -0.1508 -0.0355  1.2684
17966TIP3    H175313   2.570   2.306   6.761  1.4692  0.6443 -0.1938
17966TIP3    H275314   2.637   2.219   6.656 -1.9912 -2.0349 -0.3957
17967TIP3   OH275315   4.032   0.156   4.468 -0.1267 -0.2469  0.2174
17967TIP3    H175316   3.969   0.129   4.400  1.0567  0.4485 -1.2048
17967TIP3    H275317   4.095   0.085   4.471  0.5234  0.2908 -0.3461
17968TIP3   OH275318   2.443   1.941  13.809  1.0973 -0.3653  0.8381
17968TIP3    H175319   2.411   1.880  13.742 -0.9193  0.1010  1.2932
17968TIP3    H275320   2.461   2.022  13.761  0.3722 -0.2622  0.7235
17969TIP3   OH275321   4.716   2.043  12.672  0.1825 -0.5874  0.1307
17969TIP3    H175322   4.697   2.087  12.754  0.3586  0.3402 -0.3161
17969TIP3    H275323   4.630   2.018  12.638  0.1132 -1.0189  0.6140
17970TIP3   OH275324   3.539   6.522   0.658  0.5221  0.7828  0.2734
17970TIP3    H175325   3.598   6.519   0.733  1.4788  1.4265 -0.4158
17970TIP3    H275326   3.507   6.612   0.657  2.0174  1.3498 -1.1569
17971TIP3   OH275327   3.947   5.293  11.812 -0.1092 -0.3931  0.0848
17971TIP3    H175328   3.926   5.224  11.749 -1.6907 -0.4864  0.6755
17971TIP3    H275329   4.041   5.282  11.828 -0.1160 -1.7539 -0.5982
17972TIP3   OH275330   5.066   6.160  13.295 -0.3867 -0.0991  0.5178
17972TIP3    H175331   5.161   6.157  13.303 -0.4101  0.3932  1.0273
17972TIP3    H275332   5.045   6.253  13.290 -0.8015 -0.2235 -0.1506
17973TIP3   OH275333   2.156   1.804   1.846 -0.2497 -0.1892  0.0992
17973TIP3    H175334   2.130   1.810   1.938  0.9574 -0.0290  0.4549
17973TIP3    H275335   2.238   1.753   1.848 -0.6093 -0.8467 -0.9700
17974TIP3   OH275336   4.083   5.269  14.945 -1.1045 -0.0509 -0.4588
17974TIP3    H175337   4.138   5.260  15.023 -0.9975  0.1484 -0.5111
17974TIP3    H275338   4.090   5.185  14.901  0.0411  0.3261 -1.0451
17975TIP3   OH275339   3.453   5.619  14.756  0.7071  0.5914 -0.2696
17975TIP3    H175340   3.454   5.531  14.717  0.0809  0.2894  0.3557
17975TIP3    H275341   3.544   5.649  14.751  0.7444  0.3435 -1.4321
17976TIP3   OH275342   0.208   5.721   2.896  0.0578  0.4115  1.0439
17976TIP3    H175343   0.162   5.804   2.903 -0.5247  0.3035 -0.9433
17976TIP3    H275344   0.298   5.745   2.874 -0.7669  0.6214 -2.8795
17977TIP3   OH275345   1.408   4.764   2.632  0.2325 -0.0893  0.4716
17977TIP3    H175346   1.380   4.794   2.719 -0.5961  0.1461  0.1332
17977TIP3    H275347   1.331   4.777   2.577  0.6170 -0.6476 -0.2034
17978TIP3   OH275348   4.328   2.620   5.152 -0.0258 -0.1074  0.1095
17978TIP3    H175349   4.411   2.572   5.159 -0.4655 -1.5299 -2.8055
17978TIP3    H275350   4.349   2.697   5.100 -0.1113  0.8173  1.4062
17979TIP3   OH275351   6.171   5.846   3.975 -0.1475  0.2814  0.1287
17979TIP3    H175352   6.148   5.884   3.890 -0.5970  1.0135  0.5638
17979TIP3    H275353   6.096   5.793   4.000 -0.2340  0.4815  0.3006
17980TIP3   OH275354   4.128   4.207  15.703  0.2267 -0.5186 -0.3894
17980TIP3    H175355   4.215   4.175  15.727  0.5645 -0.3194 -1.2885
17980TIP3    H275356   4.145   4.275  15.638 -0.3527  2.6646  2.4999
17981TIP3   OH275357   4.652   4.238   2.736  0.2986  0.1311  0.5608
17981TIP3    H175358   4.720   4.173   2.754  2.2790  1.9553  0.1695
17981TIP3    H275359   4.595   4.235   2.813 -0.0125 -2.3916  0.3044
17982TIP3   OH275360   0.473   1.744   1.756  0.2662 -0.2641  0.3365
17982TIP3    H175361   0.470   1.777   1.846  1.5642  1.1891 -0.0993
17982TIP3    H275362   0.398   1.786   1.713  0.3350 -0.0016  0.4660
17983TIP3   OH275363   2.810   6.617  16.475 -0.2550  0.4348 -0.0073
17983TIP3    H175364   2.808   6.652  16.386  0.2328  1.0068  0.1981
17983TIP3    H275365   2.771   6.685  16.529  0.2994  0.4823  0.3396
17984TIP3   OH275366   2.351   4.627   0.149 -0.2543 -0.3886  0.0651
17984TIP3    H175367   2.310   4.713   0.141 -1.3982 -0.9366 -0.1674
17984TIP3    H275368   2.283   4.565   0.120  1.3948 -1.2212 -2.3541
17985TIP3   OH275369   0.773   2.287  15.734  0.1038 -0.0860 -0.5952
17985TIP3    H175370   0.832   2.263  15.805 -0.7592  1.4688  0.7286
17985TIP3    H275371   0.814   2.252  15.655  0.8384 -2.3092  0.6994
17986TIP3   OH275372   5.928   3.796  14.354  0.0543 -0.4418  0.2253
17986TIP3    H175373   5.911   3.755  14.439 -1.4339  1.3456  0.8668
17986TIP3    H275374   5.959   3.884  14.376  2.2476 -0.8297 -1.1023
17987TIP3   OH275375   2.724   4.062  12.998 -0.0977 -0.5773 -0.0117
17987TIP3    H175376   2.764   4.059  13.085 -0.3537 -1.0624  0.0915
17987TIP3    H275377   2.697   4.153  12.987  0.9617 -0.2601 -0.0522
17988TIP3   OH275378   4.322   0.962  13.700 -0.7461 -0.3314 -0.0613
17988TIP3    H175379   4.315   0.954  13.795 -0.1307  0.4074  0.0481
17988TIP3    H275380   4.329   1.056  13.684 -0.4236 -0.4771 -0.8095
17989TIP3   OH275381   0.256   5.714   5.579 -0.3600 -0.5589  0.0631
17989TIP3    H175382   0.261   5.791   5.522  0.0292  0.2762  1.2033
17989TIP3    H275383   0.163   5.692   5.581 -0.5380  0.1604  0.0935
17990TIP3   OH275384   2.161   0.748   4.133  0.1720 -0.4994  0.1307
17990TIP3    H175385   2.153   0.839   4.106  0.6063 -0.3895  0.3575
17990TIP3    H275386   2.156   0.751   4.229 -0.0400 -0.7398  0.1289
17991TIP3   OH275387   3.169   0.888  17.083 -0.0898  0.6802  0.4843
17991TIP3    H175388   3.147   0.977  17.111  0.1367  1.0431 -0.4677
17991TIP3    H275389   3.252   0.897  17.036 -0.1837 -0.0009  0.1753
17992TIP3   OH275390   5.708   0.857   2.327 -0.1599 -0.2096  0.2172
17992TIP3    H175391   5.735   0.870   2.418  0.1355 -1.2373  0.2858
17992TIP3    H275392   5.644   0.926   2.310 -2.4770 -1.7549  2.1303
17993TIP3   OH275393   2.513   6.046  15.725 -0.6302 -0.0710  0.1435
17993TIP3    H175394   2.556   6.073  15.644  1.4864 -0.8466  0.9229
17993TIP3    H275395   2.486   5.956  15.708  0.2563 -0.4048  0.4157
17994TIP3   OH275396   3.163   3.298  13.813 -0.3188  0.3389 -0.0783
17994TIP3    H175397   3.243   3.266  13.853 -0.3802  0.1922 -0.0717
17994TIP3    H275398   3.093   3.248  13.855 -0.5553  1.5531  1.0608
17995TIP3   OH275399   2.996   1.870   2.728  0.2732  0.2393 -0.1595
17995TIP3    H175400   3.063   1.807   2.700 -0.4728  0.3586 -2.3988
17995TIP3    H275401   2.935   1.875   2.654 -2.8869 -0.6900  2.1651
17996TIP3   OH275402   3.584   3.968  10.912  0.2907 -0.0124  0.6393
17996TIP3    H175403   3.512   3.978  10.849  0.7718  0.4352  0.1454
17996TIP3    H275404   3.622   3.882  10.891 -1.8979 -1.6641  2.8342
17997TIP3   OH275405   3.020   1.921   1.935 -0.1355  0.1115 -0.3780
17997TIP3    H175406   3.002   2.013   1.956  0.3794  0.5965 -1.9168
17997TIP3    H275407   3.016   1.876   2.019 -0.6720  1.4965  0.3702
17998TIP3   OH275408   1.848   4.522   0.297 -0.5304 -0.5610 -0.2676
17998TIP3    H175409   1.791   4.560   0.363  0.4094 -0.5859  0.5892
17998TIP3    H275410   1.928   4.500   0.344 -0.3174 -1.7909 -1.1473
17999TIP3   OH275411   5.585   1.379  15.559  0.3644  0.1056  0.0832
17999TIP3    H175412   5.648   1.344  15.496  1.1103 -0.9804  1.3811
17999TIP3    H275413   5.559   1.463  15.522  0.3067 -0.7377 -1.9794
18000TIP3   OH275414   3.369   0.327   5.056  0.3396 -0.1550 -0.1801
18000TIP3    H175415   3.389   0.420   5.069 -0.4311  0.1584 -1.1767
18000TIP3    H275416   3.412   0.304   4.974 -0.4043 -0.3933 -0.5040
18001TIP3   OH275417   2.089   1.101   5.865 -0.5937 -0.5208  0.9780
18001TIP3    H175418   2.015   1.054   5.903  0.0399 -1.0646  1.5745
18001TIP3    H275419   2.148   1.117   5.939 -0.9352  1.5396  0.8774
18002TIP3   OH275420   3.163   4.158  17.105  0.0409  0.2423 -0.0972
18002TIP3    H175421   3.230   4.221  17.133  0.6041 -0.5828  0.4383
18002TIP3    H275422   3.140   4.187  17.016  1.1570  0.4992 -0.3227
18003TIP3   OH275423   1.257   6.379   6.130 -0.2227  0.5100 -0.4432
18003TIP3    H175424   1.206   6.298   6.130 -0.0873  0.4181  0.1500
18003TIP3    H275425   1.289   6.387   6.220 -0.2090  1.2046 -0.5006
18004TIP3   OH275426   5.693   2.670  15.441 -0.2494 -0.0457 -0.5987
18004TIP3    H175427   5.630   2.696  15.508  1.0437  1.1635  0.2358
18004TIP3    H275428   5.776   2.663  15.489  0.5046 -0.2341 -1.8867
18005TIP3   OH275429   5.906   5.759  13.983 -0.2327  0.2003  0.7336
18005TIP3    H175430   5.840   5.690  13.988  0.2300 -0.6003 -2.0793
18005TIP3    H275431   5.990   5.714  13.994 -0.0309  1.0365  3.1437
18006TIP3   OH275432   5.432   1.870   4.623  0.4221 -0.2321 -0.3124
18006TIP3    H175433   5.498   1.870   4.691 -1.5637  0.0426  1.7320
18006TIP3    H275434   5.453   1.947   4.569  2.8447 -1.2532 -0.9286
18007TIP3   OH275435   3.051   6.027   0.702 -0.1168  0.0749 -0.2358
18007TIP3    H175436   3.064   6.097   0.767 -1.3106  0.0046  0.0954
18007TIP3    H275437   2.967   6.047   0.661  0.7344  0.2779 -1.9958
18008TIP3   OH275438   0.905   0.241  12.206  0.1912 -0.2163  0.2557
18008TIP3    H175439   0.867   0.212  12.290  0.0916 -0.1025  0.2503
18008TIP3    H275440   0.852   0.317  12.181  1.0043  0.5224  0.7052
18009TIP3   OH275441   4.889   1.170  16.274 -0.0525 -0.4248 -0.2654
18009TIP3    H175442   4.797   1.178  16.302  0.6004  0.5552  1.8196
18009TIP3    H275443   4.907   1.252  16.229 -0.3480 -0.8847 -1.2531
18010TIP3   OH275444   5.575   4.705   0.038 -0.3508  0.0716 -0.0626
18010TIP3    H175445   5.567   4.798   0.061  0.3532 -0.5229  2.9643
18010TIP3    H275446   5.654   4.676   0.083 -2.3839 -2.7475  2.0272
18011TIP3   OH275447   2.230   1.573   4.929  0.1002 -0.0497 -0.1838
18011TIP3    H175448   2.213   1.510   4.858 -0.9270 -0.2715  0.2453
18011TIP3    H275449   2.276   1.645   4.885 -1.3038  0.2335 -1.2951
18012TIP3   OH275450   0.873   5.403   1.899  0.3432  0.0712 -0.6184
18012TIP3    H175451   0.932   5.330   1.920  0.5090  0.0454 -1.1578
18012TIP3    H275452   0.841   5.383   1.811 -1.5258 -0.6190  0.1677
18013TIP3   OH275453   3.316   0.540  10.717 -0.0585  0.3505  0.0053
18013TIP3    H175454   3.333   0.572  10.805  1.5867 -1.0407  0.2304
18013TIP3    H275455   3.345   0.611  10.660 -1.1554  1.2676  0.5351
18014TIP3   OH275456   1.689   4.369  14.809  0.2008 -0.1866  0.5196
18014TIP3    H175457   1.752   4.380  14.881 -0.6488  2.2230  0.9870
18014TIP3    H275458   1.604   4.390  14.849 -0.4436  0.0108 -0.9032
18015TIP3   OH275459   6.126   3.211  15.495  0.0265  0.0939  0.3667
18015TIP3    H175460   6.115   3.116  15.504 -1.2444  0.2846  1.2375
18015TIP3    H275461   6.171   3.237  15.576 -4.0322  0.7772  2.6971
18016TIP3   OH275462   2.425   6.074   1.835  0.3208 -0.1319 -0.1020
18016TIP3    H175463   2.396   5.989   1.868  0.5152 -0.3886 -0.5824
18016TIP3    H275464   2.439   6.126   1.913  1.2417 -0.8871  0.2597
18017TIP3   OH275465   0.382   1.235  11.910  0.0548 -0.3499  0.1412
18017TIP3    H175466   0.371   1.330  11.916  0.8241 -0.2544  0.1269
18017TIP3    H275467   0.320   1.208  11.841 -0.5823  0.0535  0.5412
18018TIP3   OH275468   1.355   0.376   0.593 -0.0964 -0.2840 -0.1432
18018TIP3    H175469   1.266   0.365   0.624  0.1731  2.1024  1.8107
18018TIP3    H275470   1.407   0.386   0.673  1.1423  3.0476 -1.2030
18019TIP3   OH275471   1.521   4.062   5.617  0.3666 -0.0393  0.0137
18019TIP3    H175472   1.453   4.006   5.581  2.6804 -2.4450 -0.9823
18019TIP3    H275473   1.500   4.068   5.710 -1.4271 -0.3418 -0.3456
18020TIP3   OH275474   6.208   4.736   0.446  0.1602 -0.3098  0.0045
18020TIP3    H175475   6.122   4.699   0.430 -0.3706  0.8310  0.0803
18020TIP3    H275476   6.264   4.699   0.378 -0.7405  0.0945 -0.9912
18021TIP3   OH275477   4.753   5.282  14.915  0.2243 -0.4664  0.0591
18021TIP3    H175478   4.681   5.238  14.959 -0.6976  1.1634  0.2739
18021TIP3    H275479   4.832   5.238  14.948 -0.5995 -1.4426  0.7979
18022TIP3   OH275480   5.050   3.584   1.466  0.6312 -0.0076  0.4831
18022TIP3    H175481   5.119   3.520   1.447  0.5072 -0.1707  0.5881
18022TIP3    H275482   5.061   3.604   1.559  1.1654  0.7044  0.2757
18023TIP3   OH275483   5.194   3.152  16.102 -0.2141  0.2320 -0.4361
18023TIP3    H175484   5.213   3.167  16.194 -1.7253  0.3236 -0.1082
18023TIP3    H275485   5.210   3.237  16.060  1.3402 -0.0434 -0.4322
18024TIP3   OH275486   0.719   0.432  12.109  0.5454 -0.2181  0.6552
18024TIP3    H175487   0.715   0.473  12.023  2.6194  0.9783  1.0661
18024TIP3    H275488   0.672   0.492  12.167  0.5409 -0.2050  0.6375
18025TIP3   OH275489   1.916   5.053   2.253  0.2972  0.3269  0.2429
18025TIP3    H175490   1.864   4.990   2.202  0.8830  0.1522 -0.1520
18025TIP3    H275491   1.864   5.133   2.252  0.6956  0.6087 -1.4340
18026TIP3   OH275492   2.204   2.218   1.995  0.1834 -0.7344  0.3748
18026TIP3    H175493   2.188   2.124   1.999 -0.7033 -0.6329 -0.4590
18026TIP3    H275494   2.120   2.256   1.968  0.6165  0.2634  0.3825
18027TIP3   OH275495   2.029   0.899   6.635  0.0089  0.4399  0.2027
18027TIP3    H175496   1.937   0.924   6.631  0.0618  0.6014  0.0069
18027TIP3    H275497   2.060   0.907   6.545 -0.2395 -1.3423 -0.0874
18028TIP3   OH275498   3.559   3.343   3.750 -0.1115  0.4441 -0.1716
18028TIP3    H175499   3.529   3.316   3.664 -2.8608  0.4944  0.6552
18028TIP3    H275500   3.612   3.271   3.782  1.1435  0.5262 -1.9412
18029TIP3   OH275501   5.456   2.365   1.116 -0.2159 -0.1892  0.9158
18029TIP3    H175502   5.361   2.382   1.114 -0.0209  1.0560  1.4129
18029TIP3    H275503   5.469   2.299   1.049 -1.4216 -0.2666  0.7226
18030TIP3   OH275504   1.979   2.050  13.978 -0.6849 -0.2954  0.4191
18030TIP3    H175505   1.899   1.997  13.984 -0.1472 -1.0790  0.8181
18030TIP3    H275506   1.975   2.089  13.890 -1.0832 -1.0280  0.1022
18031TIP3   OH275507   4.543   3.454  13.973 -0.2202  0.3430  0.3434
18031TIP3    H175508   4.563   3.384  13.911 -0.2358  0.5004  0.1607
18031TIP3    H275509   4.625   3.468  14.020  0.0094  0.7478 -0.1688
18032TIP3   OH275510   2.603   2.872   5.954  0.2561  0.1646 -0.4032
18032TIP3    H175511   2.543   2.828   6.014 -0.4072  0.2225 -1.0023
18032TIP3    H275512   2.621   2.957   5.995  0.4627 -0.1258  0.1039
18033TIP3   OH275513   3.882   3.290  14.984 -0.2314 -0.8296 -0.1956
18033TIP3    H175514   3.823   3.291  14.909 -0.5302 -0.2119  0.0378
18033TIP3    H275515   3.940   3.215  14.969 -1.0155 -1.3917 -0.4660
18034TIP3   OH275516   3.393   1.187  12.034 -0.5254 -1.2038  0.7180
18034TIP3    H175517   3.405   1.121  11.965 -1.9468  0.6875 -1.5094
18034TIP3    H275518   3.305   1.168  12.069 -0.7323 -0.8003  0.4200
18035TIP3   OH275519   0.187   5.510  11.997 -0.6341 -0.0977 -0.3305
18035TIP3    H175520   0.120   5.570  12.032  1.6717  1.5829  1.4999
18035TIP3    H275521   0.193   5.534  11.905  0.6987  3.2076  0.4455
18036TIP3   OH275522   3.409   5.078   5.088 -0.0074  0.6188  0.0560
18036TIP3    H175523   3.455   4.996   5.101 -2.1573 -0.9708 -1.5136
18036TIP3    H275524   3.472   5.146   5.111  1.5782 -1.4540  2.1927
18037TIP3   OH275525   2.807   3.544  14.357  0.2723  0.3345 -0.2857
18037TIP3    H175526   2.776   3.497  14.435  0.2566  0.4935 -0.1947
18037TIP3    H275527   2.890   3.502  14.336  1.0669  1.3059  0.7625
18038TIP3   OH275528   4.260   0.021   4.083  0.1041 -0.0565 -1.0306
18038TIP3    H175529   4.349  -0.013   4.068  0.1947  0.8704 -2.8624
18038TIP3    H275530   4.204  -0.037   4.032 -0.8883 -2.7645  2.7351
18039TIP3   OH275531   5.696   2.474  15.170  0.0929 -0.2238 -0.3309
18039TIP3    H175532   5.705   2.544  15.235 -0.0152 -0.2930 -0.2403
18039TIP3    H275533   5.715   2.516  15.086  0.8695 -0.2741 -0.1902
18040TIP3   OH275534   6.388   4.711   1.487  0.0026 -0.3132 -0.2400
18040TIP3    H175535   6.388   4.618   1.467 -0.6969 -0.6336  1.1465
18040TIP3    H275536   6.298   4.739   1.470 -0.1944 -0.2493  0.8688
18041TIP3   OH275537   0.485   3.418   2.340  1.0208 -0.5588  0.5339
18041TIP3    H175538   0.439   3.460   2.413  2.1559  0.9487  0.4391
18041TIP3    H275539   0.548   3.358   2.382 -0.2927 -1.8874  0.6823
18042TIP3   OH275540   1.661   2.479   4.877  0.3323 -0.4602 -0.3981
18042TIP3    H175541   1.736   2.464   4.819  0.2011  1.6708 -1.2000
18042TIP3    H275542   1.650   2.574   4.878 -0.1371 -0.4532  2.5736
18043TIP3   OH275543   5.167   0.833   5.274  0.3488 -0.5357  0.0724
18043TIP3    H175544   5.145   0.762   5.213  1.5617  0.3081 -1.4055
18043TIP3    H275545   5.259   0.819   5.295  0.1334 -0.3812  1.1504
18044TIP3   OH275546   2.555   5.845   0.001  0.0127 -0.2303  0.5643
18044TIP3    H175547   2.473   5.883   0.031  1.2253  1.8575  1.4553
18044TIP3    H275548   2.577   5.780   0.067 -0.0706  0.4503  1.2800
18045TIP3   OH275549   4.208   2.528   2.340 -0.2272 -0.1745 -0.7010
18045TIP3    H175550   4.270   2.461   2.367 -0.4639  0.2464  1.0223
18045TIP3    H275551   4.162   2.490   2.266  1.0855 -1.0609 -1.0929
18046TIP3   OH275552   2.029   1.221  10.548 -0.2977 -0.2534 -0.1065
18046TIP3    H175553   1.973   1.279  10.600  0.2051 -0.0344  0.1938
18046TIP3    H275554   1.996   1.230  10.458 -1.6009 -1.1250  0.2457
18047TIP3   OH275555   4.706   3.917   1.830 -0.0740  0.3630  0.0968
18047TIP3    H175556   4.713   3.947   1.740  1.0483  0.7937  0.3077
18047TIP3    H275557   4.739   3.827   1.828  0.8364  0.6862  0.2255
18048TIP3   OH275558   3.873   1.307   0.549  0.0014 -0.0508  0.4622
18048TIP3    H175559   3.792   1.262   0.525 -1.1131  1.5668  1.0344
18048TIP3    H275560   3.913   1.330   0.465 -0.2752 -0.5907  0.1754
18049TIP3   OH275561   6.738   1.848  11.782 -0.6767 -0.0165  0.3982
18049TIP3    H175562   6.746   1.942  11.765 -1.6414 -0.0123 -0.0637
18049TIP3    H275563   6.751   1.841  11.877  0.4078  0.4560  0.2982
18050TIP3   OH275564   0.797   3.292   4.591 -0.4291 -0.6041 -0.0702
18050TIP3    H175565   0.804   3.386   4.607 -1.4041 -0.4863 -0.2633
18050TIP3    H275566   0.806   3.283   4.496  0.0940 -0.7571 -0.0096
18051TIP3   OH275567   6.603   6.491   3.930  0.1938 -0.2966 -0.1234
18051TIP3    H175568   6.632   6.407   3.964  0.6314 -0.1576 -0.1370
18051TIP3    H275569   6.631   6.490   3.838 -2.6086 -1.4247 -1.0474
18052TIP3   OH275570   2.250   1.011   0.823  0.6454  0.6131 -0.0974
18052TIP3    H175571   2.238   1.056   0.906  0.2468  0.6447 -0.1717
18052TIP3    H275572   2.321   0.949   0.839  0.0921  0.1091  0.4753
18053TIP3   OH275573   1.397   3.866   1.088 -0.0409 -0.2495  0.3006
18053TIP3    H175574   1.489   3.847   1.073  0.4132  0.7696  1.5994
18053TIP3    H275575   1.389   3.961   1.074 -0.9118 -0.3391  0.1164
18054TIP3   OH275576   1.428   0.559  15.924  0.0042 -0.4020 -0.4490
18054TIP3    H175577   1.522   0.560  15.906  0.1604  1.5665  0.1602
18054TIP3    H275578   1.397   0.643  15.889 -1.0633  0.0301  1.3942
18055TIP3   OH275579   0.641   1.288   3.780  0.4030  0.1686  0.3480
18055TIP3    H175580   0.711   1.255   3.837  1.6741  1.3027 -0.4910
18055TIP3    H275581   0.629   1.379   3.807  1.4423  0.9062 -1.5064
18056TIP3   OH275582   2.391   5.614  15.302  0.1419  0.2125  0.1690
18056TIP3    H175583   2.333   5.554  15.257  0.1977  0.1816  0.1384
18056TIP3    H275584   2.402   5.577  15.390 -0.3742  0.5414  0.3761
18057TIP3   OH275585   4.528   3.236   1.584  0.4086  0.1308  0.3775
18057TIP3    H175586   4.607   3.194   1.551  0.6535 -0.2890  1.4726
18057TIP3    H275587   4.557   3.288   1.659 -0.2295  0.6350  0.2881
18058TIP3   OH275588   1.545   4.775   0.021  0.3797  0.2146 -0.1272
18058TIP3    H175589   1.507   4.840  -0.038 -0.5380 -1.5736 -1.6146
18058TIP3    H275590   1.479   4.706   0.027  0.2899  0.4540  3.3539
18059TIP3   OH275591   3.873   2.259   1.389 -0.0677 -0.5953 -0.0152
18059TIP3    H175592   3.963   2.227   1.385  0.8502  1.6759  0.5046
18059TIP3    H275593   3.846   2.244   1.480  1.1850  1.9188  0.8735
18060TIP3   OH275594   3.902   6.293  12.163  0.0253  0.1592  0.0870
18060TIP3    H175595   3.982   6.246  12.188 -0.4906 -2.2357 -2.1925
18060TIP3    H275596   3.922   6.328  12.076 -1.0400  0.4200 -0.0609
18061TIP3   OH275597   3.881   3.335   0.024  0.5090  0.4580 -0.2476
18061TIP3    H175598   3.890   3.276   0.099  0.8015 -0.2117 -0.7976
18061TIP3    H275599   3.941   3.407   0.043  0.6675  0.2316  0.1109
18062TIP3   OH275600   4.821   0.154  12.050 -0.4123 -0.3767  0.3226
18062TIP3    H175601   4.801   0.210  11.975  0.5615  1.9197  1.6625
18062TIP3    H275602   4.917   0.152  12.054 -0.3856  1.1115  2.4993
18063TIP3   OH275603   1.737   0.003   3.363 -0.3399 -0.1897 -0.2717
18063TIP3    H175604   1.643   0.009   3.347 -0.8276 -1.1556  1.8787
18063TIP3    H275605   1.768  -0.063   3.302 -1.0425  0.1572 -1.0202
18064TIP3   OH275606   0.840   1.136   1.265 -0.1201  0.1773 -0.1353
18064TIP3    H175607   0.886   1.140   1.350  0.3734  0.9868 -0.4217
18064TIP3    H275608   0.803   1.224   1.254 -3.4344 -0.9359  0.9587
18065TIP3   OH275609   6.504   6.114  13.080 -0.2214 -0.1768 -0.0933
18065TIP3    H175610   6.497   6.147  12.991 -2.5553  2.4396  0.9084
18065TIP3    H275611   6.587   6.149  13.112 -0.7333  1.3642 -0.3759
18066TIP3   OH275612   5.152   3.009   5.044 -0.8081  0.6486  0.5119
18066TIP3    H175613   5.184   3.093   5.079 -0.4554  0.8479 -0.2776
18066TIP3    H275614   5.058   3.023   5.031 -0.9506  0.5691  1.3656
18067TIP3   OH275615   4.062   1.145   3.154  0.2995  0.7341  0.1582
18067TIP3    H175616   4.050   1.222   3.099  1.0923  1.3707  0.8492
18067TIP3    H275617   4.019   1.168   3.237 -1.0613 -0.2866 -0.2279
18068TIP3   OH275618   6.624   2.577  15.070 -0.5049  0.1076 -0.6652
18068TIP3    H175619   6.645   2.560  14.978  0.9958  1.0350 -0.5321
18068TIP3    H275620   6.632   2.491  15.112  1.0828  0.0491 -1.0213
18069TIP3   OH275621   1.860   2.474   2.755 -0.8989  0.5283  0.1762
18069TIP3    H175622   1.797   2.447   2.822  0.6452 -0.9336  1.1074
18069TIP3    H275623   1.888   2.392   2.715  2.0540  0.8949  1.3043
18070TIP3   OH275624   1.621   4.361  16.253 -0.2572  0.2225  0.0612
18070TIP3    H175625   1.610   4.277  16.297 -0.1929  0.9669  1.5700
18070TIP3    H275626   1.714   4.367  16.233 -0.3472 -0.2806 -0.5354
18071TIP3   OH275627   3.264   6.619   6.479  0.2767 -0.0660  0.3614
18071TIP3    H175628   3.193   6.567   6.442  0.2012 -0.1072  0.5625
18071TIP3    H275629   3.313   6.557   6.534 -0.8435  0.4651  2.0302
18072TIP3   OH275630   6.336   5.148   3.024  0.0657  0.2951 -0.5543
18072TIP3    H175631   6.270   5.081   3.044  0.0263  0.1263 -1.2400
18072TIP3    H275632   6.364   5.128   2.935  0.1442  1.1188 -0.7201
18073TIP3   OH275633   6.186   6.332   2.730 -0.1465  0.5000  0.0502
18073TIP3    H175634   6.194   6.367   2.818  1.3777 -0.1277  0.1829
18073TIP3    H275635   6.199   6.238   2.740  1.3837  0.5666 -0.9814
18074TIP3   OH275636   2.559   4.023   1.490 -0.1964 -0.1237 -0.3980
18074TIP3    H175637   2.476   3.983   1.465 -0.8128  0.4933  0.5614
18074TIP3    H275638   2.576   3.990   1.578  0.3693  0.0725 -0.4277
18075TIP3   OH275639   1.058   0.952  11.856 -0.0783 -0.1857  0.5574
18075TIP3    H175640   1.082   0.888  11.789  1.5781  1.3510 -0.4224
18075TIP3    H275641   1.123   0.941  11.925  1.1426  1.3011 -0.2705
18076TIP3   OH275642   6.427   5.511   1.113  0.5201  0.1897 -0.2497
18076TIP3    H175643   6.390   5.468   1.036  0.3599  0.0857 -0.1142
18076TIP3    H275644   6.351   5.540   1.163  0.5977  1.8145 -0.9868
18077TIP3   OH275645   1.046   2.362   5.927  0.0337 -0.3236 -0.2389
18077TIP3    H175646   1.062   2.300   5.856 -2.6137  0.1604 -1.3514
18077TIP3    H275647   0.983   2.318   5.984  1.4081 -0.3176  1.3851
18078TIP3   OH275648   5.195   0.193  12.263 -0.0601  0.1859 -0.3163
18078TIP3    H175649   5.102   0.209  12.280  0.0149  1.2212 -0.7863
18078TIP3    H275650   5.208   0.102  12.287 -0.9225  0.3609  0.8992
18079TIP3   OH275651   4.269   0.638  16.281  0.1069  0.0077 -0.1306
18079TIP3    H175652   4.334   0.708  16.285 -0.7940  0.8278  0.4714
18079TIP3    H275653   4.290   0.583  16.357 -1.0236  1.3147  1.1878
18080TIP3   OH275654   5.436   0.765   2.666 -0.5864  0.1394 -0.3915
18080TIP3    H175655   5.413   0.825   2.737  1.3856 -0.5775  0.9548
18080TIP3    H275656   5.367   0.698   2.669 -0.8250  0.4049  0.5357
18081TIP3   OH275657   5.296   2.579   2.583 -0.1924 -0.0223  0.0263
18081TIP3    H175658   5.308   2.505   2.523  0.9994  0.6868 -0.6503
18081TIP3    H275659   5.380   2.586   2.629 -0.9622 -0.3201  1.5484
18082TIP3   OH275660   0.902   5.697   2.600  0.3174 -0.0915 -0.6261
18082TIP3    H175661   0.966   5.738   2.659  0.4438  0.1708 -0.9405
18082TIP3    H275662   0.819   5.737   2.622  0.4714  0.4917 -1.0638
18083TIP3   OH275663   2.040   0.966   5.471 -0.3228 -0.9749  0.0931
18083TIP3    H175664   2.044   1.041   5.531  1.4486 -0.7822 -0.2140
18083TIP3    H275665   1.993   0.998   5.395  0.1021 -0.2636  0.1195
18084TIP3   OH275666   2.329   3.391   4.190  0.1872 -0.1522  0.3125
18084TIP3    H175667   2.277   3.350   4.259 -2.3761  1.1591 -0.6801
18084TIP3    H275668   2.335   3.324   4.121 -1.7719  0.1746 -0.2529
18085TIP3   OH275669   4.508   1.498   0.795  0.5583 -0.2450 -0.5947
18085TIP3    H175670   4.476   1.433   0.857 -0.5298  0.9234  0.1113
18085TIP3    H275671   4.601   1.508   0.816  0.2876 -0.1349  0.6108
18086TIP3   OH275672   4.229   1.242  11.702 -0.3455 -1.0436 -0.4106
18086TIP3    H175673   4.292   1.237  11.774 -1.1788 -1.2134  0.3216
18086TIP3    H275674   4.143   1.244  11.745 -0.8164  0.5152 -1.3334
18087TIP3   OH275675   5.609   4.664  14.907  0.2663  0.7629  0.5904
18087TIP3    H175676   5.615   4.589  14.967 -0.2124  0.0809 -0.1955
18087TIP3    H275677   5.668   4.642  14.835 -2.7665 -0.7934 -1.6421
18088TIP3   OH275678   1.772   1.052   3.261 -0.2517 -0.1120  0.3686
18088TIP3    H175679   1.702   1.088   3.315 -0.9134  0.2666 -0.7237
18088TIP3    H275680   1.852   1.075   3.308 -0.8568 -0.8988  1.8361
18089TIP3   OH275681   2.360   2.359   0.984  0.0802 -0.1959  0.3024
18089TIP3    H175682   2.342   2.329   0.895  2.2723 -0.4608 -0.1113
18089TIP3    H275683   2.307   2.438   0.994 -0.7598 -0.5676 -0.9617
18090TIP3   OH275684   5.353   0.623  13.105  0.4358  0.0041  0.0329
18090TIP3    H175685   5.342   0.528  13.110  0.0099  0.0803  0.7786
18090TIP3    H275686   5.448   0.636  13.110  0.4902 -0.3820  0.0337
18091TIP3   OH275687   1.477   3.065   1.505  0.0241 -0.3152  1.1383
18091TIP3    H175688   1.531   3.136   1.472  0.5281 -0.3238  1.9149
18091TIP3    H275689   1.392   3.079   1.465 -0.1698  1.2999  2.0173
18092TIP3   OH275690   0.448   0.187   2.044  0.4305 -0.1140 -0.4065
18092TIP3    H175691   0.361   0.189   2.083 -0.0301  2.1013 -1.4289
18092TIP3    H275692   0.506   0.212   2.116 -0.1843  1.8175 -0.5320
18093TIP3   OH275693   6.661   4.314  11.800 -0.2740 -0.7514 -0.2934
18093TIP3    H175694   6.682   4.223  11.778 -0.0285 -0.6959 -0.2898
18093TIP3    H275695   6.624   4.310  11.888  2.3731 -0.5320  0.8994
18094TIP3   OH275696   3.645   1.094   6.800  0.1079  0.0369 -0.8172
18094TIP3    H175697   3.721   1.144   6.830  0.3529 -0.9097  0.1955
18094TIP3    H275698   3.571   1.131   6.848  0.4470 -1.2372  0.7891
18095TIP3   OH275699   3.977   3.036  11.327 -0.2439 -0.6351 -0.6517
18095TIP3    H175700   3.995   3.128  11.348 -2.2623 -0.3348 -0.0243
18095TIP3    H275701   4.061   2.992  11.339  0.3209  0.7915  0.9796
18096TIP3   OH275702   4.225   4.442   1.245 -0.0523  0.3780 -0.1346
18096TIP3    H175703   4.230   4.393   1.163  0.6522  0.8818 -0.4024
18096TIP3    H275704   4.278   4.391   1.307  1.2306  1.1179 -0.5896
18097TIP3   OH275705   5.564   0.402   6.123  0.2947 -0.2753 -0.4190
18097TIP3    H175706   5.501   0.452   6.174  1.2334 -0.9520  1.5196
18097TIP3    H275707   5.589   0.329   6.181  1.9457 -0.6935 -1.5877
18098TIP3   OH275708   0.381   2.944  13.005  0.1593 -0.3839 -0.1011
18098TIP3    H175709   0.420   2.949  12.917  0.8330  1.1951  0.2577
18098TIP3    H275710   0.456   2.934  13.064 -0.2732 -1.1680  0.3309
18099TIP3   OH275711   3.989   3.705  14.404  0.1676  0.0039 -0.1432
18099TIP3    H175712   4.022   3.736  14.319 -1.2801 -1.4855 -1.3052
18099TIP3    H275713   4.010   3.612  14.406 -0.7592 -0.2077  0.6496
18100TIP3   OH275714   1.024   4.167   6.457  0.0906 -0.0144 -0.2673
18100TIP3    H175715   1.044   4.260   6.447  1.0339 -0.0001  1.3583
18100TIP3    H275716   0.929   4.162   6.447  0.1237  0.9683 -1.3059
18101TIP3   OH275717   6.519   2.038  12.750  0.8810  0.4082  0.1277
18101TIP3    H175718   6.501   2.036  12.844  0.8112 -1.2734  0.1070
18101TIP3    H275719   6.432   2.040  12.709  0.9136  1.3652  0.0848
18102TIP3   OH275720   1.366   2.640   1.902  0.4282 -0.3028 -0.0138
18102TIP3    H175721   1.420   2.573   1.859 -0.2014  0.4337 -2.0565
18102TIP3    H275722   1.282   2.596   1.917  0.2953 -0.2424 -0.5606
18103TIP3   OH275723   6.205   2.080   6.240  0.8755 -0.2166  0.0380
18103TIP3    H175724   6.116   2.112   6.252  0.3729 -1.4854 -0.1735
18103TIP3    H275725   6.245   2.085   6.327  0.3152 -0.4731  0.3102
18104TIP3   OH275726   3.682   6.037  11.130 -0.1558  0.2334  0.1171
18104TIP3    H175727   3.678   6.072  11.041 -0.8513 -1.4407 -0.5568
18104TIP3    H275728   3.683   5.942  11.118 -0.2439 -0.0251  1.9048
18105TIP3   OH275729   1.572   0.287   4.416  0.2211  0.3730 -0.6575
18105TIP3    H175730   1.591   0.207   4.368  1.5194 -0.0251  0.4620
18105TIP3    H275731   1.610   0.357   4.362  0.1094  0.1142 -1.0713
18106TIP3   OH275732   6.717   1.893   3.310 -0.3866  0.3263  0.4607
18106TIP3    H175733   6.763   1.922   3.389 -0.0848  2.1357 -0.3224
18106TIP3    H275734   6.635   1.856   3.342  1.1372 -2.1486  1.8241
18107TIP3   OH275735   5.100   5.971  15.486 -0.9005 -0.1081  0.0343
18107TIP3    H175736   5.104   5.902  15.420 -0.1896 -0.1438  0.1147
18107TIP3    H275737   5.162   6.038  15.456  0.5255 -0.7731  1.3910
18108TIP3   OH275738   3.735   5.656   5.910  0.6314  0.0714 -0.1203
18108TIP3    H175739   3.665   5.602   5.945  1.6979 -0.9454  0.5357
18108TIP3    H275740   3.724   5.652   5.815 -1.5404  1.8395 -0.0250
18109TIP3   OH275741   4.354   4.666   0.430 -0.6687  0.1808  0.7057
18109TIP3    H175742   4.426   4.619   0.471 -0.7952  0.1951  0.9496
18109TIP3    H275743   4.341   4.743   0.485 -0.1501  0.7558  0.0376
18110TIP3   OH275744   3.359   6.264  15.403  0.1373  1.0290  0.8074
18110TIP3    H175745   3.354   6.177  15.443  0.6143  0.3774 -0.4649
18110TIP3    H275746   3.398   6.320  15.470 -0.0100  0.2199  1.5846
18111TIP3   OH275747   2.171   5.770  10.901  0.2695  0.3614 -0.0395
18111TIP3    H175748   2.191   5.758  10.808  1.6542 -1.3932  0.4222
18111TIP3    H275749   2.131   5.687  10.928  0.2787  0.6827  1.0250
18112TIP3   OH275750   1.551   3.048  13.199  0.5298  0.1414  0.9746
18112TIP3    H175751   1.593   2.978  13.149 -0.3056 -0.6494  1.3604
18112TIP3    H275752   1.623   3.092  13.245  1.4358  1.3765 -1.4536
18113TIP3   OH275753   5.596   1.365  13.222  0.1191 -0.7010 -1.0372
18113TIP3    H175754   5.596   1.461  13.213 -1.0625 -0.6348 -0.5370
18113TIP3    H275755   5.678   1.337  13.181  1.1347  0.6310  0.0019
18114TIP3   OH275756   4.200   6.059  14.952  0.3644  0.3879  0.4051
18114TIP3    H175757   4.288   6.042  14.919 -1.5497 -4.0023 -3.5719
18114TIP3    H275758   4.202   6.026  15.043  2.5361 -0.8701 -0.0290
18115TIP3   OH275759   4.676   6.152  10.863  0.2058 -0.3664 -0.1562
18115TIP3    H175760   4.722   6.080  10.906 -0.7183 -2.0175 -1.7877
18115TIP3    H275761   4.587   6.149  10.899  0.8852  1.9376  1.9660
18116TIP3   OH275762   5.855   2.881   3.609 -0.3616  0.1675 -0.5308
18116TIP3    H175763   5.912   2.950   3.574  0.4540  0.0174  0.4577
18116TIP3    H275764   5.902   2.800   3.590  0.1372  0.0885  0.9584
18117TIP3   OH275765   4.857   5.884   5.456 -0.1846 -0.5153  0.2108
18117TIP3    H175766   4.822   5.936   5.529 -2.7512 -0.3392 -1.0398
18117TIP3    H275767   4.897   5.808   5.498 -1.9211 -0.6067  1.8624
18118TIP3   OH275768   1.476   0.755   0.837  0.2397  0.0347  0.2916
18118TIP3    H175769   1.453   0.668   0.870 -1.0576 -0.2942 -1.2918
18118TIP3    H275770   1.518   0.737   0.753 -2.5844  0.9085 -1.4574
18119TIP3   OH275771   3.041   3.730  13.692 -0.0063  0.0652  0.6182
18119TIP3    H175772   3.134   3.722  13.669 -0.4842 -0.2640 -1.3943
18119TIP3    H275773   2.997   3.666  13.636 -1.3336 -0.8420  2.5921
18120TIP3   OH275774   0.348   4.368   4.275  0.6829 -0.5823  0.7580
18120TIP3    H175775   0.293   4.292   4.259 -1.0254  0.7497 -0.1103
18120TIP3    H275776   0.438   4.336   4.263 -0.0223 -1.5648 -4.3415
18121TIP3   OH275777   3.425   0.921  16.944  0.2564  0.5397 -0.0395
18121TIP3    H175778   3.501   0.863  16.946  0.3700  0.4666 -2.6276
18121TIP3    H275779   3.463   1.009  16.934  0.0614  0.4726 -1.6746
18122TIP3   OH275780   6.068   2.667   1.904 -0.1264 -0.3125  0.4368
18122TIP3    H175781   6.018   2.678   1.824 -0.5035 -1.0581  0.5648
18122TIP3    H275782   6.159   2.681   1.878 -0.3204  0.2963  0.0559
18123TIP3   OH275783   4.463   3.125   3.978 -0.4393  0.1636 -0.0013
18123TIP3    H175784   4.477   3.156   4.067 -0.3621 -0.4602  0.2121
18123TIP3    H275785   4.503   3.037   3.977  1.4050  0.9510 -1.2130
18124TIP3   OH275786   6.248   6.692  11.250 -0.0398  0.5837  0.1358
18124TIP3    H175787   6.287   6.725  11.331  1.6390 -0.8215 -0.0443
18124TIP3    H275788   6.161   6.731  11.247 -0.4420  0.0916  3.0071
18125TIP3   OH275789   6.650   1.880  13.623  0.5064 -0.1687  0.6079
18125TIP3    H175790   6.635   1.800  13.572  1.5760 -0.7918  1.2306
18125TIP3    H275791   6.603   1.865  13.705  0.0296  0.1989  0.4063
18126TIP3   OH275792   2.838   0.968   2.026 -0.5574  0.6186  0.1783
18126TIP3    H175793   2.834   0.880   2.062 -0.8885  0.8217  0.6551
18126TIP3    H275794   2.796   1.023   2.092 -2.1203  0.8579 -0.9544
18127TIP3   OH275795   0.800   1.952  17.150  0.3518 -0.5627  0.1005
18127TIP3    H175796   0.737   1.917  17.212  1.1694 -1.2073  0.5817
18127TIP3    H275797   0.863   1.882  17.137 -0.1000 -0.6686 -1.9141
18128TIP3   OH275798   2.337   5.980  11.651  0.4640  0.1399 -1.0518
18128TIP3    H175799   2.338   5.914  11.720 -3.2760 -0.1242 -1.0669
18128TIP3    H275800   2.339   6.064  11.697 -0.7972 -0.0363 -0.6451
18129TIP3   OH275801   5.815   3.385   0.161 -0.3979  0.1193 -0.0656
18129TIP3    H175802   5.861   3.303   0.143 -0.9984 -0.4111  0.7384
18129TIP3    H275803   5.807   3.388   0.256  1.5715  2.2251  0.1005
18130TIP3   OH275804   3.344   1.210   3.927  0.3148  0.0867 -0.1628
18130TIP3    H175805   3.355   1.304   3.916  1.2728  0.2485  1.9172
18130TIP3    H275806   3.397   1.171   3.857  0.6359  1.0539 -0.4689
18131TIP3   OH275807   4.131   6.362  11.017  0.1784 -0.2097  0.1222
18131TIP3    H175808   4.155   6.333  10.929  0.1783  0.9002 -0.2571
18131TIP3    H275809   4.036   6.375  11.013  0.3146  0.8781 -0.0552
18132TIP3   OH275810   3.759   5.439   1.015 -0.1986  0.3377  0.2550
18132TIP3    H175811   3.791   5.512   1.069  0.9860  0.7219 -0.9248
18132TIP3    H275812   3.792   5.361   1.060  2.5665  0.7132 -0.9058
18133TIP3   OH275813   4.805   2.091   3.368  0.4537  0.5836 -0.1223
18133TIP3    H175814   4.770   2.024   3.428  0.0936  1.5825  0.8078
18133TIP3    H275815   4.737   2.158   3.365  0.1460  0.2325 -2.2545
18134TIP3   OH275816   6.327   2.634  14.885  0.3250  0.0768 -0.3159
18134TIP3    H175817   6.334   2.596  14.798  0.3928  1.2303 -0.8283
18134TIP3    H275818   6.377   2.715  14.881 -1.8484  1.5198 -0.0217
18135TIP3   OH275819   3.585   3.935  13.072  0.6863  0.0133  0.1525
18135TIP3    H175820   3.516   3.933  13.138  0.9652 -1.0768  0.4248
18135TIP3    H275821   3.582   4.024  13.038  1.2486  0.9894  2.4138
18136TIP3   OH275822   5.888   4.231   4.225  0.1759 -0.1301  0.0223
18136TIP3    H175823   5.963   4.291   4.226  0.1322 -0.0615 -0.6529
18136TIP3    H275824   5.845   4.247   4.309  1.1575 -0.4885  0.6116
18137TIP3   OH275825   6.036   3.047  16.160 -0.0680 -0.3447  0.5316
18137TIP3    H175826   6.108   3.084  16.108 -0.5656  0.5530  0.4569
18137TIP3    H275827   6.070   2.964  16.192  1.1524  0.2461  0.8324
18138TIP3   OH275828   4.570   4.948  12.522  0.5544  0.5557 -0.0404
18138TIP3    H175829   4.606   4.983  12.604  2.9349 -1.4549 -0.1067
18138TIP3    H275830   4.505   4.883  12.550 -0.0694  1.2463  0.1649
18139TIP3   OH275831   5.822   5.969   4.080  0.4986 -0.4988  0.4303
18139TIP3    H175832   5.754   5.934   4.137 -0.6987 -2.5886 -2.0630
18139TIP3    H275833   5.904   5.955   4.129 -0.6107 -0.0770  2.5120
18140TIP3   OH275834   5.665   2.486   1.313  0.3635 -0.3829  0.7974
18140TIP3    H175835   5.624   2.448   1.235  0.7751  0.5702  0.0895
18140TIP3    H275836   5.725   2.419   1.343  0.9543 -0.3952 -0.3356
18141TIP3   OH275837   5.864   2.086  15.843  0.7821  0.1649  0.1423
18141TIP3    H175838   5.952   2.114  15.819  1.2270 -2.1464 -1.2096
18141TIP3    H275839   5.877   2.016  15.907 -0.1129  0.3292  0.5192
18142TIP3   OH275840   1.926   1.345   2.570 -0.2034 -0.2146  0.0403
18142TIP3    H175841   1.955   1.429   2.534 -0.0375 -1.4851 -3.0379
18142TIP3    H275842   2.005   1.305   2.605  0.0240  0.1935 -0.0068
18143TIP3   OH275843   4.582   4.764   5.527  0.0306  0.4038 -0.2203
18143TIP3    H175844   4.659   4.812   5.556  1.2991 -1.9672  0.6210
18143TIP3    H275845   4.600   4.744   5.435  1.7326 -2.2683  0.5777
18144TIP3   OH275846   0.331   5.459   1.933 -0.1204 -0.1149  0.5014
18144TIP3    H175847   0.336   5.504   1.849  2.5899 -0.4714  0.3848
18144TIP3    H275848   0.273   5.385   1.918 -1.7128  1.2514 -0.3116
18145TIP3   OH275849   3.979   5.604   5.689  0.0480  0.3404  0.2380
18145TIP3    H175850   3.980   5.696   5.714 -1.7848  0.0488  1.5315
18145TIP3    H275851   3.899   5.593   5.638  0.6165 -0.4023 -0.5334
18146TIP3   OH275852   1.927   1.647   3.914  0.8475 -0.8766 -0.1262
18146TIP3    H175853   1.843   1.678   3.879  0.6072 -0.7355  0.5689
18146TIP3    H275854   1.993   1.692   3.860  0.4936  0.3030  0.3961
18147TIP3   OH275855   3.608   0.548   3.309  0.8315  0.1393  0.0608
18147TIP3    H175856   3.593   0.543   3.404  0.9830  1.2441  0.1493
18147TIP3    H275857   3.639   0.637   3.294  0.5259  0.0630 -1.0782
18148TIP3   OH275858   5.026   0.546   1.489 -0.5300 -0.6151  0.0698
18148TIP3    H175859   5.076   0.531   1.569 -1.8056 -0.2924  0.9500
18148TIP3    H275860   5.039   0.638   1.468  1.3475 -1.1053 -1.2148
18149TIP3   OH275861   4.923   4.113  12.301 -0.2974 -0.3159  0.1914
18149TIP3    H175862   4.980   4.113  12.224  1.5802 -1.3934  1.5008
18149TIP3    H275863   4.949   4.191  12.351 -1.3814  0.2781 -0.1266
18150TIP3   OH275864   4.364   1.733   4.121 -0.2364 -0.4702 -0.4786
18150TIP3    H175865   4.367   1.821   4.159 -0.6825  0.3276 -2.1887
18150TIP3    H275866   4.309   1.743   4.043 -0.9154 -2.4406 -0.3043
18151TIP3   OH275867   5.660   1.486   4.328 -0.6159 -0.7383  0.0392
18151TIP3    H175868   5.656   1.421   4.398 -0.2589  1.1194  1.9236
18151TIP3    H275869   5.641   1.569   4.372  1.2024  0.7398 -1.7617
18152TIP3   OH275870   0.666   4.075   3.550  0.5167 -0.7890 -0.0198
18152TIP3    H175871   0.640   3.995   3.504 -1.5536  0.4901 -1.1762
18152TIP3    H275872   0.722   4.122   3.488 -0.6613  0.0034 -0.5112
18153TIP3   OH275873   3.398   1.504   5.176  0.2400  0.5106 -0.1828
18153TIP3    H175874   3.449   1.460   5.108 -2.4487 -0.6714 -1.6185
18153TIP3    H275875   3.459   1.518   5.248  2.6844 -0.1549 -2.0074
18154TIP3   OH275876   3.800   1.683  14.566  0.0932 -0.2505  0.5555
18154TIP3    H175877   3.768   1.608  14.616  0.5278 -0.2759  0.7957
18154TIP3    H275878   3.818   1.750  14.632  1.7665 -0.6701  0.5574
18155TIP3   OH275879   4.966   4.449  16.358 -0.7880  0.0152  0.1690
18155TIP3    H175880   4.907   4.397  16.303 -0.6133 -1.8130  1.6081
18155TIP3    H275881   5.033   4.387  16.386 -0.6946  0.9414  2.1636
18156TIP3   OH275882   0.849   6.664  15.917 -0.2199 -0.0063  0.3576
18156TIP3    H175883   0.915   6.615  15.869 -1.0070 -0.8908  0.1649
18156TIP3    H275884   0.858   6.754  15.884  1.5896  0.1284  1.1106
18157TIP3   OH275885   2.252   0.911  11.641 -1.0185 -0.4508  0.1910
18157TIP3    H175886   2.275   0.994  11.598 -0.4731 -0.0402  1.2400
18157TIP3    H275887   2.259   0.845  11.571 -1.5241  0.3856 -0.6757
18158TIP3   OH275888   1.020   1.702   2.684  0.5771 -0.3301  0.2353
18158TIP3    H175889   0.975   1.777   2.724  0.8233 -1.4709  2.8918
18158TIP3    H275890   0.993   1.628   2.738  1.6811 -1.8878 -1.2711
18159TIP3   OH275891   2.475   0.774   4.432  0.2306 -0.5674  0.2021
18159TIP3    H175892   2.542   0.834   4.400  0.9218 -0.6085  1.4994
18159TIP3    H275893   2.399   0.789   4.376  1.2809 -0.4279 -1.2077
18160TIP3   OH275894   1.486   0.044   4.698 -0.1172  0.1128  0.7765
18160TIP3    H175895   1.501   0.038   4.792  1.3398 -1.7108  0.4801
18160TIP3    H275896   1.549   0.110   4.668  2.0074 -1.8300  0.6636
18161TIP3   OH275897   0.109   4.411   2.087  0.0158  0.6577  0.0552
18161TIP3    H175898   0.115   4.342   2.153  0.7068 -0.1894 -0.8806
18161TIP3    H275899   0.174   4.476   2.114  0.8800 -0.0789 -0.2378
18162TIP3   OH275900   3.122   1.261  11.642  0.6402 -0.6406 -0.4343
18162TIP3    H175901   3.115   1.352  11.612  1.6780 -0.5846 -0.5379
18162TIP3    H275902   3.036   1.223  11.623 -0.3315  0.7242  0.9959
18163TIP3   OH275903   1.554   3.882  13.409  0.2580  0.3916 -0.0520
18163TIP3    H175904   1.580   3.963  13.365  2.7166 -0.9669 -1.2872
18163TIP3    H275905   1.540   3.909  13.500  1.4593  2.1352 -0.3265
18164TIP3   OH275906   4.687   2.983  15.685 -0.2320 -0.6715  0.4110
18164TIP3    H175907   4.609   2.932  15.662 -0.8656  0.3343  0.3031
18164TIP3    H275908   4.757   2.917  15.694 -0.6444 -1.4018 -1.3655
18165TIP3   OH275909   6.364   4.786  11.253  0.0787  0.3021  0.4610
18165TIP3    H175910   6.414   4.798  11.173 -0.1753 -0.0961  0.2359
18165TIP3    H275911   6.402   4.709  11.295 -0.1978  0.1320  0.4020
18166TIP3   OH275912   4.128   3.201  14.862  0.2913 -0.3613  0.3292
18166TIP3    H175913   4.212   3.239  14.887 -0.1950  0.1723  1.2159
18166TIP3    H275914   4.145   3.107  14.857  0.9954 -0.2376  0.2654
18167TIP3   OH275915   2.955   4.229  16.899  0.7255  0.4191  0.0039
18167TIP3    H175916   2.886   4.278  16.855 -0.3161 -0.7863  0.2260
18167TIP3    H275917   2.960   4.146  16.850  1.9222  0.4407  0.0744
18168TIP3   OH275918   2.315   2.299   4.171  0.2487  0.4723 -0.4114
18168TIP3    H175919   2.336   2.250   4.091 -1.2436 -0.0768 -0.4985
18168TIP3    H275920   2.273   2.379   4.139 -3.0268 -1.0074 -0.2415
18169TIP3   OH275921   0.168   5.033  16.006  0.0062 -0.5637  0.3822
18169TIP3    H175922   0.207   4.955  16.045 -2.0300 -1.8807 -0.0630
18169TIP3    H275923   0.118   5.074  16.076  0.0231 -0.3683  0.2837
18170TIP3   OH275924   4.535   0.086  13.935  0.1046 -0.4364 -0.0697
18170TIP3    H175925   4.588   0.110  14.012  1.5264  0.1959 -1.1915
18170TIP3    H275926   4.529   0.167  13.884 -1.2236 -0.7342 -0.4141
18171TIP3   OH275927   2.573   6.402  15.855  0.2741  0.6734  0.3483
18171TIP3    H175928   2.617   6.476  15.813  0.7974 -0.0176 -0.3617
18171TIP3    H275929   2.498   6.384  15.798 -0.0289  0.8562  0.6911
18172TIP3   OH275930   4.101   5.086  13.533 -0.5138  0.8195  0.1056
18172TIP3    H175931   4.138   5.100  13.446  0.8234  0.0788  0.5190
18172TIP3    H275932   4.030   5.023  13.520  0.0566  0.2659 -0.3847
18173TIP3   OH275933   4.218   5.053  16.050  0.1322 -0.1179 -0.0091
18173TIP3    H175934   4.176   4.993  16.112  1.1109 -0.6065  0.2046
18173TIP3    H275935   4.255   4.995  15.983 -0.2817  0.3608 -0.6571
18174TIP3   OH275936   2.829   4.503   3.724  0.1502 -0.7903 -0.1018
18174TIP3    H175937   2.889   4.555   3.777 -0.6721 -0.4921  0.5641
18174TIP3    H275938   2.879   4.480   3.646  0.9601 -0.1417  0.2138
18175TIP3   OH275939   0.868   2.874   3.279 -0.3959 -0.5592 -0.0693
18175TIP3    H175940   0.842   2.855   3.189 -0.4204 -1.0693  0.0430
18175TIP3    H275941   0.790   2.912   3.319 -0.1025  0.5314 -0.5218
18176TIP3   OH275942   4.869   6.051  14.363 -0.1174 -0.1621  0.5311
18176TIP3    H175943   4.788   6.067  14.314  0.2480 -1.3245 -0.5020
18176TIP3    H275944   4.853   5.969  14.409  0.7731 -0.8951 -0.4118
18177TIP3   OH275945   4.341   0.934  16.195 -0.0769 -0.3425  0.8885
18177TIP3    H175946   4.291   0.985  16.260 -0.9850  0.0729 -0.1192
18177TIP3    H275947   4.277   0.906  16.131  0.5992 -1.8810  0.8374
18178TIP3   OH275948   3.636   6.596  16.697 -0.8656 -0.4498  0.1689
18178TIP3    H175949   3.705   6.662  16.692 -2.4341  1.2446 -0.1768
18178TIP3    H275950   3.683   6.513  16.707  1.1868  0.6737  0.4247
18179TIP3   OH275951   6.709   3.963   3.067  0.5981  0.4426 -0.6179
18179TIP3    H175952   6.672   3.882   3.030  1.9697  0.2199 -1.5703
18179TIP3    H275953   6.716   3.945   3.160 -2.3525  0.7853 -0.2073
18180TIP3   OH275954   6.428   2.016  13.022 -0.4184 -0.3918 -0.0763
18180TIP3    H175955   6.452   1.947  13.084 -1.6650 -1.3123 -0.5882
18180TIP3    H275956   6.352   2.059  13.061  1.0783  1.5699  0.8468
18181TIP3   OH275957   1.744   1.099   4.293  0.1055 -0.3836  0.1608
18181TIP3    H175958   1.708   1.187   4.282 -0.5944 -0.8791 -1.9785
18181TIP3    H275959   1.667   1.043   4.307  0.3321 -0.9220 -0.6372
18182TIP3   OH275960   6.760   6.392  15.304 -0.2085  0.1740  0.2265
18182TIP3    H175961   6.703   6.324  15.341  1.3985 -1.3914 -0.0608
18182TIP3    H275962   6.722   6.411  15.218  1.5507 -3.5236 -1.6122
18183TIP3   OH275963   3.504   3.641  13.311 -0.5250  0.1991  0.1028
18183TIP3    H175964   3.512   3.595  13.227 -2.2304 -0.7890  0.4277
18183TIP3    H275965   3.552   3.586  13.373 -3.8007 -2.1835  0.7991
18184TIP3   OH275966   5.941   1.830  14.598  1.1673  0.2903  0.1289
18184TIP3    H175967   5.951   1.735  14.603 -0.0258  0.1470 -0.0680
18184TIP3    H275968   5.950   1.850  14.504 -0.7691  0.0873 -0.1400
18185TIP3   OH275969   2.089   4.645   1.007  0.5766 -0.2400 -0.0831
18185TIP3    H175970   2.094   4.697   0.927  1.5010  0.4359  0.3937
18185TIP3    H275971   2.162   4.677   1.061  0.0300 -0.7555  0.9880
18186TIP3   OH275972   1.224   0.497   3.948  0.3457  0.1141  0.8403
18186TIP3    H175973   1.286   0.453   4.005 -1.5213 -2.9155  0.7308
18186TIP3    H275974   1.138   0.471   3.981 -0.8264  0.5119 -1.6698
18187TIP3   OH275975   3.208   3.934   4.154  0.6054 -0.2991  0.4278
18187TIP3    H175976   3.145   3.977   4.096  2.3152  2.3374  0.2910
18187TIP3    H275977   3.170   3.942   4.241  0.0951 -0.0753  0.1906
18188TIP3   OH275978   4.114   3.063   1.877 -0.0485  0.0693  0.7392
18188TIP3    H175979   4.202   3.058   1.914 -0.2406 -0.7297  1.0908
18188TIP3    H275980   4.072   3.132   1.928 -0.5690 -1.5528  2.6142
18189TIP3   OH275981   4.010   2.183   0.222 -0.0683 -0.0938 -0.5373
18189TIP3    H175982   3.952   2.169   0.297  0.2108  3.0471  0.4076
18189TIP3    H275983   4.084   2.123   0.237 -1.1440 -1.2292  0.3902
18190TIP3   OH275984   2.144   5.162   0.330  0.2046 -0.1530  0.4294
18190TIP3    H175985   2.237   5.152   0.350  0.7070  1.9151 -0.6564
18190TIP3    H275986   2.141   5.192   0.240 -1.5899 -1.0698  0.1314
18191TIP3   OH275987   0.475   1.967  16.581  0.4531 -0.5282  0.1034
18191TIP3    H175988   0.471   1.999  16.671  0.2135 -1.2967  0.3692
18191TIP3    H275989   0.494   2.045  16.529  0.0981  0.0072  0.7627
18192TIP3   OH275990   2.445   5.166   3.382 -0.1925  0.3329 -0.1101
18192TIP3    H175991   2.367   5.219   3.367 -0.0146  0.7153  0.2867
18192TIP3    H275992   2.485   5.157   3.295  1.2205  3.1315  0.1162
18193TIP3   OH275993   5.834   4.719   1.422 -0.4964  0.2781 -0.0367
18193TIP3    H175994   5.755   4.665   1.420 -0.4805  0.2129  0.9657
18193TIP3    H275995   5.831   4.763   1.507 -0.5499  1.9197 -0.8438
18194TIP3   OH275996   4.668   2.359   2.795 -0.0894 -0.2541  0.3618
18194TIP3    H175997   4.594   2.324   2.844 -0.7021 -0.6289 -0.7916
18194TIP3    H275998   4.740   2.298   2.814 -0.0627  0.1037  1.4712
18195TIP3   OH275999   1.509   5.198  15.302 -0.2120  0.4545  0.3991
18195TIP3    H176000   1.458   5.262  15.352 -0.9288  0.0947  0.1477
18195TIP3    H276001   1.458   5.117  15.307  0.5158 -0.0069  0.4283
18196TIP3   OH276002   5.676   5.350   4.550  0.0653  0.6210  0.9569
18196TIP3    H176003   5.712   5.423   4.600  1.7388  0.8922 -0.5360
18196TIP3    H276004   5.584   5.374   4.536  0.7765  2.9607 -0.2973
18197TIP3   OH276005   0.024   5.189   2.298 -0.3010 -0.1256 -0.1828
18197TIP3    H176006  -0.042   5.140   2.248 -0.3750 -0.7687  0.5188
18197TIP3    H276007   0.064   5.247   2.234 -0.5897 -0.7276 -0.9317
18198TIP3   OH276008   5.018   2.694  11.816 -0.0566 -0.1580 -0.1115
18198TIP3    H176009   5.018   2.621  11.755  1.5573  0.3855 -0.8239
18198TIP3    H276010   5.098   2.682  11.868 -0.1840  0.6645  0.3003
18199TIP3   OH276011   2.631   5.676   4.034 -0.0386  0.9322 -0.1945
18199TIP3    H176012   2.630   5.756   4.087 -0.0537 -0.1342  1.4884
18199TIP3    H276013   2.668   5.609   4.092 -1.1170 -0.5524 -1.1501
18200TIP3   OH276014   2.194   3.462   0.486 -0.3981 -0.2780  0.3104
18200TIP3    H176015   2.242   3.545   0.493 -0.3304 -0.2203 -0.6507
18200TIP3    H276016   2.115   3.476   0.538 -0.2041  0.2564  0.4727
18201TIP3   OH276017   3.302   5.218  15.673  0.0030 -0.8467 -0.2207
18201TIP3    H176018   3.395   5.236  15.662  0.0032  0.4654  1.4717
18201TIP3    H276019   3.300   5.136  15.723  0.3456  0.0023  1.2552
18202TIP3   OH276020   6.758   4.388   1.119 -0.9661  0.0372  0.1045
18202TIP3    H176021   6.845   4.349   1.108 -0.0377  1.9684  0.0980
18202TIP3    H276022   6.757   4.418   1.210 -1.1827  0.9936 -0.1997
18203TIP3   OH276023   6.675   5.539  11.455  0.2491  0.2093 -0.2338
18203TIP3    H176024   6.587   5.531  11.418  0.6460 -2.9575 -0.7808
18203TIP3    H276025   6.693   5.633  11.453 -3.3434  1.0683  0.5543
18204TIP3   OH276026   0.402   0.064  15.919  0.1159  0.7490  0.0085
18204TIP3    H176027   0.438  -0.000  15.980  0.3472  1.4077  0.5720
18204TIP3    H276028   0.319   0.091  15.960  0.6195  1.7259  0.4006
18205TIP3   OH276029   4.893   2.879  13.211 -0.1005 -0.8117 -0.0588
18205TIP3    H176030   4.812   2.913  13.250  0.8663  1.4553  0.1084
18205TIP3    H276031   4.868   2.855  13.122 -0.8432  0.4636 -0.2178
18206TIP3   OH276032   3.674   3.353  10.797 -0.2925 -0.1669  0.8572
18206TIP3    H176033   3.665   3.264  10.765 -1.6035 -0.6407  2.4194
18206TIP3    H276034   3.585   3.386  10.804  0.1529  1.1445  0.6691
18207TIP3   OH276035   0.435   5.694  16.426 -0.0733  0.3921 -0.1006
18207TIP3    H176036   0.505   5.696  16.492 -0.0984 -1.6868  0.0496
18207TIP3    H276037   0.429   5.602  16.400 -1.1690  0.9077 -1.8463
18208TIP3   OH276038   4.608   4.758  12.871 -0.6859 -0.0560 -0.0764
18208TIP3    H176039   4.570   4.694  12.810 -1.3423 -0.1183  0.3909
18208TIP3    H276040   4.572   4.842  12.843 -0.9675 -0.0811  0.2092
18209TIP3   OH276041   2.601   0.990   4.277 -0.1905 -0.5906 -0.1138
18209TIP3    H176042   2.578   1.027   4.362 -0.4779  1.4190 -1.0114
18209TIP3    H276043   2.673   1.044   4.246 -1.8862  0.5626 -2.3419
18210TIP3   OH276044   0.141   0.775  13.418 -0.6563 -0.0440  0.4444
18210TIP3    H176045   0.063   0.800  13.469 -1.1921  2.5074 -1.4009
18210TIP3    H276046   0.172   0.858  13.380  0.7838 -1.5295 -1.8470
18211TIP3   OH276047   0.710   2.991  11.423  0.8086 -0.1665  0.2680
18211TIP3    H176048   0.750   3.076  11.406 -0.4997  0.1756 -1.3697
18211TIP3    H276049   0.636   3.011  11.480  0.3143 -0.1464 -0.3716
18212TIP3   OH276050   0.686   1.128  13.567  0.7394 -0.1518 -0.1005
18212TIP3    H176051   0.732   1.062  13.514 -0.0433 -0.7988  0.0107
18212TIP3    H276052   0.658   1.081  13.646 -0.1373  0.2188 -0.1751
18213TIP3   OH276053   6.455   5.660  12.471  0.4413  0.2404  0.3553
18213TIP3    H176054   6.463   5.566  12.454  1.7192  0.9123 -4.1638
18213TIP3    H276055   6.456   5.668  12.567 -0.5411 -4.3183  0.9608
18214TIP3   OH276056   1.472   1.824  12.911 -0.1837 -0.2382  0.2618
18214TIP3    H176057   1.509   1.911  12.898 -1.0469 -0.0142 -0.8700
18214TIP3    H276058   1.441   1.824  13.001  0.5173  0.3564  0.5081
18215TIP3   OH276059   2.603   2.564   2.953  0.2647 -0.4923  0.0166
18215TIP3    H176060   2.691   2.578   2.987  0.0353 -0.3942  0.5829
18215TIP3    H276061   2.568   2.652   2.940 -0.0331 -0.5329  0.5438
18216TIP3   OH276062   1.977   4.898  11.435  0.0721  0.0481  0.1451
18216TIP3    H176063   2.069   4.928  11.430  0.2455 -0.4999  0.0187
18216TIP3    H276064   1.959   4.865  11.347 -0.1507 -0.1332  0.2607
18217TIP3   OH276065   6.413   4.410  14.490 -0.5975  0.0384  0.1036
18217TIP3    H176066   6.399   4.415  14.395  0.9216  0.6501 -0.1209
18217TIP3    H276067   6.437   4.318  14.506  1.4589  0.3945 -0.5200
18218TIP3   OH276068   1.060   5.913   1.039 -0.1739 -0.2845  0.6061
18218TIP3    H176069   1.077   5.990   1.093 -0.3366 -0.9145  1.5633
18218TIP3    H276070   1.131   5.913   0.975  0.5754 -0.0654  1.4175
18219TIP3   OH276071   6.050   0.270   6.301  0.0164  0.1533  0.3477
18219TIP3    H176072   6.038   0.313   6.385  0.8752  1.0256  0.0383
18219TIP3    H276073   5.985   0.199   6.301  1.2517 -1.0898  2.5252
18220TIP3   OH276074   0.153   4.075   1.208 -0.0660 -0.4734  0.0637
18220TIP3    H176075   0.146   3.990   1.251 -0.8590 -0.2117  0.4666
18220TIP3    H276076   0.063   4.100   1.188  0.2288 -0.1994 -1.0028
18221TIP3   OH276077   1.426   5.820   2.707  0.1732  0.0481  0.2581
18221TIP3    H176078   1.378   5.877   2.767  2.4199  2.6959 -0.2168
18221TIP3    H276079   1.366   5.806   2.634 -0.5389  1.7528  0.4726
18222TIP3   OH276080   2.730   2.874  15.928 -0.5364  0.1220  0.4732
18222TIP3    H176081   2.666   2.943  15.912 -0.4111 -0.1579 -1.4200
18222TIP3    H276082   2.811   2.906  15.889 -0.8654 -1.6888 -1.9313
18223TIP3   OH276083   0.426   5.098  16.405  0.1163  0.0688 -0.4497
18223TIP3    H176084   0.472   5.017  16.386  0.9052  0.6058 -0.9270
18223TIP3    H276085   0.494   5.157  16.438 -0.1398  0.9968 -1.5106
18224TIP3   OH276086   5.314   4.284   0.734 -0.0494  0.5718 -0.0497
18224TIP3    H176087   5.239   4.325   0.690 -1.3751  0.4497  1.9688
18224TIP3    H276088   5.328   4.203   0.687  0.0195  1.4475 -1.5994
18225TIP3   OH276089   5.977   0.299   2.157  0.0930  0.3264  0.1732
18225TIP3    H176090   5.902   0.310   2.215  2.0963  1.6222  2.7233
18225TIP3    H276091   6.028   0.380   2.168  2.4367 -0.9530 -0.5608
18226TIP3   OH276092   3.066   1.275  15.074  0.7008 -0.2277 -0.1541
18226TIP3    H176093   3.124   1.202  15.099  2.1106  1.7401  2.9458
18226TIP3    H276094   3.116   1.324  15.009  1.1702 -0.2884  0.1546
18227TIP3   OH276095   1.834   0.438  15.087 -0.3796  0.2227  0.0842
18227TIP3    H176096   1.800   0.365  15.036 -1.9189  0.1867  1.0807
18227TIP3    H276097   1.825   0.514  15.029  0.4330 -0.2336 -0.6505
18228TIP3   OH276098   0.299   6.028  11.287 -0.0850  0.0320  0.2981
18228TIP3    H176099   0.333   6.075  11.210 -1.4398 -0.2686 -0.5208
18228TIP3    H276100   0.208   6.009  11.264 -0.2745 -0.7740  1.6667
18229TIP3   OH276101   6.620   6.229   5.919 -0.1439 -0.6689  0.1333
18229TIP3    H176102   6.531   6.209   5.949 -0.3433  1.1992  0.9137
18229TIP3    H276103   6.633   6.320   5.942  1.8544 -0.7907 -0.3397
18230TIP3   OH276104   2.093   4.302  14.392  0.1251 -0.0125  0.9107
18230TIP3    H176105   2.046   4.241  14.449  1.8707 -1.7211  0.6042
18230TIP3    H276106   2.182   4.304  14.427  0.7218  0.4445 -0.5646
18231TIP3   OH276107   4.577   5.038  17.020 -0.2190  0.1891  0.1328
18231TIP3    H176108   4.559   5.127  17.051 -0.3322  0.1330  0.2252
18231TIP3    H276109   4.657   5.012  17.066  0.4210  0.6429 -0.6837
18232TIP3   OH276110   2.444   3.181   2.122 -0.4378 -0.2515 -0.0040
18232TIP3    H176111   2.378   3.244   2.152  1.5613  0.7682  2.7177
18232TIP3    H276112   2.491   3.227   2.052 -1.2563 -0.1550 -0.5010
18233TIP3   OH276113   4.784   3.223   3.342 -0.4470 -0.7325  0.4270
18233TIP3    H176114   4.701   3.245   3.300 -0.7143 -1.4075  0.5868
18233TIP3    H276115   4.813   3.304   3.383 -1.0877 -0.5269  0.4792
18234TIP3   OH276116   4.241   1.432   2.008 -0.7337 -1.2207 -0.2474
18234TIP3    H176117   4.312   1.477   1.962 -0.1165 -2.4967 -0.5934
18234TIP3    H276118   4.234   1.478   2.092  0.2402 -0.8356 -0.3624
18235TIP3   OH276119   4.124   2.758  16.827 -0.1600  0.4740  0.0812
18235TIP3    H176120   4.174   2.687  16.866 -0.9115 -0.6218 -0.8907
18235TIP3    H276121   4.047   2.716  16.789 -0.3839  1.7289 -0.9427
18236TIP3   OH276122   2.884   1.084   2.723 -0.3354 -0.3555 -0.0388
18236TIP3    H176123   2.861   1.057   2.634  1.5540 -0.9800 -0.4039
18236TIP3    H276124   2.830   1.029   2.780 -0.6716 -0.8391 -0.8012
18237TIP3   OH276125   4.204   3.695   2.624 -0.1061  0.1058 -0.2555
18237TIP3    H176126   4.255   3.752   2.566  1.0073 -2.2648 -1.7472
18237TIP3    H276127   4.267   3.663   2.688 -0.5133 -0.1754  0.0070
18238TIP3   OH276128   1.683   3.666   4.004  0.2405  0.5646  0.1702
18238TIP3    H176129   1.709   3.718   4.079 -0.9113  1.8281 -0.2615
18238TIP3    H276130   1.757   3.673   3.943  0.6754  0.5171  0.6812
18239TIP3   OH276131   2.950   0.726   3.591 -0.4903  0.1709 -0.0325
18239TIP3    H176132   2.964   0.701   3.682 -1.6130 -3.2617 -0.6541
18239TIP3    H276133   2.862   0.764   3.590 -0.2724  0.6966  0.3666
18240TIP3   OH276134   2.524   0.474   1.659 -0.0426  0.1144  0.3247
18240TIP3    H176135   2.523   0.403   1.724 -0.4238 -1.0495 -0.9000
18240TIP3    H276136   2.505   0.430   1.576  1.9096  1.3095 -0.8330
18241TIP3   OH276137   5.624   0.321  14.505 -0.5371  0.4232  0.2358
18241TIP3    H176138   5.565   0.256  14.542 -0.5717  0.0822 -0.4116
18241TIP3    H276139   5.610   0.399  14.559  1.0565 -0.6864  2.4056
18242TIP3   OH276140   1.159   4.337  14.340  0.6610  0.4458  0.1401
18242TIP3    H176141   1.132   4.412  14.394  0.6102 -0.1213  0.9197
18242TIP3    H276142   1.240   4.306  14.382  1.3601  0.8070 -0.9000
18243TIP3   OH276143   3.681   4.389  12.900 -0.1123  0.4009  0.6423
18243TIP3    H176144   3.721   4.474  12.887 -0.9021  0.8408  1.0254
18243TIP3    H276145   3.742   4.342  12.957  0.0361  0.9340  0.9274
18244TIP3   OH276146   2.015   2.068   0.181 -0.0524  0.1071 -0.1250
18244TIP3    H176147   1.970   1.993   0.221 -0.9066  0.2928 -0.7278
18244TIP3    H276148   2.045   2.036   0.096  1.7040 -0.2631  0.5876
18245TIP3   OH276149   2.145   5.496   4.458 -0.7217  0.5886  0.4389
18245TIP3    H176150   2.229   5.528   4.493  0.0627 -1.7753  0.8784
18245TIP3    H276151   2.169   5.445   4.381 -1.8866  0.7036 -0.0193
18246TIP3   OH276152   6.760   6.592   2.496 -0.3788  0.4173 -0.3023
18246TIP3    H176153   6.733   6.614   2.586  1.7232  0.1697  0.4363
18246TIP3    H276154   6.767   6.497   2.496 -1.4319  0.3175 -1.0937
18247TIP3   OH276155   2.923   5.131  11.527 -0.2241 -0.8120 -0.0204
18247TIP3    H176156   2.854   5.153  11.464  0.5824 -0.1734 -0.7014
18247TIP3    H276157   2.893   5.171  11.609  0.2626  1.2473 -0.7733
18248TIP3   OH276158   2.083   3.959   0.179  0.1543  0.0149  0.5279
18248TIP3    H176159   2.020   3.888   0.165 -1.4617  0.6542  3.6614
18248TIP3    H276160   2.148   3.921   0.239 -0.3802  0.9385  1.7289
18249TIP3   OH276161   1.631   4.368  11.605 -0.0175  0.1839  0.2960
18249TIP3    H176162   1.565   4.380  11.536  0.6207  1.9686 -0.0660
18249TIP3    H276163   1.652   4.275  11.602 -0.9433 -0.0149 -1.0589
18250TIP3   OH276164   2.484   2.132   1.826 -0.0466  0.0102 -0.6798
18250TIP3    H176165   2.441   2.049   1.845 -1.7699  0.5519 -1.9211
18250TIP3    H276166   2.536   2.151   1.904 -1.2118 -1.2297  0.4499
18251TIP3   OH276167   3.032   1.056  13.976 -0.0026 -0.3459  0.3637
18251TIP3    H176168   3.086   1.123  14.017 -1.5111  0.4120  1.2295
18251TIP3    H276169   3.072   0.973  14.003 -0.2254  0.1558  2.4283
18252TIP3   OH276170   5.482   1.680  14.337 -0.0822 -0.0991  0.5424
18252TIP3    H176171   5.459   1.741  14.268  0.4238 -0.7261 -0.2000
18252TIP3    H276172   5.509   1.600  14.291 -0.7355 -0.8954  1.4807
18253TIP3   OH276173   0.043   4.069  13.481 -0.6063 -0.1303 -0.3976
18253TIP3    H176174   0.103   4.036  13.414 -0.8722 -0.8670 -0.2843
18253TIP3    H276175   0.088   4.054  13.564 -0.3059  0.7217 -0.3983
18254TIP3   OH276176   3.811   3.878  15.115 -0.2453 -0.2947 -0.1858
18254TIP3    H176177   3.727   3.884  15.071 -0.5315  0.7192  0.4539
18254TIP3    H276178   3.876   3.884  15.045 -0.6868  1.4206 -0.5135
18255TIP3   OH276179   2.056   1.573   3.421  0.1135  0.3278 -0.4471
18255TIP3    H176180   2.014   1.535   3.498 -1.4883  0.3480 -1.2654
18255TIP3    H276181   2.043   1.667   3.431  0.7808  0.4077 -0.2715
18256TIP3   OH276182   5.739   2.522  12.969  0.4227  0.1841 -0.1127
18256TIP3    H176183   5.661   2.489  12.924  1.0761  0.2933 -1.3715
18256TIP3    H276184   5.764   2.599  12.919 -0.3927  2.0021  2.0876
18257TIP3   OH276185   2.276   5.075  14.625 -0.5104 -1.0449 -0.1647
18257TIP3    H176186   2.351   5.060  14.567 -1.5922  0.1733 -1.9914
18257TIP3    H276187   2.201   5.081  14.566 -1.3914  2.5076  1.0452
18258TIP3   OH276188   6.499   4.065  14.313  0.5982 -0.6887  0.3835
18258TIP3    H176189   6.568   4.131  14.311 -1.2202  1.3746 -3.0392
18258TIP3    H276190   6.479   4.048  14.221 -4.6594  0.3426  1.0100
18259TIP3   OH276191   4.305   1.218   3.795  0.0464 -0.3936 -0.7398
18259TIP3    H176192   4.388   1.239   3.839  0.0240  2.7957 -1.9628
18259TIP3    H276193   4.321   1.240   3.703 -2.5728  1.8745 -0.7533
18260TIP3   OH276194   4.058   1.418  14.209  0.0544  0.0740  0.3169
18260TIP3    H176195   4.046   1.508  14.237  1.1442  0.6739 -1.0015
18260TIP3    H276196   4.133   1.387  14.259 -0.1381 -0.0066  0.5563
18261TIP3   OH276197   6.495   3.030   2.128  0.3620  0.1311  0.2199
18261TIP3    H176198   6.444   3.018   2.208 -0.1458 -3.0663 -0.4503
18261TIP3    H276199   6.582   2.997   2.150  1.1208  1.9957  0.2297
18262TIP3   OH276200   5.675   6.214   5.178  0.2930  0.1067  0.3449
18262TIP3    H176201   5.621   6.277   5.131 -1.0906  0.2960  2.1063
18262TIP3    H276202   5.762   6.224   5.139 -0.3248  1.7126 -0.7310
18263TIP3   OH276203   4.013   3.638  14.738  0.0656  0.4818 -0.3923
18263TIP3    H176204   4.048   3.646  14.826  0.3500  0.3411 -0.4914
18263TIP3    H276205   3.925   3.675  14.743 -0.4791 -0.8496  0.2922
18264TIP3   OH276206   0.197   2.279   2.762  0.2015  0.1546 -0.1002
18264TIP3    H176207   0.173   2.226   2.686  0.2656  0.2496 -0.1873
18264TIP3    H276208   0.205   2.216   2.833 -1.2504  0.2265  0.1536
18265TIP3   OH276209   5.479   3.559   3.854  0.7068  0.5248  0.2749
18265TIP3    H176210   5.526   3.534   3.934 -0.5882  1.0718  1.2428
18265TIP3    H276211   5.457   3.651   3.866 -0.5410  0.3029 -0.1720
18266TIP3   OH276212   4.835   2.527   5.447  0.6193  0.1964  0.6803
18266TIP3    H176213   4.862   2.539   5.356 -2.3902 -1.1623 -0.5046
18266TIP3    H276214   4.800   2.612   5.473  0.3941  0.2781  0.1328
18267TIP3   OH276215   0.906   0.623   1.735  0.1575 -0.1003 -0.5106
18267TIP3    H176216   0.990   0.583   1.759  0.1336  0.5808  0.8083
18267TIP3    H276217   0.910   0.632   1.640  1.1268 -1.0716 -0.5738
18268TIP3   OH276218   0.927   4.792   3.040  0.5395 -0.5146 -0.0603
18268TIP3    H176219   0.854   4.733   3.056 -0.0570  0.8782  3.1596
18268TIP3    H276220   0.995   4.764   3.102  0.1261  2.1428  1.8076
18269TIP3   OH276221   0.178   1.377   3.134  0.0130  0.2673 -0.2041
18269TIP3    H176222   0.159   1.302   3.077 -1.7686 -0.3670  1.1472
18269TIP3    H276223   0.272   1.393   3.120  0.5055 -2.2865 -0.4805
18270TIP3   OH276224   0.236   0.015   0.765  0.0501  0.4116  0.0643
18270TIP3    H176225   0.246  -0.045   0.838 -2.2954  0.6504  0.6723
18270TIP3    H276226   0.204   0.096   0.804 -0.8922  0.6710 -1.1596
18271TIP3   OH276227   2.199   2.484   1.258  0.1631 -0.3217 -0.8978
18271TIP3    H176228   2.200   2.506   1.165 -0.3616  0.1970 -0.7829
18271TIP3    H276229   2.281   2.520   1.293  1.3114 -2.1602 -1.5113
18272TIP3   OH276230   6.340   0.755  11.975  0.7770  0.2726 -0.4239
18272TIP3    H176231   6.347   0.665  12.007  1.0913  1.5924  3.8926
18272TIP3    H276232   6.247   0.769  11.961  0.6459 -0.4826 -0.3451
18273TIP3   OH276233   3.149   5.676   5.257 -0.2587 -0.6603  0.1214
18273TIP3    H176234   3.227   5.727   5.280  0.4772 -2.1006  1.0117
18273TIP3    H276235   3.089   5.688   5.331  0.0646 -1.3157  0.5090
18274TIP3   OH276236   4.647   6.611   2.306  0.1916  0.4752 -0.1904
18274TIP3    H176237   4.668   6.696   2.268  0.9948 -0.0221 -0.9280
18274TIP3    H276238   4.723   6.590   2.361  0.6226 -0.3378 -1.0628
18275TIP3   OH276239   2.016   4.624  12.621  0.2101 -0.0164 -0.4412
18275TIP3    H176240   2.111   4.619  12.622  0.2017 -1.0373  2.1447
18275TIP3    H276241   1.994   4.684  12.692 -1.0855  1.2839 -1.8810
18276TIP3   OH276242   1.271   3.906  11.530 -1.0177 -0.9141 -0.4810
18276TIP3    H176243   1.251   3.860  11.612 -1.3584  1.1219  0.6607
18276TIP3    H276244   1.337   3.852  11.488 -0.3316 -1.7035  1.4742
18277TIP3   OH276245   4.140   3.363  10.894 -0.4353 -0.2723 -0.1562
18277TIP3    H176246   4.071   3.379  10.829 -0.7036 -0.5818  0.0464
18277TIP3    H276247   4.102   3.391  10.977  0.5535  1.8565 -0.3487
18278TIP3   OH276248   3.036   6.654  11.869 -0.1328 -0.3273 -0.0442
18278TIP3    H176249   3.097   6.591  11.907  0.1233 -0.8950 -1.3171
18278TIP3    H276250   2.969   6.667  11.937 -1.1227 -3.2749 -0.2686
18279TIP3   OH276251   5.366   1.042  11.993 -0.1157  0.0450  0.1599
18279TIP3    H176252   5.338   1.095  12.068  1.5431  1.1051  0.0751
18279TIP3    H276253   5.334   1.091  11.917 -3.6252 -2.0494  0.0519
18280TIP3   OH276254   5.372   5.282  14.588 -0.5030 -0.0062 -0.5406
18280TIP3    H176255   5.297   5.252  14.639  1.3483 -1.6935  1.3890
18280TIP3    H276256   5.364   5.378  14.588 -1.8347 -0.0697  0.9230
18281TIP3   OH276257   5.178   0.749  16.552  0.6293 -0.0013  0.1520
18281TIP3    H176258   5.207   0.667  16.511  0.0142  0.2960 -0.9223
18281TIP3    H276259   5.252   0.808  16.542  0.5759 -0.0109 -0.2955
18282TIP3   OH276260   3.936   4.227  11.583 -0.1952 -0.7289 -0.0980
18282TIP3    H176261   3.937   4.318  11.611 -0.3176 -0.2311 -1.6142
18282TIP3    H276262   3.928   4.177  11.664 -1.9061  0.6592  0.6551
18283TIP3   OH276263   2.666   4.041  12.455 -0.0441  0.2231 -0.1429
18283TIP3    H176264   2.753   4.058  12.489 -0.3945  0.8241  0.4930
18283TIP3    H276265   2.661   3.945  12.448  0.9417  0.2171 -0.9822
18284TIP3   OH276266   6.292   3.143  14.642 -0.8083  0.4770 -0.0688
18284TIP3    H176267   6.272   3.171  14.553 -0.5939  0.7901 -0.0231
18284TIP3    H276268   6.380   3.106  14.637 -0.9357  0.1706 -0.0532
18285TIP3   OH276269   1.104   4.120   3.678  0.2395  0.0494  0.2528
18285TIP3    H176270   1.189   4.154   3.707  0.7262  0.2213 -1.2755
18285TIP3    H276271   1.125   4.064   3.604 -0.9507 -0.3072  0.1657
18286TIP3   OH276272   0.931   2.107  14.042 -0.2644 -0.1536 -0.6583
18286TIP3    H176273   0.845   2.081  14.008 -0.9147  0.4012  0.4965
18286TIP3    H276274   0.911   2.153  14.124  1.0244  1.5798 -1.2752
18287TIP3   OH276275   4.449   2.032   3.832  0.9882 -0.0872 -0.0665
18287TIP3    H176276   4.507   2.006   3.903  0.5228  0.7382  0.6368
18287TIP3    H276277   4.478   2.120   3.807  0.7790 -0.1377 -0.5090
18288TIP3   OH276278   6.337   5.174   0.242 -0.0573  0.3534 -0.1733
18288TIP3    H176279   6.268   5.211   0.297 -0.8905 -0.1594 -0.8255
18288TIP3    H276280   6.403   5.142   0.303 -0.6289  0.4366  0.4972
18289TIP3   OH276281   3.715   2.498  12.800  0.2950  0.6171  0.2129
18289TIP3    H176282   3.741   2.416  12.842  0.7423  1.0543  0.7982
18289TIP3    H276283   3.662   2.470  12.725  0.5917 -0.2139  0.2988
18290TIP3   OH276284   5.974   1.554   1.780  0.0107  0.5600 -0.2818
18290TIP3    H176285   5.937   1.468   1.802 -0.9850  0.3408 -2.5601
18290TIP3    H276286   5.929   1.615   1.837  0.5596 -0.3651  1.2148
18291TIP3   OH276287   5.431   4.219  11.787  0.3348 -0.3223 -0.3932
18291TIP3    H176288   5.434   4.310  11.758  2.6302 -0.0355  0.5124
18291TIP3    H276289   5.486   4.172  11.724 -0.3733 -0.9900 -0.5265
18292TIP3   OH276290   3.930   3.445   3.945 -0.4826 -0.1930  0.8724
18292TIP3    H176291   3.923   3.510   4.015  2.1002  1.2523 -0.0326
18292TIP3    H276292   3.982   3.374   3.982  1.1488  0.7119  0.4205
18293TIP3   OH276293   5.417   0.391  14.236 -0.7880  0.2652  0.1429
18293TIP3    H176294   5.342   0.422  14.286 -0.9699 -0.4931  0.3582
18293TIP3    H276295   5.453   0.319  14.288  0.1811  0.7163  0.1109
18294TIP3   OH276296   1.766   1.479   0.141  0.3212  0.4088  0.4600
18294TIP3    H176297   1.821   1.476   0.219 -0.3843  1.2407  1.0171
18294TIP3    H276298   1.677   1.484   0.175 -0.0952 -0.6439 -0.4254
18295TIP3   OH276299   2.682   5.055  14.258 -0.1001  0.1225  0.1765
18295TIP3    H176300   2.704   5.054  14.351 -0.7800  1.7014  0.3987
18295TIP3    H276301   2.619   5.127  14.250  0.5358  0.5265 -1.6229
18296TIP3   OH276302   4.005   6.377   0.240  0.3621 -0.0176  0.0421
18296TIP3    H176303   4.055   6.296   0.237 -2.2661 -1.7430 -0.2211
18296TIP3    H276304   4.008   6.410   0.150  0.3113 -0.5649 -0.1609
18297TIP3   OH276305   1.686   3.488   5.854 -0.9859  0.1067  0.2367
18297TIP3    H176306   1.703   3.577   5.822  1.6846 -0.1875  0.5826
18297TIP3    H276307   1.599   3.492   5.893 -1.7601  2.0360 -1.5296
18298TIP3   OH276308   0.326   1.799   5.160 -0.4536 -0.2626  0.0305
18298TIP3    H176309   0.276   1.734   5.111  0.9369 -0.9376 -0.5260
18298TIP3    H276310   0.327   1.876   5.103 -2.2407  0.3625  0.7607
18299TIP3   OH276311   4.394   2.632   2.961  0.7547 -0.8420 -0.0009
18299TIP3    H176312   4.440   2.661   2.882  0.2701 -2.5790 -0.9652
18299TIP3    H276313   4.305   2.668   2.952  1.0947  0.1745  0.5012
18300TIP3   OH276314   0.798   0.316  16.748 -0.7033  0.1553  0.4692
18300TIP3    H176315   0.838   0.390  16.794  2.1584 -1.1773  0.3913
18300TIP3    H276316   0.849   0.240  16.777 -2.5494 -1.5791 -0.5834
18301TIP3   OH276317   1.164   0.632   0.626 -0.1461  0.3490 -0.6129
18301TIP3    H176318   1.228   0.626   0.556 -1.5522  0.1852 -1.9292
18301TIP3    H276319   1.101   0.563   0.608 -2.0921  2.0878 -0.8488
18302TIP3   OH276320   6.761   3.079   1.190 -0.1603  0.2831 -0.2640
18302TIP3    H176321   6.805   3.005   1.151  0.7581  1.0368 -0.6974
18302TIP3    H276322   6.682   3.091   1.137 -0.4544 -0.5412 -0.0190
18303TIP3   OH276323   6.420   6.335  15.998 -0.0755  0.0308 -0.2847
18303TIP3    H176324   6.374   6.391  16.061 -1.3023 -0.1416 -0.9993
18303TIP3    H276325   6.479   6.282  16.052 -1.0722 -0.0843  0.7349
18304TIP3   OH276326   5.809   3.577   2.617  0.0102  0.2491  0.1051
18304TIP3    H176327   5.806   3.630   2.537  1.1699  0.2225  0.0300
18304TIP3    H276328   5.749   3.621   2.677 -0.5376  0.5230 -0.6227
18305TIP3   OH276329   6.096   4.363   4.147  0.2170  0.0612 -0.0231
18305TIP3    H176330   6.094   4.279   4.100  1.3153 -0.4540  0.7873
18305TIP3    H276331   6.114   4.428   4.079  1.3947 -0.6236 -0.4098
18306TIP3   OH276332   5.662   4.272   1.777  0.1403 -0.0546  0.0945
18306TIP3    H176333   5.719   4.256   1.852  4.0124 -2.5174 -2.9678
18306TIP3    H276334   5.688   4.358   1.745 -1.1876  0.7905  1.1494
18307TIP3   OH276335   5.403   0.931  16.596 -0.5991  0.6421  0.2147
18307TIP3    H176336   5.410   1.013  16.646 -0.6582  0.4616  0.5220
18307TIP3    H276337   5.490   0.918  16.558 -1.0454  1.7722 -1.3118
18308TIP3   OH276338   2.546   0.784   0.162  0.4765  1.0469  0.0696
18308TIP3    H176339   2.494   0.736   0.098  0.9991  0.6231 -0.0464
18308TIP3    H276340   2.534   0.737   0.244 -0.1105  1.5299  0.2676
18309TIP3   OH276341   6.637   0.701   2.222 -0.0928 -0.0782 -0.0735
18309TIP3    H176342   6.709   0.649   2.258 -1.4758 -1.7695  0.4069
18309TIP3    H276343   6.679   0.774   2.177  1.8611 -0.3796  1.1672
18310TIP3   OH276344   4.583   1.208  15.742  0.2935  0.2207  0.0756
18310TIP3    H176345   4.496   1.210  15.782  0.4805  1.6753  0.4631
18310TIP3    H276346   4.570   1.161  15.659 -0.2419 -2.1834  1.4262
18311TIP3   OH276347   1.350   1.873   2.697 -0.9594  0.1085 -0.3461
18311TIP3    H176348   1.268   1.880   2.647 -0.7147 -0.9260 -0.9108
18311TIP3    H276349   1.407   1.820   2.642  0.0091  0.5950  0.1668
18312TIP3   OH276350   4.443   4.293  11.828  0.0441  0.1396  0.4227
18312TIP3    H176351   4.506   4.274  11.758 -0.0510  1.1173  0.0599
18312TIP3    H276352   4.377   4.225  11.819 -0.3927  0.7156 -0.9713
18313TIP3   OH276353   2.875   1.145  11.530  0.2939 -0.2237  0.6640
18313TIP3    H176354   2.839   1.060  11.557  0.1304 -0.6193 -0.7416
18313TIP3    H276355   2.874   1.142  11.434  1.2939  0.9493  0.6013
18314TIP3   OH276356   2.040   3.831  15.495 -0.4494 -0.9468 -0.0259
18314TIP3    H176357   2.006   3.742  15.501  1.4948 -1.6619  2.0263
18314TIP3    H276358   2.113   3.825  15.433 -0.1643 -0.8519  0.2949
18315TIP3   OH276359   1.063   5.060   0.409  0.0539 -0.1132  0.2959
18315TIP3    H176360   1.101   4.974   0.429  0.2120  0.1011  0.9313
18315TIP3    H276361   0.969   5.045   0.407  0.1376 -0.8768 -2.2995
18316TIP3   OH276362   6.113   0.774  14.306  0.0138 -0.2358 -0.1017
18316TIP3    H176363   6.157   0.794  14.388 -0.8973  0.0955  0.3257
18316TIP3    H276364   6.113   0.678  14.302 -1.1097 -0.3099  0.9718
18317TIP3   OH276365   3.706   5.957   1.078  0.2898  0.2673  0.2921
18317TIP3    H176366   3.630   5.903   1.095 -0.9216  1.9926  0.6146
18317TIP3    H276367   3.770   5.897   1.040 -0.9436 -1.3745  0.6915
18318TIP3   OH276368   3.632   0.135   1.891 -0.0911 -0.1848 -0.1304
18318TIP3    H176369   3.721   0.140   1.857  0.0780  0.7145  0.4154
18318TIP3    H276370   3.599   0.051   1.859  1.3560 -1.0926  0.6522
18319TIP3   OH276371   2.591   4.099  11.485 -0.2535  0.8045 -0.0221
18319TIP3    H176372   2.592   4.114  11.390 -0.7316  0.3549 -0.0989
18319TIP3    H276373   2.666   4.149  11.518 -0.0159  0.8670 -0.6507
18320TIP3   OH276374   0.821   6.692   5.047  0.0961  0.3000  0.2906
18320TIP3    H176375   0.864   6.661   4.967 -1.5216  2.7631 -1.7112
18320TIP3    H276376   0.739   6.642   5.051  0.9180 -1.0273  1.4435
18321TIP3   OH276377   3.018   6.429   3.583 -0.1667  0.2527  0.1151
18321TIP3    H176378   3.006   6.511   3.535  0.1367 -0.2910 -0.9281
18321TIP3    H276379   3.077   6.451   3.655  0.0060  0.9320 -0.2297
18322TIP3   OH276380   2.695   4.562  15.323 -0.3400  0.4783  0.4695
18322TIP3    H176381   2.670   4.652  15.303 -1.2555  0.4345  1.3481
18322TIP3    H276382   2.738   4.567  15.408  1.9153  0.4154 -0.5971
18323TIP3   OH276383   2.935   3.616   5.370  0.0889  0.3915 -0.2214
18323TIP3    H176384   3.019   3.595   5.329 -1.1085  0.7575 -3.0720
18323TIP3    H276385   2.943   3.709   5.393  1.2393 -0.1321  1.7139
18324TIP3   OH276386   4.549   3.125  11.216  0.9334 -0.1390  0.4226
18324TIP3    H176387   4.487   3.099  11.149  1.5827 -1.5204  0.3342
18324TIP3    H276388   4.535   3.219  11.227 -0.5588 -0.2730 -0.2053
18325TIP3   OH276389   0.253   2.302   1.886 -0.2342  0.4842 -0.9111
18325TIP3    H176390   0.188   2.288   1.955  0.0149  1.5554 -0.4318
18325TIP3    H276391   0.201   2.327   1.809 -0.4427  0.4440 -0.7839
18326TIP3   OH276392   6.230   3.086  17.105 -0.0990  0.7104 -0.1776
18326TIP3    H176393   6.273   3.040  17.033 -0.7635  0.1290 -0.2144
18326TIP3    H276394   6.273   3.171  17.108  0.5125  0.4293 -0.7153
18327TIP3   OH276395   6.754   5.647  16.918 -0.1523 -0.1830 -0.5488
18327TIP3    H176396   6.713   5.733  16.920  1.4700  0.6999 -2.1859
18327TIP3    H276397   6.779   5.634  16.826  1.4957 -1.4501  0.0252
18328TIP3   OH276398   4.585   1.584  10.724  0.3898 -0.2280  0.5235
18328TIP3    H176399   4.549   1.496  10.734 -0.3992  0.0703  0.3720
18328TIP3    H276400   4.520   1.641  10.765  1.1464  0.2472  1.0928
18329TIP3   OH276401   3.334   3.210  17.030 -0.4044  0.1170  0.0743
18329TIP3    H176402   3.413   3.173  16.991 -0.0193  0.2941  0.6716
18329TIP3    H276403   3.344   3.194  17.124 -0.5692  1.1049  0.2652
18330TIP3   OH276404   2.768   2.102   6.494  0.2104  0.4119 -0.2976
18330TIP3    H176405   2.735   2.190   6.511 -1.1070  0.2265 -1.6547
18330TIP3    H276406   2.824   2.113   6.417  2.4037  0.4982  1.2209
18331TIP3   OH276407   3.867   2.946   5.682  0.0985 -0.1326  0.2767
18331TIP3    H176408   3.813   3.005   5.734  0.0973 -1.0353  1.3353
18331TIP3    H276409   3.844   2.858   5.712 -0.0008 -0.7131 -1.3534
18332TIP3   OH276410   0.403   1.596   0.870  0.8088  0.0236 -0.4419
18332TIP3    H176411   0.446   1.516   0.841 -0.4651  0.1822 -3.1222
18332TIP3    H276412   0.309   1.579   0.856  0.0716  0.5322  2.9432
18333TIP3   OH276413   1.880   1.282   2.155  0.0376  0.3207  0.1569
18333TIP3    H176414   1.942   1.239   2.214  0.9551  2.8905  1.1993
18333TIP3    H276415   1.892   1.376   2.172 -0.8222  1.1004 -2.9903
18334TIP3   OH276416   2.459   4.965   2.891 -0.0973  0.2491  0.5715
18334TIP3    H176417   2.386   4.976   2.831  0.3276  0.0960  0.0171
18334TIP3    H276418   2.508   4.891   2.855  1.4225  1.5774 -0.2016
18335TIP3   OH276419   2.415   4.215   4.956  0.2204 -0.8750  0.3134
18335TIP3    H176420   2.364   4.173   4.887 -1.8348  2.1959 -0.2467
18335TIP3    H276421   2.436   4.302   4.921 -0.6009  0.6816  3.3048
18336TIP3   OH276422   1.510   6.715   0.849  0.3655 -1.1275  0.2459
18336TIP3    H176423   1.507   6.631   0.803  3.6377 -1.3375  0.1913
18336TIP3    H276424   1.603   6.734   0.859 -0.2208  0.9542  3.1654
18337TIP3   OH276425   0.375   3.434   0.396 -0.6341  0.3090 -0.4043
18337TIP3    H176426   0.365   3.435   0.301  0.8781 -1.0398 -0.6158
18337TIP3    H276427   0.396   3.525   0.418  0.5132  0.3537 -1.5580
18338TIP3   OH276428   4.420   2.011  17.003 -0.1059 -0.4461 -0.0294
18338TIP3    H176429   4.483   2.065  16.957 -0.6788 -0.7667 -1.2372
18338TIP3    H276430   4.372   1.965  16.934 -0.7195 -1.2644  0.8999
18339TIP3   OH276431   5.976   1.501  16.550 -0.1182  0.5549  0.7877
18339TIP3    H176432   6.037   1.561  16.508 -0.5161 -1.1392 -2.5856
18339TIP3    H276433   5.890   1.539  16.533 -0.3605 -0.7549 -1.2236
18340TIP3   OH276434   3.366   3.288  12.490  0.2314  0.4156  0.3291
18340TIP3    H176435   3.445   3.341  12.482 -0.2609  1.1266  0.0802
18340TIP3    H276436   3.398   3.202  12.516  1.0971  0.6516  0.0865
18341TIP3   OH276437   2.536   6.449   0.871  0.1536 -0.7911 -0.4368
18341TIP3    H176438   2.511   6.429   0.961 -0.0538 -1.2406 -0.5908
18341TIP3    H276439   2.464   6.504   0.839 -1.1679 -2.8632 -1.1797
18342TIP3   OH276440   1.961   2.952   4.069  0.9289  0.0374 -0.8422
18342TIP3    H176441   1.899   2.978   4.001 -0.2408 -1.2107 -0.3007
18342TIP3    H276442   1.908   2.941   4.148  2.2224  1.2012  0.2426
18343TIP3   OH276443   3.739   2.078   2.805 -0.3864 -0.3491 -0.0194
18343TIP3    H176444   3.756   2.128   2.725 -1.3048 -0.6314 -0.3955
18343TIP3    H276445   3.726   1.988   2.775  3.5526 -1.3925  0.8413
18344TIP3   OH276446   5.390   3.947   4.152  0.1284 -0.3502  0.2804
18344TIP3    H176447   5.388   4.037   4.184 -0.0667 -0.7392  1.3980
18344TIP3    H276448   5.306   3.910   4.178 -1.0948 -0.0408 -2.7614
18345TIP3   OH276449   0.720   0.599  16.210 -0.6411 -0.2566  0.2761
18345TIP3    H176450   0.716   0.691  16.237 -2.3684 -0.1374 -0.2303
18345TIP3    H276451   0.811   0.573  16.226 -0.5168  1.0488  1.9943
18346TIP3   OH276452   5.560   6.466  12.378  0.0469  0.5807 -0.2713
18346TIP3    H176453   5.511   6.395  12.418 -0.8912  1.8340  0.9087
18346TIP3    H276454   5.612   6.502  12.450  0.0194  1.4934 -0.6954
18347TIP3   OH276455   3.581   1.875  14.547  0.0601  0.3985  0.6419
18347TIP3    H176456   3.499   1.899  14.592  0.0830  1.8330 -0.0224
18347TIP3    H276457   3.644   1.863  14.618 -0.3003  1.0474  1.0895
18348TIP3   OH276458   0.497   5.381  12.635  0.1888 -0.3702 -0.4341
18348TIP3    H176459   0.582   5.424  12.633 -0.0816  0.3440  1.4185
18348TIP3    H276460   0.449   5.418  12.561  0.8463  0.6428 -0.3752
18349TIP3   OH276461   0.748   4.563  13.968 -0.8372 -0.1409 -0.3944
18349TIP3    H176462   0.661   4.524  13.959 -0.0644 -1.9057 -0.6409
18349TIP3    H276463   0.751   4.632  13.901 -1.2905 -1.5430 -1.9197
18350TIP3   OH276464   4.208   6.190   6.185  0.0483 -0.1258  0.6680
18350TIP3    H176465   4.130   6.244   6.190  0.1391  0.1612 -0.7842
18350TIP3    H276466   4.271   6.233   6.244  0.4387  1.9082 -1.1385
18351TIP3   OH276467   4.622   1.445  16.112 -0.4672  0.4770  0.3417
18351TIP3    H176468   4.599   1.354  16.093 -0.0331  0.5441 -0.5742
18351TIP3    H276469   4.714   1.442  16.137 -0.4525  0.6644  0.3071
18352TIP3   OH276470   3.426   1.956   5.142  0.6156 -0.1063 -0.3292
18352TIP3    H176471   3.395   2.042   5.169  0.0519 -0.0798 -1.0321
18352TIP3    H276472   3.347   1.905   5.129  0.9702 -1.1129  1.2193
18353TIP3   OH276473   3.714   2.588  13.123 -0.5970 -0.0887  0.1235
18353TIP3    H176474   3.654   2.661  13.129 -0.7536 -0.2951  1.3668
18353TIP3    H276475   3.658   2.510  13.126 -0.3491 -0.2657  0.2544
18354TIP3   OH276476   2.924   5.272   3.276  0.5502  0.1009  0.0538
18354TIP3    H176477   2.865   5.340   3.310 -0.9814 -0.2876 -1.6417
18354TIP3    H276478   2.999   5.321   3.242  0.5112  0.7500  0.8858
18355TIP3   OH276479   2.443   4.290   2.755 -0.1344  0.6807  0.4256
18355TIP3    H176480   2.526   4.330   2.782  0.2829 -1.1616  2.1014
18355TIP3    H276481   2.468   4.214   2.703 -0.8050  0.5750  0.2456
18356TIP3   OH276482   3.737   4.609   1.603  0.3137 -0.1792 -0.2015
18356TIP3    H176483   3.643   4.593   1.593  0.0885  0.4982  0.6269
18356TIP3    H276484   3.779   4.531   1.569 -0.5765 -0.7698  0.0173
18357TIP3   OH276485   1.413   1.142  14.845  0.4074 -0.1651  0.6604
18357TIP3    H176486   1.422   1.112  14.936 -2.8752 -1.4276  0.6966
18357TIP3    H276487   1.362   1.223  14.851  1.5788  0.6446  0.0033
18358TIP3   OH276488   5.603   3.540  11.465 -0.4704  0.2896  0.2182
18358TIP3    H176489   5.637   3.451  11.456 -1.4794 -0.0540 -0.4352
18358TIP3    H276490   5.580   3.566  11.376  0.1688  1.3644  0.3482
18359TIP3   OH276491   3.426   3.142   0.086 -0.2525 -0.2427  0.1120
18359TIP3    H176492   3.433   3.048   0.103  2.2008 -0.1072  0.3167
18359TIP3    H276493   3.368   3.176   0.154 -0.9234 -1.5612  0.2150
18360TIP3   OH276494   2.124   6.515   2.282  0.0284 -0.2528  0.1599
18360TIP3    H176495   2.149   6.466   2.203  0.4575 -2.0757  1.3598
18360TIP3    H276496   2.205   6.525   2.332 -0.1930  1.0939  0.2891
18361TIP3   OH276497   4.235   0.331   4.957 -0.6248  0.1663 -0.3389
18361TIP3    H176498   4.268   0.371   4.877 -0.6622 -0.3935 -0.6381
18361TIP3    H276499   4.310   0.284   4.994 -0.2802  1.3919  0.5947
18362TIP3   OH276500   5.636   2.963   1.174 -0.0121  0.0525  0.0752
18362TIP3    H176501   5.620   2.997   1.262 -0.4387  0.5532 -0.1957
18362TIP3    H276502   5.606   2.872   1.178  0.8120 -0.2021  0.6995
18363TIP3   OH276503   4.217   3.681  15.211 -0.5497 -0.3490  0.1709
18363TIP3    H176504   4.306   3.705  15.236 -0.0781 -0.9786 -0.8581
18363TIP3    H276505   4.181   3.638  15.288  0.4243 -1.0875  0.2234
18364TIP3   OH276506   3.811   1.580  15.576 -0.3996  0.4115  0.0656
18364TIP3    H176507   3.905   1.601  15.580 -0.1305 -0.6902 -0.0989
18364TIP3    H276508   3.803   1.522  15.500 -1.3177  0.9560 -0.2688
18365TIP3   OH276509   0.627   1.468  15.935 -0.4020  0.3704 -0.1334
18365TIP3    H176510   0.705   1.416  15.955 -1.4882 -1.6382 -0.7512
18365TIP3    H276511   0.632   1.482  15.840 -0.5174  0.6876 -0.0920
18366TIP3   OH276512   6.680   5.133  10.984  0.1532 -0.0713  0.0779
18366TIP3    H176513   6.628   5.136  11.064  0.3829 -0.2823  0.2355
18366TIP3    H276514   6.706   5.041  10.977  0.8672  0.1179  0.2247
18367TIP3   OH276515   6.507   0.505   4.546 -0.7211 -0.3467  0.4468
18367TIP3    H176516   6.497   0.481   4.638 -1.3717 -1.3469  0.1381
18367TIP3    H276517   6.513   0.421   4.500 -0.3556  0.1403 -0.4184
18368TIP3   OH276518   1.365   2.129  15.874 -0.6094  0.2138 -0.2481
18368TIP3    H176519   1.396   2.059  15.816 -1.6418 -1.4778  1.1462
18368TIP3    H276520   1.285   2.160  15.832 -0.6748 -0.1439 -0.3982
18369TIP3   OH276521   5.916   6.394   3.970 -0.9879  0.2133  0.7340
18369TIP3    H176522   5.938   6.303   3.947  1.0609  0.5583  1.1867
18369TIP3    H276523   5.920   6.396   4.065 -0.8510  0.8393  0.7149
18370TIP3   OH276524   1.463   3.679   4.420  0.3774 -0.4144  0.0434
18370TIP3    H176525   1.498   3.710   4.504  0.4831 -1.8323  0.5644
18370TIP3    H276526   1.432   3.758   4.376  1.2635  0.4880  0.9701
18371TIP3   OH276527   6.063   0.250  13.849  0.3727 -0.4285  0.4722
18371TIP3    H176528   6.000   0.197  13.899  1.1732 -1.1584  0.7270
18371TIP3    H276529   6.035   0.340  13.864  0.0456 -0.6868  1.4908
18372TIP3   OH276530   1.691   5.778  12.706 -0.3797 -0.3739  0.0878
18372TIP3    H176531   1.720   5.843  12.770 -0.8335 -0.0812 -0.0039
18372TIP3    H276532   1.740   5.799  12.627  0.5809 -1.0636  0.4815
18373TIP3   OH276533   1.048   2.681  12.775 -0.2468 -0.2313 -0.0821
18373TIP3    H176534   1.056   2.596  12.819  0.0320  0.0017  0.3268
18373TIP3    H276535   1.093   2.670  12.692  1.9495  0.2207  0.9852
18374TIP3   OH276536   4.057   0.085  16.868  0.2238  0.3629  0.1855
18374TIP3    H176537   3.996   0.150  16.902  1.0527  0.8300  0.8123
18374TIP3    H276538   4.061   0.018  16.936  0.3602  0.2949  0.1102
18375TIP3   OH276539   3.203   4.591   3.729  0.0294  0.7295 -0.0100
18375TIP3    H176540   3.140   4.659   3.752  0.3772  0.6208  1.3621
18375TIP3    H276541   3.247   4.570   3.811  0.7413 -0.3352 -0.6313
18376TIP3   OH276542   2.811   5.563  11.319  0.2606  0.3954 -0.3490
18376TIP3    H176543   2.735   5.528  11.273  1.0021 -0.2035 -1.1409
18376TIP3    H276544   2.862   5.608  11.252  0.5068  0.9990  0.2203
18377TIP3   OH276545   0.619   4.883   5.685  0.2400  0.0278  0.2005
18377TIP3    H176546   0.607   4.866   5.779  0.6373 -0.0078  0.2446
18377TIP3    H276547   0.627   4.978   5.679 -0.1295  0.0600  0.1600
18378TIP3   OH276548   0.642   1.003   5.040  0.2709 -0.0161  0.5126
18378TIP3    H176549   0.617   1.000   4.948  1.2649  1.9265  0.1056
18378TIP3    H276550   0.685   1.088   5.050 -0.0268 -0.0613  2.8370
18379TIP3   OH276551   0.659   5.416  16.073 -0.2273 -0.1474 -0.1858
18379TIP3    H176552   0.724   5.358  16.112 -0.8579  0.6223  2.1875
18379TIP3    H276553   0.575   5.373  16.093 -0.6425  1.0490  0.7358
18380TIP3   OH276554   1.143   1.721   1.816  0.4871 -0.1902  0.0593
18380TIP3    H176555   1.061   1.716   1.864  0.6688 -1.3565  0.2873
18380TIP3    H276556   1.189   1.796   1.853 -1.2871  1.7391 -1.4218
18381TIP3   OH276557   0.486   2.881   1.210  1.0904 -0.5462 -0.1922
18381TIP3    H176558   0.452   2.969   1.194  0.4475 -1.0011 -1.3782
18381TIP3    H276559   0.490   2.875   1.306  2.5440  1.2829 -0.0688
18382TIP3   OH276560   1.047   2.849   5.332 -0.4326 -0.6507  0.8768
18382TIP3    H176561   1.096   2.881   5.408  1.7539 -1.6115 -0.0219
18382TIP3    H276562   1.006   2.926   5.294  1.7876  0.5321  0.7568
18383TIP3   OH276563   2.179   2.793  13.800  0.8303  0.1300  0.3280
18383TIP3    H176564   2.259   2.767  13.754  0.7169 -0.9812  0.7313
18383TIP3    H276565   2.184   2.888  13.805  0.4459  0.4005 -2.6977
18384TIP3   OH276566   1.458   4.058  15.289  0.1647 -0.6403  0.1648
18384TIP3    H176567   1.500   4.124  15.234 -1.2317 -0.5108 -0.7935
18384TIP3    H276568   1.508   3.978  15.273  1.4153 -0.0198  0.7760
18385TIP3   OH276569   6.739   0.802   2.885 -0.2726  0.3882  0.3397
18385TIP3    H176570   6.725   0.855   2.964 -1.1963  0.9092 -0.1619
18385TIP3    H276571   6.701   0.717   2.906  1.1495 -0.0953  1.1230
18386TIP3   OH276572   0.646   5.890  15.835 -0.2165 -0.0308  0.5089
18386TIP3    H176573   0.605   5.805  15.820  2.0116 -0.7399 -2.4994
18386TIP3    H276574   0.707   5.874  15.907 -1.8916 -0.1064  1.9850
18387TIP3   OH276575   2.725   0.449   6.481 -0.4815 -0.1709 -0.3169
18387TIP3    H176576   2.713   0.518   6.416 -0.4167 -1.0248 -1.2746
18387TIP3    H276577   2.658   0.384   6.459 -0.0597 -0.7523  0.0840
18388TIP3   OH276578   5.634   0.919   0.145  0.5479 -0.0134  0.3690
18388TIP3    H176579   5.683   0.856   0.092 -0.8421 -0.4300 -0.4601
18388TIP3    H276580   5.573   0.960   0.084 -0.5755  0.0372  1.4860
18389TIP3   OH276581   2.538   5.451  14.947  0.0329  0.0743  0.1362
18389TIP3    H176582   2.481   5.385  14.987  1.0152 -1.2291 -0.5458
18389TIP3    H276583   2.524   5.529  15.000 -0.3252 -0.9926  1.6928
18390TIP3   OH276584   1.875   2.181  15.763 -0.1195 -0.0037  0.5849
18390TIP3    H176585   1.920   2.143  15.839 -0.3713 -0.9172  0.2904
18390TIP3    H276586   1.904   2.128  15.689 -0.8931  0.0320  0.2434
18391TIP3   OH276587   5.632   3.761  14.344 -0.3146 -0.2466 -0.5293
18391TIP3    H176588   5.685   3.747  14.266 -0.7020 -0.5419 -0.7444
18391TIP3    H276589   5.689   3.738  14.417 -0.3009 -1.0353 -0.7818
18392TIP3   OH276590   3.268   1.527   4.210 -0.0103  0.3337 -0.2787
18392TIP3    H176591   3.333   1.462   4.235 -0.3240  0.7179  1.7805
18392TIP3    H276592   3.291   1.553   4.121 -0.0306 -2.7378 -1.2858
18393TIP3   OH276593   3.144   1.322   2.387  0.1924  0.2341  0.4026
18393TIP3    H176594   3.089   1.351   2.315 -0.3004 -1.7823 -0.0700
18393TIP3    H276595   3.102   1.243   2.420  1.4444  0.0575  1.6729
18394TIP3   OH276596   6.549   5.534   4.814  0.6539  0.1258 -0.5352
18394TIP3    H176597   6.556   5.615   4.865  2.7830 -1.0110  1.1175
18394TIP3    H276598   6.459   5.504   4.827  0.2834  1.4288  0.0467
18395TIP3   OH276599   2.539   2.805  13.593  0.2999  0.0316 -0.0127
18395TIP3    H176600   2.570   2.851  13.671 -0.1221 -0.7983  0.6582
18395TIP3    H276601   2.457   2.848  13.571  1.0647  1.1534 -0.8225
18396TIP3   OH276602   2.715   0.583   2.697 -0.6481  0.5277 -0.1589
18396TIP3    H176603   2.630   0.586   2.741 -0.8739 -0.9056 -0.4447
18396TIP3    H276604   2.715   0.498   2.652  1.0828  0.3449  0.1391
18397TIP3   OH276605   0.184   2.965   2.377 -0.1054  0.7429 -0.3895
18397TIP3    H176606   0.189   2.882   2.331 -2.8978  0.3704 -0.1822
18397TIP3    H276607   0.257   2.962   2.439  0.3265 -1.1771 -0.9102
18398TIP3   OH276608   3.285   3.525   3.066 -0.3185  0.3008  0.2433
18398TIP3    H176609   3.213   3.483   3.115 -1.2002  1.9716  0.4585
18398TIP3    H276610   3.258   3.616   3.060  1.9745  1.0462  0.6293
18399TIP3   OH276611   0.784   0.779  12.643  0.7529  0.3375  0.1103
18399TIP3    H176612   0.774   0.732  12.561 -1.9582 -0.4428  0.7839
18399TIP3    H276613   0.710   0.750  12.697  2.2104  1.1005  2.7019
18400TIP3   OH276614   0.372   2.819   4.069 -0.1988  0.1177 -0.5177
18400TIP3    H176615   0.435   2.870   4.119 -0.0671  0.9711 -1.5127
18400TIP3    H276616   0.399   2.832   3.977 -1.3756 -0.0951 -0.9037
18401TIP3   OH276617   1.087   4.607   1.197 -0.1275  0.1089 -0.2436
18401TIP3    H176618   1.025   4.600   1.269 -1.4371  1.0577 -1.2239
18401TIP3    H276619   1.035   4.641   1.124  0.9033 -1.7091 -1.9369
18402TIP3   OH276620   2.636   0.217  11.165  0.0169  0.2695 -0.5927
18402TIP3    H176621   2.567   0.162  11.202  1.7537 -2.0958 -0.6489
18402TIP3    H276622   2.676   0.163  11.098  1.1124  2.0781 -1.4685
18403TIP3   OH276623   0.446   5.305   4.440  0.0071  0.3509  0.4032
18403TIP3    H176624   0.411   5.287   4.353 -0.3851  0.4532  0.5386
18403TIP3    H276625   0.401   5.385   4.468 -1.0327 -0.5351  1.3290
18404TIP3   OH276626   0.186   4.862   4.351  0.2203 -0.0099 -0.2193
18404TIP3    H176627   0.188   4.821   4.437 -0.1000  1.2901  0.4385
18404TIP3    H276628   0.260   4.922   4.351  0.8060 -0.6984 -1.2393
18405TIP3   OH276629   5.587   6.058  10.489 -0.9482  0.0591  0.3672
18405TIP3    H176630   5.626   6.065  10.576 -1.0669  0.3857  0.3961
18405TIP3    H276631   5.653   6.013  10.437 -0.7402  0.1525  0.5460
18406TIP3   OH276632   0.891   6.237  11.946  0.0505  0.3018  0.0092
18406TIP3    H176633   0.807   6.201  11.917  0.3360 -0.2463 -0.1344
18406TIP3    H276634   0.938   6.256  11.865  1.8556 -3.4998 -0.0540
18407TIP3   OH276635   6.166   6.014   2.242 -0.6598  0.1659  0.0194
18407TIP3    H176636   6.095   5.949   2.246 -0.3182 -0.1910  0.3888
18407TIP3    H276637   6.220   5.995   2.319 -0.7214  1.0841  0.2991
18408TIP3   OH276638   6.642   2.301   4.282  0.1365 -0.0557  0.2584
18408TIP3    H176639   6.642   2.241   4.356 -1.9927 -0.8628 -0.3111
18408TIP3    H276640   6.600   2.381   4.315  1.4135  0.5058  0.5568
18409TIP3   OH276641   2.093   5.206  14.171  0.6377  0.4132 -0.5547
18409TIP3    H176642   2.090   5.300  14.189  0.0375  0.4277 -0.7292
18409TIP3    H276643   2.004   5.184  14.144  0.8139 -0.1784 -0.6528
18410TIP3   OH276644   0.270   5.629  15.991  0.2804  0.1355 -0.0561
18410TIP3    H176645   0.189   5.618  15.941  0.9959 -1.3874 -0.9519
18410TIP3    H276646   0.279   5.549  16.042  0.9932  0.4815  0.3797
18411TIP3   OH276647   1.277   0.232  11.627 -0.0866  0.3942 -0.3439
18411TIP3    H176648   1.335   0.292  11.673 -0.0529 -0.7331  1.1958
18411TIP3    H276649   1.314   0.224  11.539  1.2500  0.8262  0.1561
18412TIP3   OH276650   5.009   3.759  16.386 -0.7730 -0.3298  0.1209
18412TIP3    H176651   4.914   3.751  16.385 -0.7443 -0.6638 -0.1645
18412TIP3    H276652   5.031   3.772  16.478 -1.1613  0.6503  0.0857
18413TIP3   OH276653   0.390   1.140  16.294  0.4552  0.0182  0.3924
18413TIP3    H176654   0.330   1.118  16.223  1.7124 -1.5188 -0.2582
18413TIP3    H276655   0.333   1.151  16.370 -0.9325  1.7454 -0.8032
18414TIP3   OH276656   4.563   6.377   2.185 -0.5430 -0.1194 -0.3435
18414TIP3    H176657   4.591   6.465   2.209  1.8219 -0.5443 -1.2590
18414TIP3    H276658   4.470   6.374   2.209 -0.0724  1.7219  2.1078
18415TIP3   OH276659   4.097   6.542   5.907  0.0766 -0.1562 -1.2437
18415TIP3    H176660   4.063   6.611   5.849  0.6140  1.9404  0.7843
18415TIP3    H276661   4.132   6.589   5.982 -0.5151 -2.7270  0.7919
18416TIP3   OH276662   3.692   4.790   4.247 -0.1848 -0.1810  0.4104
18416TIP3    H176663   3.701   4.697   4.226  3.1176  0.1476 -0.1142
18416TIP3    H276664   3.693   4.834   4.162 -0.7701  0.4271  0.7050
18417TIP3   OH276665   3.592   4.050   4.561 -0.2264  0.0153  0.0638
18417TIP3    H176666   3.577   3.956   4.558  0.7185 -0.1573  0.2975
18417TIP3    H276667   3.661   4.061   4.627 -0.5027  0.8925  0.2239
18418TIP3   OH276668   6.557   3.071  14.522  0.2690 -0.2358  0.1740
18418TIP3    H176669   6.621   3.010  14.485  1.0795  0.8983 -0.3496
18418TIP3    H276670   6.490   3.081  14.454 -0.1739 -0.9553  0.4861
18419TIP3   OH276671   2.661   5.133  15.669 -0.2696  0.1102  0.5377
18419TIP3    H176672   2.580   5.083  15.674 -2.0684  2.6121 -0.8892
18419TIP3    H276673   2.711   5.091  15.600 -1.5668 -0.0051 -0.3795
18420TIP3   OH276674   6.570   1.345  12.272  0.4909  0.1385 -1.1444
18420TIP3    H176675   6.601   1.430  12.302  1.0475 -0.0117 -1.2772
18420TIP3    H276676   6.516   1.364  12.196 -1.2344  0.5581  0.1365
18421TIP3   OH276677   2.343   1.877   6.397  0.2913  0.2239 -0.2258
18421TIP3    H176678   2.414   1.891   6.459  0.3592  0.3258 -0.3251
18421TIP3    H276679   2.303   1.963   6.386  0.8894  0.4113 -1.0589
18422TIP3   OH276680   2.863   6.495   0.170  0.2133  0.5248 -0.0347
18422TIP3    H176681   2.894   6.578   0.206  2.0832  0.8308 -2.1207
18422TIP3    H276682   2.943   6.447   0.149 -0.8175 -1.0714 -0.4888
18423TIP3   OH276683   4.862   5.313  10.955  0.3189  0.3946  0.0173
18423TIP3    H176684   4.882   5.347  10.868  0.1012  0.1625 -0.1261
18423TIP3    H276685   4.773   5.279  10.947  0.7894 -0.8820 -0.0573
18424TIP3   OH276686   5.457   2.206   0.863  0.2806 -0.2146 -0.2235
18424TIP3    H176687   5.438   2.267   0.792  1.6310 -0.7536 -1.1038
18424TIP3    H276688   5.402   2.130   0.845 -0.7138  0.3514  0.3497
18425TIP3   OH276689   4.997   5.361  14.430 -0.0287  0.3082  0.4244
18425TIP3    H176690   4.963   5.384  14.517 -1.2358  0.4718 -0.0679
18425TIP3    H276691   5.080   5.409  14.424 -1.4018  2.8690  0.3030
18426TIP3   OH276692   5.744   0.009  14.338 -0.8969 -0.5471  0.3003
18426TIP3    H176693   5.740   0.101  14.314  0.5697 -0.8365 -1.2158
18426TIP3    H276694   5.837  -0.010  14.347 -1.0096 -2.3850 -1.6838
18427TIP3   OH276695   2.114   6.105   4.970 -0.2095  0.2088 -0.2831
18427TIP3    H176696   2.167   6.044   5.021 -0.9748 -0.3505 -0.1276
18427TIP3    H276697   2.024   6.075   4.984 -0.5986  1.3420 -0.2457
18428TIP3   OH276698   2.413   0.595  16.616  0.1086  0.5034  0.4003
18428TIP3    H176699   2.443   0.592  16.526 -0.3754  1.2508  0.2041
18428TIP3    H276700   2.478   0.647  16.662  0.3201  0.1785  0.4719
18429TIP3   OH276701   5.465   0.412   5.573 -0.4307 -0.8694  0.5005
18429TIP3    H176702   5.510   0.468   5.510  0.6741 -1.2193  0.9518
18429TIP3    H276703   5.457   0.328   5.528 -2.1140 -0.3694 -0.1878
18430TIP3   OH276704   4.658   0.800  16.175  0.1952 -0.2360 -0.0991
18430TIP3    H176705   4.619   0.791  16.261  0.9803 -1.4476  0.1595
18430TIP3    H276706   4.590   0.841  16.122 -0.4906  0.0244  0.9523
18431TIP3   OH276707   5.224   2.912  16.276 -0.4381 -0.4255 -0.0535
18431TIP3    H176708   5.162   2.964  16.225  0.3176  0.5208 -0.0328
18431TIP3    H276709   5.236   2.832  16.224 -0.9606 -0.2130 -0.5124
18432TIP3   OH276710   1.724   2.931  13.750  0.3118 -0.7976 -0.3287
18432TIP3    H176711   1.793   2.996  13.753 -0.6632  0.3310 -1.4227
18432TIP3    H276712   1.659   2.963  13.813 -0.4479 -0.3566 -1.3153
18433TIP3   OH276713   4.028   0.298   4.182  0.1446  0.3987 -0.4761
18433TIP3    H176714   4.105   0.337   4.222  0.2344 -0.2823  0.0388
18433TIP3    H276715   4.044   0.203   4.187 -0.1324  0.2836 -1.5454
18434TIP3   OH276716   2.641   6.673  14.986 -0.2158  0.0041 -0.4055
18434TIP3    H176717   2.687   6.644  15.064  1.1659  0.2916 -1.0960
18434TIP3    H276718   2.559   6.624  14.987  1.0772 -2.2791 -0.3679
18435TIP3   OH276719   4.921   1.872   2.117 -0.5847  0.0444  0.3581
18435TIP3    H176720   4.855   1.810   2.147 -2.6266  2.0984  0.3807
18435TIP3    H276721   4.993   1.864   2.180 -0.8723 -2.0978  0.4649
18436TIP3   OH276722   4.791   1.247  13.520  0.3090  0.0563 -0.4132
18436TIP3    H176723   4.775   1.262  13.427  0.4972 -0.5169 -0.5421
18436TIP3    H276724   4.727   1.302  13.565 -1.6566 -1.7361 -0.8948
18437TIP3   OH276725   3.073   1.578   5.518 -0.2789  0.0482 -0.0902
18437TIP3    H176726   3.094   1.629   5.596 -0.5134  1.8750 -1.1779
18437TIP3    H276727   2.977   1.568   5.521 -0.3283  0.4279 -0.3110
18438TIP3   OH276728   4.428   6.106  11.013 -0.1513  0.1931  0.3161
18438TIP3    H176729   4.389   6.110  11.101  1.3408  0.7791  0.9764
18438TIP3    H276730   4.363   6.058  10.961 -0.0411 -2.3081  2.2841
18439TIP3   OH276731   6.236   5.727   3.235  0.0676  0.0665  0.1999
18439TIP3    H176732   6.225   5.642   3.194  1.3418 -0.4506  0.8549
18439TIP3    H276733   6.168   5.731   3.302 -0.7572  0.0837 -0.6306
18440TIP3   OH276734   2.586   2.352   1.595  0.1479  0.1541 -0.2549
18440TIP3    H176735   2.673   2.380   1.624  0.6340 -0.3380 -1.2067
18440TIP3    H276736   2.556   2.424   1.539  0.4670 -0.2302 -0.9233
18441TIP3   OH276737   5.826   1.818  16.896 -0.0403 -0.0280 -0.2585
18441TIP3    H176738   5.917   1.846  16.886 -0.8356  2.1660 -2.2808
18441TIP3    H276739   5.791   1.818  16.807 -2.0631 -0.6944  0.4807
18442TIP3   OH276740   1.980   6.760   2.599 -0.3549 -0.7000 -0.3253
18442TIP3    H176741   1.989   6.664   2.593  1.3164 -0.6170  0.2761
18442TIP3    H276742   2.012   6.781   2.687 -0.5039  0.4442 -0.5314
18443TIP3   OH276743   2.641   2.657   4.004 -0.4575  0.0219  0.8307
18443TIP3    H176744   2.636   2.634   4.096 -0.1695  1.0098  1.1026
18443TIP3    H276745   2.681   2.581   3.962 -0.7031 -0.4786  1.5006
18444TIP3   OH276746   5.381   5.601  12.537  0.1080  0.5775  0.1220
18444TIP3    H176747   5.462   5.574  12.494 -0.1180  1.2586 -0.7618
18444TIP3    H276748   5.394   5.694  12.555 -0.1509  0.4984  0.7408
18445TIP3   OH276749   4.318   2.932  10.743 -0.0229 -0.3376  0.3728
18445TIP3    H176750   4.374   2.885  10.680  0.8812  0.8365  0.2716
18445TIP3    H276751   4.378   2.989  10.790 -1.2187  1.4766 -0.2070
18446TIP3   OH276752   3.975   3.443  11.606 -0.4236  0.2404  0.0064
18446TIP3    H176753   4.047   3.395  11.647 -0.4964  0.6429  0.6103
18446TIP3    H276754   3.954   3.391  11.529  1.0069  0.5065 -0.6047
18447TIP3   OH276755   5.762   4.986  11.470  0.0831  0.4953 -0.2198
18447TIP3    H176756   5.783   4.921  11.403  1.9906  0.4247  0.3823
18447TIP3    H276757   5.781   5.070  11.428 -0.4936  0.5698 -0.3472
18448TIP3   OH276758   4.887   4.455  15.015 -0.0674  0.0039  0.1549
18448TIP3    H176759   4.860   4.366  14.995 -0.1848  0.3919 -1.5583
18448TIP3    H276760   4.976   4.446  15.051 -1.0152 -0.9731  2.4272
18449TIP3   OH276761   2.755   0.991  12.769 -0.5382  0.1750 -0.1383
18449TIP3    H176762   2.722   0.905  12.743 -0.0169 -0.1150  0.1333
18449TIP3    H276763   2.831   1.006  12.714 -0.4767  0.3500 -0.0082
18450TIP3   OH276764   1.688   0.860  15.900  0.3639  0.1237 -0.0362
18450TIP3    H176765   1.666   0.876  15.808  0.5751  1.7224  0.1618
18450TIP3    H276766   1.751   0.929  15.922  0.7666 -0.6025  1.1453
18451TIP3   OH276767   3.437   5.518  14.064 -0.2924  0.1226 -0.2552
18451TIP3    H176768   3.520   5.508  14.019 -0.6954 -1.0131 -0.7903
18451TIP3    H276769   3.433   5.443  14.124 -1.2523 -0.2944 -0.8053
18452TIP3   OH276770   4.720   4.086  16.651 -0.1629  0.1763  0.3020
18452TIP3    H176771   4.702   3.993  16.639  0.5161 -0.0503  0.9853
18452TIP3    H276772   4.721   4.099  16.745 -0.5783  0.9527  0.2092
18453TIP3   OH276773   2.577   1.849   3.667  0.1840 -0.1355  0.3657
18453TIP3    H176774   2.621   1.765   3.652  0.2525  0.0982 -0.8423
18453TIP3    H276775   2.624   1.911   3.612 -1.2149  0.2469 -0.4661
18454TIP3   OH276776   1.917   3.924   4.836  0.3752 -0.2257  0.6290
18454TIP3    H176777   1.962   3.933   4.920 -0.9555  1.8865  1.1893
18454TIP3    H276778   1.944   4.001   4.785 -1.6092  0.4924  0.5560
18455TIP3   OH276779   4.778   4.498   1.756  0.4614 -0.2480  0.4885
18455TIP3    H176780   4.764   4.470   1.847 -3.2136  0.0362  0.1714
18455TIP3    H276781   4.760   4.592   1.757  1.4216 -0.0424 -0.3799
18456TIP3   OH276782   5.985   4.687   3.021  0.1208  0.3291  0.1394
18456TIP3    H176783   5.945   4.758   3.069 -2.4296  0.4800 -2.0033
18456TIP3    H276784   5.955   4.607   3.066 -0.9691  0.5094 -0.2376
18457TIP3   OH276785   4.274   4.587  12.556  0.3432  0.0537  0.5852
18457TIP3    H176786   4.200   4.614  12.503  1.4270  1.2980 -0.3558
18457TIP3    H276787   4.261   4.493  12.569  0.0396 -0.3024 -1.9265
18458TIP3   OH276788   1.095   1.392   2.357  0.1904  0.1456 -0.5820
18458TIP3    H176789   1.098   1.316   2.300 -1.0534  1.0002 -1.8685
18458TIP3    H276790   1.124   1.360   2.442 -2.6404 -2.3817 -0.4113
18459TIP3   OH276791   0.407   6.501   5.131  0.4753 -0.3914 -0.6988
18459TIP3    H176792   0.383   6.410   5.147 -0.7883  0.3917  2.6822
18459TIP3    H276793   0.325   6.545   5.111  0.9305  0.2101 -1.3157
18460TIP3   OH276794   6.562   6.431  12.137 -0.1486  0.3753  0.0219
18460TIP3    H176795   6.492   6.462  12.081  0.1823  1.3735  0.1412
18460TIP3    H276796   6.631   6.498  12.130  0.2055  0.1380  1.0111
18461TIP3   OH276797   3.660   2.921  15.373 -0.2239 -0.0541 -0.4613
18461TIP3    H176798   3.635   2.966  15.454 -1.2739 -0.8842 -0.3029
18461TIP3    H276799   3.646   2.986  15.304 -2.6341 -0.3680 -0.3449
18462TIP3   OH276800   4.716   0.863  14.954 -0.3510  0.2847  0.5975
18462TIP3    H176801   4.652   0.794  14.936  1.2409 -1.0065 -0.2982
18462TIP3    H276802   4.710   0.876  15.049  1.4479 -3.3607  1.3833
18463TIP3   OH276803   2.934   0.790  16.341 -0.4049 -0.9720 -0.1211
18463TIP3    H176804   2.976   0.808  16.257  2.1526  0.4632  1.3191
18463TIP3    H276805   2.858   0.736  16.319 -0.5582  0.3540 -3.4237
18464TIP3   OH276806   2.686   6.055  10.824 -0.2952 -0.0475  0.2542
18464TIP3    H176807   2.621   6.113  10.865 -1.7421 -0.5266 -1.2299
18464TIP3    H276808   2.758   6.113  10.800 -0.7886  0.7719  0.6970
18465TIP3   OH276809   4.275   2.101  11.596  0.4052  0.6045 -0.0165
18465TIP3    H176810   4.189   2.141  11.581  0.0809  0.4271  1.2576
18465TIP3    H276811   4.300   2.131  11.684  1.5909  0.5456 -0.3191
18466TIP3   OH276812   6.184   0.488   6.058  0.4311  0.6736  0.1171
18466TIP3    H176813   6.156   0.563   6.109 -2.1124 -0.1007  0.0153
18466TIP3    H276814   6.180   0.414   6.119 -0.1350  0.1480 -0.5426
18467TIP3   OH276815   1.388   0.271  15.438  0.4821 -0.6447 -0.1274
18467TIP3    H176816   1.477   0.290  15.408  0.0497  0.9290 -0.5059
18467TIP3    H276817   1.350   0.219  15.367  0.3459  0.7226 -1.0801
18468TIP3   OH276818   3.479   1.418   3.041 -0.0752 -0.5212  0.4249
18468TIP3    H176819   3.451   1.497   3.088  1.0022  1.4787 -2.0472
18468TIP3    H276820   3.547   1.380   3.096  1.6766  2.1395  0.2622
18469TIP3   OH276821   1.379   6.114  10.992 -0.2918  0.0872  0.1612
18469TIP3    H176822   1.325   6.191  10.973 -0.6807 -0.3741 -0.6428
18469TIP3    H276823   1.453   6.149  11.042 -1.7604  0.6065  2.0959
18470TIP3   OH276824   5.847   4.117  15.376  0.6461 -0.2783 -0.7017
18470TIP3    H176825   5.883   4.066  15.449 -2.1961 -1.5856 -0.0810
18470TIP3    H276826   5.923   4.160  15.337  2.5100 -0.9804  1.8963
18471TIP3   OH276827   1.981   2.813  16.978 -0.1645  0.4592  0.3560
18471TIP3    H176828   2.000   2.814  16.885  0.5916 -1.7687  0.4354
18471TIP3    H276829   1.885   2.813  16.983 -0.2232 -0.4072 -0.4761
18472TIP3   OH276830   0.581   4.015  16.915 -0.0949 -0.0681  0.0185
18472TIP3    H176831   0.539   4.076  16.854  1.0273 -0.7830 -1.5642
18472TIP3    H276832   0.517   4.001  16.984 -0.2866  3.0931  0.6039
18473TIP3   OH276833   6.486   1.000  13.020 -0.5996 -0.2292  0.1346
18473TIP3    H176834   6.411   0.942  13.008 -0.1380 -0.8226  0.0729
18473TIP3    H276835   6.551   0.968  12.958  0.4974 -1.0716  1.6573
18474TIP3   OH276836   3.182   4.050  13.845 -0.0727  0.1166 -0.0122
18474TIP3    H176837   3.135   3.973  13.876  1.6520 -0.5863  1.0471
18474TIP3    H276838   3.218   4.090  13.925  1.9975 -0.0152 -0.8226
18475TIP3   OH276839   1.711   5.499   2.682 -0.1841 -0.3618 -0.5244
18475TIP3    H176840   1.801   5.470   2.697 -0.6410 -1.1194  0.8824
18475TIP3    H276841   1.718   5.594   2.677  0.2758 -0.0077  3.4976
18476TIP3   OH276842   2.170   1.323  12.071  0.7805 -0.2694 -0.2054
18476TIP3    H176843   2.170   1.418  12.061  0.7325 -0.1252  0.9903
18476TIP3    H276844   2.240   1.306  12.135  1.4697 -1.1292 -1.1659
18477TIP3   OH276845   3.417   2.768   4.006 -0.1993  0.3743 -0.0823
18477TIP3    H176846   3.328   2.794   4.031 -0.8624 -2.4883  0.9485
18477TIP3    H276847   3.408   2.736   3.916 -0.6105 -1.3884  0.5512
18478TIP3   OH276848   6.487   2.349  13.578 -0.5262  0.3522  0.7092
18478TIP3    H176849   6.482   2.254  13.591  1.8032  0.1961  0.9132
18478TIP3    H276850   6.465   2.361  13.485  4.1226 -1.1214 -0.9059
18479TIP3   OH276851   3.440   4.669   1.760  0.5931 -0.4551  0.5388
18479TIP3    H176852   3.395   4.748   1.731 -1.7033 -0.7705  2.9360
18479TIP3    H276853   3.444   4.613   1.682 -0.7661  0.6688 -0.3715
18480TIP3   OH276854   5.277   4.975   4.082  0.0705 -1.1296 -0.5969
18480TIP3    H176855   5.279   4.932   3.996  2.5329 -0.2548 -1.0558
18480TIP3    H276856   5.321   4.913   4.141  2.3150  0.0034 -0.9576
18481TIP3   OH276857   2.665   2.262  12.622  0.4759  0.5747 -0.5185
18481TIP3    H176858   2.685   2.353  12.645 -0.4874  0.8866 -0.8527
18481TIP3    H276859   2.749   2.217  12.626  0.6213  0.8944  2.2140
18482TIP3   OH276860   3.452   3.577  11.978  0.0914 -0.0843  0.0894
18482TIP3    H176861   3.492   3.575  12.065  0.3293 -3.1023 -0.0067
18482TIP3    H276862   3.364   3.542  11.992  0.5147 -1.6444 -1.0303
18483TIP3   OH276863   6.500   6.223  15.101  0.3033  0.5443  0.0617
18483TIP3    H176864   6.565   6.292  15.102  1.0316 -0.0498 -1.6317
18483TIP3    H276865   6.545   6.146  15.136  0.2433  0.3607 -0.2552
18484TIP3   OH276866   1.178   0.623  14.465  0.2052 -0.0298  0.2087
18484TIP3    H176867   1.228   0.566  14.407  0.2968 -2.0768  2.1733
18484TIP3    H276868   1.087   0.615  14.435  0.2165 -1.2495  0.4783
18485TIP3   OH276869   1.547   0.802   0.455  0.6666 -0.1336 -0.7088
18485TIP3    H176870   1.601   0.780   0.379  0.2781  0.4741 -1.1665
18485TIP3    H276871   1.474   0.740   0.451  0.7192 -0.1926 -0.7526
18486TIP3   OH276872   2.535   6.235  11.396 -0.7480 -0.6177  0.5224
18486TIP3    H176873   2.454   6.250  11.347 -0.0095  0.0713 -0.5290
18486TIP3    H276874   2.576   6.160  11.352  0.3215  0.5210 -0.4954
18487TIP3   OH276875   2.726   4.061  16.406  0.1928 -0.7541 -0.3271
18487TIP3    H176876   2.768   3.989  16.455  0.2687 -0.3714  0.1865
18487TIP3    H276877   2.666   4.101  16.469  1.3828  0.6955 -0.0469
18488TIP3   OH276878   2.107   0.992  12.190 -0.4805  0.4064 -0.3869
18488TIP3    H176879   2.030   0.996  12.246  0.5632  2.3949  1.0475
18488TIP3    H276880   2.073   1.004  12.101 -2.1040 -2.2210 -0.2285
18489TIP3   OH276881   5.680   4.980  14.687  0.0237  0.1185 -0.3083
18489TIP3    H176882   5.669   4.905  14.628 -2.2564  0.2566 -0.1470
18489TIP3    H276883   5.774   4.994  14.691  0.4080 -1.8038 -1.5173
18490TIP3   OH276884   6.592   6.596   6.177 -0.1140 -0.4312  0.5887
18490TIP3    H176885   6.567   6.626   6.089  2.5523 -0.4232 -0.2552
18490TIP3    H276886   6.579   6.502   6.175 -0.7607 -0.3441  0.4566
18491TIP3   OH276887   0.308   2.337   4.043 -0.2807 -0.0167 -0.0557
18491TIP3    H176888   0.236   2.320   4.104  1.2543  0.9924  2.1859
18491TIP3    H276889   0.336   2.426   4.063  2.9031 -1.0452  0.6559
18492TIP3   OH276890   4.353   4.533  10.924  0.4509  0.2585  0.6564
18492TIP3    H176891   4.396   4.615  10.944 -0.8684  1.4341 -1.0296
18492TIP3    H276892   4.402   4.497  10.850 -0.2815  0.6772 -0.0555
18493TIP3   OH276893   4.010   0.878  15.208  0.1464  0.3205  0.5123
18493TIP3    H176894   4.089   0.825  15.209  0.5520  0.8609 -0.6700
18493TIP3    H276895   4.038   0.965  15.239  0.1823  0.7007 -0.5437
18494TIP3   OH276896   0.519   0.438   4.866 -0.6623  0.1674  0.0542
18494TIP3    H176897   0.447   0.394   4.910  1.1295 -2.3079  0.7453
18494TIP3    H276898   0.597   0.412   4.916  0.7952  2.1513 -1.0503
18495TIP3   OH276899   5.495   2.751  15.632  0.0623 -0.1890 -0.3928
18495TIP3    H176900   5.478   2.751  15.726  0.1241 -0.9619 -0.3770
18495TIP3    H276901   5.432   2.689  15.596  0.5676 -0.5019 -0.7564
18496TIP3   OH276902   0.989   5.835  15.279  0.6865 -0.7618 -0.4531
18496TIP3    H176903   1.001   5.791  15.196  0.7519 -2.6673  0.5100
18496TIP3    H276904   1.032   5.920  15.268 -1.0801 -0.0747 -3.0070
18497TIP3   OH276905   6.562   5.701   0.310  0.3241  1.0312  0.0162
18497TIP3    H176906   6.559   5.612   0.345  1.0464  1.0493  0.1347
18497TIP3    H276907   6.578   5.689   0.216  2.4507  1.0555  0.3285
18498TIP3   OH276908   0.822   4.202   0.610 -0.4643 -0.0553  0.6649
18498TIP3    H176909   0.736   4.243   0.597 -0.0912  0.6461  0.3356
18498TIP3    H276910   0.841   4.158   0.527 -0.0644  0.6527  0.3678
18499TIP3   OH276911   3.630   4.215  15.355 -0.1536 -0.5887  0.1490
18499TIP3    H176912   3.668   4.204  15.268  0.5063  1.9880  0.0188
18499TIP3    H276913   3.702   4.251  15.408 -1.1186 -0.1322  1.1847
18500TIP3   OH276914   1.548   1.475   4.655  0.1606 -0.2968  0.0217
18500TIP3    H176915   1.625   1.419   4.661 -0.2728 -0.8172  1.0134
18500TIP3    H276916   1.561   1.526   4.576  1.7839  0.0151  0.4543
18501TIP3   OH276917   5.807   0.439   0.126 -0.3999  0.3596 -0.0811
18501TIP3    H176918   5.759   0.384   0.188 -1.3141  0.8425 -0.3484
18501TIP3    H276919   5.756   0.520   0.120  0.4256  0.8679 -0.4070
18502TIP3   OH276920   1.294   1.499  16.317  0.3685  0.3404 -0.0375
18502TIP3    H176921   1.384   1.505  16.283  0.4487 -0.5419 -0.0049
18502TIP3    H276922   1.290   1.566  16.385  0.4301  1.6258 -1.2594
18503TIP3   OH276923   2.165   6.494   4.766 -0.2626  0.3023 -0.0662
18503TIP3    H176924   2.208   6.410   4.749  0.1947  0.9337 -2.3025
18503TIP3    H276925   2.143   6.528   4.680 -1.2446  2.0936  0.8306
18504TIP3   OH276926   1.363   2.233  17.139  0.1121  0.5583 -0.6830
18504TIP3    H176927   1.407   2.150  17.158  0.3654  0.4525 -1.6500
18504TIP3    H276928   1.410   2.298  17.191  0.3443  0.1988 -0.4393
18505TIP3   OH276929   3.533   0.275  14.008  0.0585  0.1045  0.2953
18505TIP3    H176930   3.566   0.290  13.919  0.0093  0.0157  0.2617
18505TIP3    H276931   3.442   0.249  13.996  0.6283 -2.1048  0.1903
18506TIP3   OH276932   3.685   1.653   1.873 -0.5596 -0.1656  0.0915
18506TIP3    H176933   3.767   1.626   1.915 -1.0963  1.0519  2.0768
18506TIP3    H276934   3.633   1.573   1.869 -0.1096 -0.5114  0.9240
18507TIP3   OH276935   0.542   4.223  14.660 -0.2812  0.3635 -0.3303
18507TIP3    H176936   0.570   4.145  14.612 -0.6250  0.1697 -0.2127
18507TIP3    H276937   0.595   4.293  14.623  0.0614  0.0684 -0.4076
18508TIP3   OH276938   3.840   3.221   5.054  0.4899 -0.1315  0.0733
18508TIP3    H176939   3.748   3.198   5.046  0.0337  1.8762 -1.0034
18508TIP3    H276940   3.859   3.212   5.148 -0.1415 -2.6745  0.0415
18509TIP3   OH276941   4.754   1.574   2.753  0.3143  0.2075 -0.0193
18509TIP3    H176942   4.669   1.537   2.731  1.2327 -1.2174 -1.3664
18509TIP3    H276943   4.753   1.662   2.715 -0.6997  0.3765  0.3776
18510TIP3   OH276944   4.189   2.520  17.128 -0.1529  0.3081 -0.3169
18510TIP3    H176945   4.191   2.438  17.178  0.3988  0.1474 -0.5888
18510TIP3    H276946   4.256   2.575  17.169 -0.3960  0.5561 -0.2492
18511TIP3   OH276947   5.729   6.022   0.557 -0.0579  0.3628  0.1957
18511TIP3    H176948   5.762   5.937   0.585  1.1028  0.5984 -0.4034
18511TIP3    H276949   5.713   6.012   0.464 -0.1947  0.7220  0.1788
18512TIP3   OH276950   0.255   0.675   5.492  0.0216  0.5654 -0.3801
18512TIP3    H176951   0.248   0.659   5.586  0.5686 -0.1105 -0.4512
18512TIP3    H276952   0.279   0.767   5.485  1.2558  0.2956  0.1897
18513TIP3   OH276953   6.242   2.314   0.261 -0.1954  0.3842  0.0609
18513TIP3    H176954   6.182   2.304   0.335  1.1653  0.3802  1.1853
18513TIP3    H276955   6.206   2.387   0.211 -0.8403  0.7334  1.0042
18514TIP3   OH276956   2.612   4.457   5.161 -0.1168 -0.7281 -0.0675
18514TIP3    H176957   2.601   4.547   5.191  0.1541 -0.9844  0.8599
18514TIP3    H276958   2.591   4.404   5.238 -0.1261 -1.4486 -0.5569
18515TIP3   OH276959   5.682   1.390   0.117  0.0908  0.0639  0.5725
18515TIP3    H176960   5.740   1.435   0.055  1.1934  0.4708  1.8419
18515TIP3    H276961   5.734   1.316   0.149 -1.8798 -2.6441 -1.9093
18516TIP3   OH276962   3.233   0.519  14.037  0.0697 -0.3183  0.3985
18516TIP3    H176963   3.242   0.588  14.103  1.8368  0.7200 -0.8406
18516TIP3    H276964   3.279   0.553  13.960 -2.5157 -1.1476 -1.6637
18517TIP3   OH276965   5.013   0.915   4.507 -0.4339 -0.1178  0.2686
18517TIP3    H176966   5.052   0.875   4.585  1.5683  0.4442 -0.3752
18517TIP3    H276967   4.940   0.967   4.540  0.1378 -0.2002  1.7212
18518TIP3   OH276968   2.464   0.816  12.823  0.3918  0.0649  0.4625
18518TIP3    H176969   2.438   0.751  12.758  1.0698  2.0143 -1.9124
18518TIP3    H276970   2.531   0.771  12.875  2.0323 -0.7624 -2.1284
18519TIP3   OH276971   1.199   3.658  13.168  0.1210  0.4557  0.0069
18519TIP3    H176972   1.240   3.674  13.253  0.4584  1.6644 -0.3529
18519TIP3    H276973   1.106   3.675  13.183 -0.1826 -1.5596  0.6486
18520TIP3   OH276974   1.002   1.263  12.835 -0.4440  0.0909  0.4188
18520TIP3    H176975   1.014   1.229  12.746  0.3956  0.1738  0.4910
18520TIP3    H276976   1.064   1.336  12.841 -0.7616  0.3158  0.9485
18521TIP3   OH276977   0.799   1.266   2.861 -0.2216 -0.6710  0.3451
18521TIP3    H176978   0.772   1.198   2.798  0.9195 -0.7992 -0.0349
18521TIP3    H276979   0.745   1.250   2.938 -0.4407 -1.5976  0.0150
18522TIP3   OH276980   5.986   6.309   0.005 -0.7541 -0.3034  0.6941
18522TIP3    H176981   5.918   6.376  -0.004 -0.7173 -0.0934  1.8488
18522TIP3    H276982   5.990   6.291   0.099  1.8002  0.7386  0.8483
18523TIP3   OH276983   0.409   1.757  10.534  0.4267  0.2670 -0.2557
18523TIP3    H176984   0.320   1.741  10.501  1.5679 -0.7210 -3.1845
18523TIP3    H276985   0.442   1.669  10.556  0.5865  0.6723  1.2385
18524TIP3   OH276986   0.400   2.603   3.819 -0.1876  0.4229  0.8544
18524TIP3    H176987   0.469   2.636   3.876  1.1812 -0.5882 -0.1617
18524TIP3    H276988   0.395   2.668   3.748 -0.3891  0.5668  0.9985
18525TIP3   OH276989   1.524   0.252   3.877 -0.1007 -0.0051 -0.3792
18525TIP3    H176990   1.605   0.220   3.837  0.6197 -0.6566  1.4783
18525TIP3    H276991   1.530   0.224   3.968 -2.7253 -0.6271 -0.3067
18526TIP3   OH276992   5.895   4.513  12.330  0.0730 -0.3838  0.2478
18526TIP3    H176993   5.971   4.474  12.288  0.0316  1.0904 -1.3378
18526TIP3    H276994   5.929   4.592  12.372 -0.4551 -0.1059  0.1638
18527TIP3   OH276995   1.319   4.902   0.760 -0.4677  0.1373 -0.6914
18527TIP3    H176996   1.284   4.873   0.844 -2.6979 -1.3772 -2.0336
18527TIP3    H276997   1.413   4.888   0.767 -0.7580 -1.2294  1.1117
18528TIP3   OH276998   5.829   3.513  17.003  0.5652 -0.2015 -0.0240
18528TIP3    H176999   5.757   3.474  16.953  0.3495  0.5570 -0.3220
18528TIP3    H277000   5.795   3.598  17.032  1.7179  0.6840 -1.1500
18529TIP3   OH277001   4.379   6.314  14.794  0.3855 -0.7277 -0.3735
18529TIP3    H177002   4.305   6.285  14.849  0.1114 -0.2742 -0.5003
18529TIP3    H277003   4.365   6.269  14.711  0.3279 -0.7497 -0.3521
18530TIP3   OH277004   1.579   6.232  12.159 -0.7408 -0.3584 -0.2234
18530TIP3    H177005   1.616   6.313  12.125 -1.1068 -1.1214 -2.6558
18530TIP3    H277006   1.506   6.260  12.214  0.2332  0.9845  0.4353
18531TIP3   OH277007   3.210   0.512  14.596  0.1251  0.2420  0.1631
18531TIP3    H177008   3.198   0.421  14.624 -0.5382 -0.1517 -1.3310
18531TIP3    H277009   3.305   0.522  14.589  0.2293 -0.1408  0.9428
18532TIP3   OH277010   4.110   0.881  16.845 -0.2886  0.3935  0.3570
18532TIP3    H177011   4.039   0.843  16.794  0.5585 -0.1998 -0.4030
18532TIP3    H277012   4.068   0.909  16.927 -1.3370 -0.2172  0.0519
18533TIP3   OH277013   3.698   2.412   1.095  0.2621  0.3549  0.2950
18533TIP3    H177014   3.771   2.447   1.044  2.0087 -1.2373  1.5242
18533TIP3    H277015   3.714   2.444   1.184 -1.5708  1.4234  0.2761
18534TIP3   OH277016   5.105   4.428  16.793  0.0936  0.0215 -0.5715
18534TIP3    H177017   5.150   4.480  16.859  0.1279  3.5235 -3.0765
18534TIP3    H277018   5.016   4.418  16.827  0.1690  1.5264  0.1347
18535TIP3   OH277019   5.884   6.673  11.976 -0.1063 -0.4279 -0.3224
18535TIP3    H177020   5.970   6.672  11.935 -0.6373  0.0150 -1.4750
18535TIP3    H277021   5.859   6.581  11.982  0.3080 -0.5385 -0.2797
18536TIP3   OH277022   1.523   5.004   0.232 -0.3569  0.0115  0.5628
18536TIP3    H177023   1.512   4.921   0.186 -2.7777  0.6549 -0.1936
18536TIP3    H277024   1.487   4.988   0.320  2.7069 -0.7352  1.8046
18537TIP3   OH277025   4.661   3.475  12.116 -0.3533  0.1139  0.3868
18537TIP3    H177026   4.692   3.560  12.148  1.1600 -0.1708 -0.2237
18537TIP3    H277027   4.736   3.439  12.068 -1.2122 -1.2478  0.0179
18538TIP3   OH277028   6.165   1.625   2.232 -0.0289 -0.1407  0.7726
18538TIP3    H177029   6.192   1.536   2.208  0.3377  0.3560 -0.7941
18538TIP3    H277030   6.247   1.673   2.242 -0.2015  0.7336 -1.4121
18539TIP3   OH277031   0.083   0.821   5.875 -0.8509  0.1310  0.0648
18539TIP3    H177032   0.037   0.904   5.880 -2.6073 -0.8198  0.7343
18539TIP3    H277033   0.126   0.811   5.960 -0.4749  0.4391 -0.0891
18540TIP3   OH277034   4.879   3.410  14.327  0.0966  0.4057 -0.0875
18540TIP3    H177035   4.813   3.390  14.393  0.9828 -1.4171  0.3179
18540TIP3    H277036   4.928   3.485  14.362 -0.6105  0.6261  0.4323
18541TIP3   OH277037   5.491   3.412  15.866  0.3690  0.2916 -0.0939
18541TIP3    H177038   5.526   3.388  15.780 -0.2694 -0.5938 -0.1176
18541TIP3    H277039   5.532   3.496  15.886  0.4326  0.5635 -1.3154
18542TIP3   OH277040   5.972   6.132   2.437  0.0889 -0.0010 -0.4788
18542TIP3    H177041   5.990   6.092   2.352  1.4842  2.0293 -1.2252
18542TIP3    H277042   5.917   6.207   2.417 -0.1135  0.1199  0.5020
18543TIP3   OH277043   0.023   0.798   1.946  0.6564  0.4199  0.0238
18543TIP3    H177044   0.043   0.710   1.914  0.8690  0.5434 -0.1879
18543TIP3    H277045   0.079   0.855   1.894  1.6365  0.5545  1.1909
18544TIP3   OH277046   1.808   2.346  12.733  0.2329  0.5411  0.1292
18544TIP3    H177047   1.798   2.254  12.757  0.1002  0.7281  0.8197
18544TIP3    H277048   1.734   2.364  12.675  1.3019 -0.2729 -1.6002
18545TIP3   OH277049   1.846   3.418   4.615 -0.0093 -0.7835  0.1750
18545TIP3    H177050   1.833   3.343   4.556  0.7672 -0.2622 -0.6693
18545TIP3    H277051   1.848   3.379   4.702 -1.0876 -1.5781 -0.1335
18546TIP3   OH277052   5.565   2.891  14.584 -0.3494 -0.4044 -0.1769
18546TIP3    H177053   5.614   2.818  14.546  0.1660 -0.0874 -0.1327
18546TIP3    H277054   5.631   2.958  14.601 -1.1235  0.9999 -2.3485
18547TIP3   OH277055   5.504   1.205   0.037  0.2777  0.0143  0.0533
18547TIP3    H177056   5.430   1.261   0.013  0.1228  1.0288  2.5250
18547TIP3    H277057   5.574   1.267   0.061  1.6234 -0.9236 -1.2999
18548TIP3   OH277058   0.381   1.522  16.198 -0.0711 -0.1222  0.3412
18548TIP3    H177059   0.470   1.553  16.213  0.1372 -0.4570 -0.1559
18548TIP3    H277060   0.385   1.479  16.112 -0.9676  0.8180 -0.1908
18549TIP3   OH277061   3.800   3.740  14.144  0.6787  0.1056  0.0906
18549TIP3    H177062   3.761   3.827  14.142  0.0382 -0.1912 -1.4085
18549TIP3    H277063   3.882   3.750  14.096  1.6323  0.3132  1.6789
18550TIP3   OH277064   4.640   3.345   1.088 -0.5598 -0.4580 -0.8015
18550TIP3    H177065   4.689   3.405   1.032 -2.5420  0.5035 -1.6089
18550TIP3    H277066   4.704   3.278   1.112  0.5927 -0.5387 -3.6197
18551TIP3   OH277067   4.193   5.326  14.268 -0.4317  0.4206 -0.5612
18551TIP3    H177068   4.282   5.292  14.269 -0.8614 -0.7371  0.3424
18551TIP3    H277069   4.139   5.254  14.299 -1.8047  0.8151 -1.8862
18552TIP3   OH277070   0.193   6.735  17.040 -0.0762 -0.0283  0.5267
18552TIP3    H177071   0.117   6.767  16.992 -0.4804 -1.6624  0.0144
18552TIP3    H277072   0.167   6.649  17.074  1.6383 -0.8088  0.0274
18553TIP3   OH277073   2.446   5.692  16.285  0.2350  0.2466 -0.0625
18553TIP3    H177074   2.411   5.626  16.345  1.1250  1.1433  1.5017
18553TIP3    H277075   2.460   5.645  16.203  0.9092 -1.5356  1.0196
18554TIP3   OH277076   5.927   0.851   5.423  0.1531 -0.5377 -0.6271
18554TIP3    H177077   5.938   0.836   5.329  2.0409 -2.7793 -0.1533
18554TIP3    H277078   6.017   0.850   5.458 -0.4926  0.3847  1.2019
18555TIP3   OH277079   1.563   1.198   0.762  0.1294 -0.3830  0.5140
18555TIP3    H177080   1.501   1.127   0.782  0.9198 -1.8786 -1.9263
18555TIP3    H277081   1.612   1.166   0.687  1.3836  2.2981  0.0910
18556TIP3   OH277082   5.049   4.642  10.560  0.1643 -0.0959 -0.1193
18556TIP3    H177083   5.047   4.728  10.517 -0.5108 -0.1832 -0.2751
18556TIP3    H277084   5.015   4.581  10.494  0.2249 -0.4153  0.1412
18557TIP3   OH277085   5.582   1.782   5.880  0.3943 -0.2083  0.1585
18557TIP3    H177086   5.549   1.830   5.804 -1.5358 -0.1109  0.9938
18557TIP3    H277087   5.575   1.690   5.854 -0.3785 -0.1804  0.2366
18558TIP3   OH277088   6.174   2.948   5.743 -0.3997 -0.3740  0.1071
18558TIP3    H177089   6.096   2.950   5.687  0.4065  0.9569 -1.0075
18558TIP3    H277090   6.221   2.869   5.716 -0.5309 -0.2852 -0.3895
18559TIP3   OH277091   5.688   3.903  11.841  0.2531  0.4929  0.4134
18559TIP3    H177092   5.678   3.978  11.782 -2.4115  1.9148  2.4261
18559TIP3    H277093   5.677   3.826  11.785 -0.0370  1.7062 -1.2613
18560TIP3   OH277094   3.161   4.631  13.467 -0.1762 -0.1904 -0.5160
18560TIP3    H177095   3.207   4.641  13.384 -0.4235 -0.2787 -0.6657
18560TIP3    H277096   3.131   4.540  13.467  1.2448 -0.6868  0.4094
18561TIP3   OH277097   6.578   4.402   4.032 -0.3584 -0.1339 -0.6896
18561TIP3    H177098   6.499   4.451   4.057 -1.5604 -2.3870  0.2070
18561TIP3    H277099   6.645   4.469   4.022 -1.6758  1.6301  1.3564
18562TIP3   OH277100   4.583   0.276   3.873  0.0398  0.6104 -0.1289
18562TIP3    H177101   4.580   0.357   3.823  0.7778  0.2972 -0.6886
18562TIP3    H277102   4.587   0.305   3.964 -0.6399  1.1891 -0.2709
18563TIP3   OH277103   3.425   3.896  13.609 -0.5299  0.1286 -0.1365
18563TIP3    H177104   3.479   3.925  13.682 -1.2516  0.9619  0.0819
18563TIP3    H277105   3.385   3.815  13.640  1.4966 -1.1912 -0.7539
18564TIP3   OH277106   2.682   4.892  16.214  0.0555 -0.4080 -0.6213
18564TIP3    H177107   2.607   4.832  16.212 -0.1967 -0.0937 -0.5963
18564TIP3    H277108   2.675   4.936  16.299  0.9187 -1.2060 -0.1182
18565TIP3   OH277109   1.473   6.602   0.463  0.1330  0.2250 -0.0505
18565TIP3    H177110   1.467   6.557   0.548  0.2646  1.6605  0.7403
18565TIP3    H277111   1.563   6.633   0.459 -0.1068  0.8881 -0.3455
18566TIP3   OH277112   6.181   4.224  10.768  0.2068 -0.2635 -0.7113
18566TIP3    H177113   6.093   4.261  10.774  0.0175 -0.9170  1.4639
18566TIP3    H277114   6.239   4.294  10.796  0.1559 -0.4797 -0.0321
18567TIP3   OH277115   4.015   3.857   0.718  0.6411  0.0697  0.4472
18567TIP3    H177116   3.931   3.832   0.757  1.6671 -0.7168  2.2883
18567TIP3    H277117   4.039   3.938   0.764 -0.1552  1.6341 -1.7302
18568TIP3   OH277118   2.970   5.497  17.180  0.1600  0.3494 -0.6970
18568TIP3    H177119   2.989   5.581  17.223  0.2997 -0.1205  0.1834
18568TIP3    H277120   3.054   5.452  17.177 -0.1826 -0.3769  0.2166
18569TIP3   OH277121   5.509   2.434   0.096 -0.0684 -0.3644  0.1445
18569TIP3    H177122   5.586   2.479   0.061 -1.2027 -0.8434 -3.3633
18569TIP3    H277123   5.535   2.341   0.098 -0.3083 -0.4451 -0.3651
18570TIP3   OH277124   4.560   3.218  11.860  0.0523 -0.1799 -0.3412
18570TIP3    H177125   4.614   3.177  11.792 -1.2184 -2.8950  0.1505
18570TIP3    H277126   4.482   3.162  11.866 -2.2954  2.8491 -0.1356
18571TIP3   OH277127   0.248   0.993   2.545  0.0556 -0.2785  0.6282
18571TIP3    H177128   0.330   1.038   2.566  0.9209 -1.2881 -0.4190
18571TIP3    H277129   0.229   0.941   2.623 -1.5996  2.6348  2.3539
18572TIP3   OH277130   4.237   0.417  11.330 -0.0499  0.2196  0.0245
18572TIP3    H177131   4.221   0.420  11.235 -0.1732  3.8221  0.0527
18572TIP3    H277132   4.332   0.430  11.338  0.1309 -1.1693  0.4261
18573TIP3   OH277133   1.246   6.435   2.330  0.3627  0.1396 -0.2299
18573TIP3    H177134   1.254   6.530   2.336 -1.1807  0.1705  2.7571
18573TIP3    H277135   1.238   6.405   2.420 -1.7610 -2.5674 -1.1614
18574TIP3   OH277136   5.099   5.886   0.979 -0.3432 -0.1158  0.5174
18574TIP3    H177137   5.095   5.831   1.058 -3.3773  0.0946  0.6321
18574TIP3    H277138   5.032   5.850   0.922 -0.2950  1.6225 -0.6914
18575TIP3   OH277139   0.523   1.621  13.150 -0.7385 -0.5535  0.2353
18575TIP3    H177140   0.616   1.613  13.172 -0.5403  0.1172 -0.3328
18575TIP3    H277141   0.477   1.598  13.231 -0.0816 -0.8974  0.5188
18576TIP3   OH277142   5.232   4.876   5.006 -0.0855 -0.1748  0.0873
18576TIP3    H177143   5.271   4.961   5.025  0.0192 -0.0261 -0.7916
18576TIP3    H277144   5.195   4.848   5.090  2.8654 -0.8366  1.3143
18577TIP3   OH277145   3.484   6.396   4.918  0.4296 -0.6221  0.0062
18577TIP3    H177146   3.417   6.431   4.859  1.3156  0.6538 -0.2986
18577TIP3    H277147   3.567   6.430   4.882  1.0675 -0.5357  1.4820
18578TIP3   OH277148   3.082   2.408  16.267  0.0074 -0.1296  0.2669
18578TIP3    H177149   3.167   2.452  16.269 -0.3573  0.7126 -1.2340
18578TIP3    H277150   3.048   2.416  16.357  1.4610 -0.4072  0.8585
18579TIP3   OH277151   5.563   4.326  12.252  0.4688  0.6561 -0.2673
18579TIP3    H177152   5.631   4.304  12.188 -0.1811 -1.6394 -0.2604
18579TIP3    H277153   5.484   4.340  12.199  0.7197  2.5749 -0.2126
18580TIP3   OH277154   5.914   0.061   0.445  0.0610  0.2625  0.2932
18580TIP3    H177155   5.937   0.147   0.482  0.6351  0.4350 -0.4439
18580TIP3    H277156   5.992   0.008   0.459  0.1662  0.2340 -0.3642
18581TIP3   OH277157   4.878   0.179  15.722  0.3130 -0.5058 -0.3537
18581TIP3    H177158   4.972   0.171  15.707 -0.0586 -0.3980 -3.3954
18581TIP3    H277159   4.847   0.234  15.650 -2.0595 -0.3135  0.7171
18582TIP3   OH277160   0.313   1.004  10.842 -0.3577 -0.2278 -0.1931
18582TIP3    H177161   0.297   0.993  10.936  2.3478  0.1579  0.3964
18582TIP3    H277162   0.277   0.924  10.802  0.5978 -1.5581  1.4726
18583TIP3   OH277163   0.551   3.390   4.754 -0.6358  0.0176 -0.2475
18583TIP3    H177164   0.613   3.367   4.685  1.2780  0.6391  1.1833
18583TIP3    H277165   0.466   3.394   4.709  0.2483 -1.2777 -2.1979
18584TIP3   OH277166   6.030   4.016  10.658 -0.1619  0.0768 -0.2803
18584TIP3    H177167   6.108   4.067  10.683  0.5112  0.5658 -3.0146
18584TIP3    H277168   5.956   4.069  10.689  0.5266 -0.2584  2.1337
18585TIP3   OH277169   1.974   3.396  16.730 -1.0098  0.1899 -0.1871
18585TIP3    H177170   1.943   3.308  16.711  0.1003 -0.3769  0.5428
18585TIP3    H277171   1.974   3.402  16.825  3.8316 -0.9634  0.1629
18586TIP3   OH277172   3.080   0.081  16.782  0.1168 -0.1797  0.2668
18586TIP3    H177173   2.994   0.054  16.750  0.6144 -0.6317 -0.7373
18586TIP3    H277174   3.116   0.134  16.711  0.1112  1.1885  1.2586
18587TIP3   OH277175   1.534   1.246   1.783  0.1559  0.4181  0.0772
18587TIP3    H177176   1.529   1.180   1.713 -2.7482  0.2056  0.3395
18587TIP3    H277177   1.610   1.299   1.761 -0.8613  0.6562 -3.5873
18588TIP3   OH277178   0.957   0.607   4.934  0.1721  0.0116 -0.2277
18588TIP3    H177179   0.950   0.697   4.965  0.4642 -0.2465  0.6191
18588TIP3    H277180   0.875   0.566   4.961  0.9582 -0.5617  1.4290
18589TIP3   OH277181   1.269   0.367  13.227  0.5489  0.4768 -0.1050
18589TIP3    H177182   1.239   0.452  13.195  0.0067  0.1484 -0.4786
18589TIP3    H277183   1.350   0.351  13.179  2.2407  2.0698  2.0069
18590TIP3   OH277184   0.649   0.055  16.843  0.8918  0.6558  0.2075
18590TIP3    H177185   0.646  -0.041  16.846  0.0623  0.6377 -0.6859
18590TIP3    H277186   0.740   0.075  16.818  0.6754  0.0234 -1.1976
18591TIP3   OH277187   5.304   0.271   1.080  0.1112  0.3596  0.4773
18591TIP3    H177188   5.391   0.302   1.105  0.8202 -0.1285 -1.2317
18591TIP3    H277189   5.315   0.177   1.065 -0.7104  0.2895  0.2685
18592TIP3   OH277190   3.145   4.846  15.083  0.5698  0.5801  0.3697
18592TIP3    H177191   3.127   4.867  15.174 -1.0768  0.2103  0.1563
18592TIP3    H277192   3.162   4.931  15.042 -1.5646  1.0937  0.4429
18593TIP3   OH277193   2.458   0.667   0.433  0.2364 -0.5874  0.0006
18593TIP3    H177194   2.381   0.655   0.378 -0.2217  0.7123  0.3088
18593TIP3    H277195   2.438   0.619   0.513 -1.7286  2.2563  1.3919
18594TIP3   OH277196   0.678   2.347  15.253  0.3135 -0.1844  0.1963
18594TIP3    H177197   0.670   2.427  15.304  0.9559  0.2388 -0.3386
18594TIP3    H277198   0.675   2.376  15.162 -0.7291 -0.9139 -0.0224
18595TIP3   OH277199   3.298   0.647  12.508  0.1109  0.4363  0.4881
18595TIP3    H177200   3.219   0.679  12.464  0.7785  0.0101 -1.1050
18595TIP3    H277201   3.325   0.571  12.456  2.8992  1.9586 -0.5308
18596TIP3   OH277202   4.051   0.829   5.031 -0.0894  0.2485  0.2018
18596TIP3    H177203   4.114   0.806   5.099  1.0633 -1.9882 -1.4629
18596TIP3    H277204   4.044   0.749   4.978 -0.5705  1.9706 -2.5384
18597TIP3   OH277205   6.048   3.219   0.064  0.6697  0.3563  0.1051
18597TIP3    H177206   6.072   3.137   0.021 -0.5042 -0.8327  1.6278
18597TIP3    H277207   6.117   3.233   0.130  0.3358  0.0433  0.5263
18598TIP3   OH277208   3.037   2.355  13.467  0.3713 -0.3581 -0.4011
18598TIP3    H177209   2.957   2.385  13.424 -0.1501 -2.8949 -1.3429
18598TIP3    H277210   3.010   2.279  13.519  2.2422 -1.6986 -1.2697
18599TIP3   OH277211   6.248   1.821  13.470  0.1734 -0.0544 -0.4620
18599TIP3    H177212   6.237   1.819  13.565  0.2220 -2.4886 -0.4364
18599TIP3    H277213   6.194   1.894  13.440 -0.0271  0.5952  1.4056
18600TIP3   OH277214   5.018   4.627  13.220  0.3987 -0.3268  0.0974
18600TIP3    H177215   5.061   4.543  13.203  1.5626  0.3267 -0.3598
18600TIP3    H277216   5.087   4.692  13.207 -0.6791  0.7681 -0.4246
18601TIP3   OH277217   0.448   5.883   5.262 -0.0498 -0.3787  0.0095
18601TIP3    H177218   0.388   5.932   5.319 -0.9056 -1.5782  0.1970
18601TIP3    H277219   0.420   5.905   5.173  1.2726  1.4809 -0.0104
18602TIP3   OH277220   3.312   4.240   4.010  0.0154  0.2784 -0.2434
18602TIP3    H177221   3.337   4.164   3.957 -0.1298 -1.4032  1.9645
18602TIP3    H277222   3.216   4.243   4.003 -0.1434 -0.8562  1.0078
18603TIP3   OH277223   2.714   1.760   2.226  0.3892  1.4136 -1.1932
18603TIP3    H177224   2.655   1.722   2.161  0.7439 -2.1892  0.3748
18603TIP3    H277225   2.656   1.796   2.292  0.0443  3.6845 -2.6245
18604TIP3   OH277226   5.661   2.646   3.056 -0.7176  0.9357  0.0674
18604TIP3    H177227   5.730   2.712   3.046  1.2340 -0.6263  2.0720
18604TIP3    H277228   5.620   2.667   3.140  2.1251 -2.0588  2.4500
18605TIP3   OH277229   4.882   6.085   3.920  0.4628  0.4097 -0.5101
18605TIP3    H177230   4.844   6.173   3.927  1.4321  0.7931  0.0990
18605TIP3    H277231   4.835   6.034   3.985 -0.3369  0.3769 -1.0953
18606TIP3   OH277232   0.722   3.853   2.729 -0.1851 -0.4314  0.8482
18606TIP3    H177233   0.629   3.831   2.726  0.0654 -1.6116  1.1042
18606TIP3    H277234   0.748   3.860   2.637 -0.4331 -0.5542  0.7675
18607TIP3   OH277235   2.442   6.286   0.290 -0.3304 -0.5955 -0.1349
18607TIP3    H177236   2.445   6.214   0.353 -0.8919 -1.5781 -1.1967
18607TIP3    H277237   2.365   6.337   0.315 -1.3215 -1.7259 -0.7718
18608TIP3   OH277238   5.958   6.272   1.884  0.2961 -0.5260 -0.1479
18608TIP3    H177239   6.049   6.292   1.862  0.1153 -0.4648 -0.8525
18608TIP3    H277240   5.912   6.355   1.873  0.4321 -0.1510  1.7992
18609TIP3   OH277241   2.446   5.679  15.035 -0.3927  0.6947 -0.3214
18609TIP3    H177242   2.415   5.660  15.124 -0.3175  1.2656 -0.1689
18609TIP3    H277243   2.369   5.715  14.990 -0.7047 -0.5326 -0.7973
18610TIP3   OH277244   1.322   3.688  11.360  0.3372  0.3512 -0.1904
18610TIP3    H177245   1.289   3.695  11.270 -0.8158 -0.4774  0.1468
18610TIP3    H277246   1.257   3.635  11.405  1.6306 -0.4731  0.7777
18611TIP3   OH277247   3.119   1.279  11.273 -0.3891 -0.5146  0.0448
18611TIP3    H177248   3.032   1.249  11.299 -1.0520 -0.7510 -2.1770
18611TIP3    H277249   3.159   1.202  11.234  1.0214 -0.5143  1.4107
18612TIP3   OH277250   0.047   5.519   2.623 -0.4484 -0.0806 -0.1473
18612TIP3    H177251  -0.043   5.508   2.590 -0.6598 -0.1684  0.4472
18612TIP3    H277252   0.071   5.608   2.594 -1.5144  0.7827  1.4637
18613TIP3   OH277253   0.023   1.766   5.849  0.7047  0.4043  0.3583
18613TIP3    H177254   0.086   1.694   5.842  0.9569  0.6521  0.0500
18613TIP3    H277255  -0.023   1.749   5.931 -1.7535 -2.1337 -1.3756
18614TIP3   OH277256   4.582   0.919   4.746 -0.3105  0.0174  0.2773
18614TIP3    H177257   4.558   0.868   4.668  0.7901  0.2555 -0.2321
18614TIP3    H277258   4.658   0.873   4.782  0.1644  0.7910  0.2981
18615TIP3   OH277259   4.428   0.086  10.551  0.5547  0.3342 -0.2970
18615TIP3    H177260   4.344   0.052  10.521  0.5393 -0.6381  0.8179
18615TIP3    H277261   4.493   0.037  10.499  0.4617  0.8830 -0.9527
18616TIP3   OH277262   5.321   4.732   1.900  0.1179  0.4859 -0.0826
18616TIP3    H177263   5.361   4.775   1.975 -0.6791  0.1324  0.5560
18616TIP3    H277264   5.229   4.760   1.902  0.2671  1.1732 -1.4342
18617TIP3   OH277265   2.144   2.393   5.740  0.1156  0.4236 -0.1454
18617TIP3    H177266   2.140   2.474   5.790  0.1054 -1.8977  4.0529
18617TIP3    H277267   2.236   2.370   5.738 -0.1591 -1.0451  1.7310
18618TIP3   OH277268   2.437   2.330   5.611 -0.6699  0.5002 -0.7045
18618TIP3    H177269   2.491   2.252   5.601 -1.9683 -0.7334  1.3184
18618TIP3    H277270   2.500   2.402   5.619  0.6312 -0.6609 -0.1492
18619TIP3   OH277271   0.381   2.995  12.130  0.2813  0.6580  0.5874
18619TIP3    H177272   0.417   3.007  12.218  0.3602  0.8988  0.5236
18619TIP3    H277273   0.366   2.901  12.123 -1.8769  0.8406  1.7009
18620TIP3   OH277274   0.323   1.267   0.602 -0.0876  0.2781  0.6899
18620TIP3    H177275   0.310   1.193   0.543  1.8874  0.5082 -0.1446
18620TIP3    H277276   0.285   1.240   0.685  0.5387 -1.6764  0.3912
18621TIP3   OH277277   0.256   3.474  12.079  0.3118 -0.1178  0.0372
18621TIP3    H177278   0.284   3.497  11.990 -0.0360  0.9483  0.1968
18621TIP3    H277279   0.334   3.482  12.133  0.7523 -1.6665 -0.2994
18622TIP3   OH277280   3.690   5.965  17.041 -0.2508  0.0791  0.0983
18622TIP3    H177281   3.667   5.965  16.948  1.9431 -0.8284 -0.5071
18622TIP3    H277282   3.631   5.901  17.081 -1.0184  0.2785 -0.6854
18623TIP3   OH277283   5.913   3.880   2.664 -0.1484 -0.4929  0.5384
18623TIP3    H177284   5.953   3.862   2.749 -0.5419  0.3879  0.9260
18623TIP3    H277285   5.823   3.905   2.685 -0.3731 -0.6752 -0.1750
18624TIP3   OH277286   1.358   4.298  13.707 -0.4001  0.3036  0.2211
18624TIP3    H177287   1.325   4.257  13.628  1.3073  0.5505 -0.6654
18624TIP3    H277288   1.350   4.392  13.692  0.8741  0.3799 -0.1312
18625TIP3   OH277289   2.054   5.787  14.227 -0.2118  0.2202  0.2247
18625TIP3    H177290   1.998   5.820  14.297 -2.1619 -0.6952 -0.8309
18625TIP3    H277291   2.017   5.701  14.204  0.1345  0.6290 -2.1411
18626TIP3   OH277292   6.781   3.713  12.369 -0.4531  0.6344 -0.6282
18626TIP3    H177293   6.825   3.755  12.443 -2.3890 -0.1978  1.0822
18626TIP3    H277294   6.688   3.720  12.389 -1.0005 -0.5332 -2.5086
18627TIP3   OH277295   3.459   5.593   6.303 -0.6412 -0.2830  0.7590
18627TIP3    H177296   3.533   5.625   6.354 -0.1988  0.2281 -0.1698
18627TIP3    H277297   3.493   5.516   6.257 -0.2697  0.6656 -0.6383
18628TIP3   OH277298   0.503   1.965   6.002 -0.2595  0.5185 -0.1827
18628TIP3    H177299   0.449   1.887   5.992 -1.8733  1.8033 -2.7622
18628TIP3    H277300   0.513   1.976   6.097 -0.2349 -2.5600  0.2611
18629TIP3   OH277301   6.538   4.383   5.201  1.1349  0.7535 -0.2582
18629TIP3    H177302   6.535   4.287   5.196  0.4619  0.6966  0.9110
18629TIP3    H277303   6.566   4.401   5.290 -0.6572  1.6358  0.1679
18630TIP3   OH277304   1.781   4.325  13.383 -0.3248  0.2245  0.1006
18630TIP3    H177305   1.750   4.366  13.302  0.6572  0.1782 -0.3149
18630TIP3    H277306   1.784   4.396  13.446 -1.7298  0.1341  0.3011
18631TIP3   OH277307   5.254   6.084  16.018  0.0053 -1.0293 -0.2554
18631TIP3    H177308   5.307   6.159  16.046 -1.9208  0.1098  0.5512
18631TIP3    H277309   5.300   6.049  15.942  1.2263  0.6945 -0.3639
18632TIP3   OH277310   5.754   0.187   3.630 -0.0207 -0.2452  0.3095
18632TIP3    H177311   5.797   0.267   3.662  0.8364  0.4525 -2.3230
18632TIP3    H277312   5.663   0.195   3.658  0.8793 -0.4955  3.7892
18633TIP3   OH277313   5.642   1.295   4.506 -0.3131 -0.4355  0.1040
18633TIP3    H177314   5.706   1.235   4.544 -1.4307 -1.8748 -0.1935
18633TIP3    H277315   5.562   1.243   4.498 -1.2598  1.0312 -0.4166
18634TIP3   OH277316   1.120   3.419   3.911 -0.4539  0.7261  0.2699
18634TIP3    H177317   1.148   3.463   3.991  0.9828  2.7860 -1.2558
18634TIP3    H277318   1.189   3.354   3.894 -1.5308 -0.8038  1.4237
18635TIP3   OH277319   2.793   0.785   3.170 -0.4345  0.2934 -0.4651
18635TIP3    H177320   2.840   0.866   3.188  1.2438 -0.5929 -0.6988
18635TIP3    H277321   2.803   0.732   3.249 -1.6665  0.3493 -0.2459
18636TIP3   OH277322   4.870   6.704  12.156  0.4641 -0.3404 -0.6210
18636TIP3    H177323   4.822   6.787  12.150 -0.9186 -1.0131  0.5538
18636TIP3    H277324   4.804   6.638  12.136  0.6752 -1.3586  1.8316
18637TIP3   OH277325   3.758   0.630  15.672  0.0804  0.2531 -0.3259
18637TIP3    H177326   3.827   0.625  15.738 -0.6620  0.2535  0.4841
18637TIP3    H277327   3.767   0.717  15.634  2.8755 -1.0078 -2.9482
18638TIP3   OH277328   6.697   4.449   1.376  0.1311 -0.0295 -0.1692
18638TIP3    H177329   6.731   4.536   1.397  1.7635 -0.4164 -1.0311
18638TIP3    H277330   6.693   4.404   1.461  0.0677  0.6216  0.1796
18639TIP3   OH277331   5.834   0.664   2.924 -0.0565  0.2487  0.0873
18639TIP3    H177332   5.779   0.742   2.934  0.5424  0.7983 -0.7468
18639TIP3    H277333   5.775   0.598   2.886 -0.4046  0.5070  0.1729
18640TIP3   OH277334   2.624   5.251   3.094 -0.3512 -0.3500 -0.4240
18640TIP3    H177335   2.678   5.271   3.017  0.0411  0.2612  0.0053
18640TIP3    H277336   2.631   5.328   3.150 -0.0351 -1.0778  0.5699
18641TIP3   OH277337   3.291   5.194   5.442  0.2210  0.0784 -0.7744
18641TIP3    H177338   3.272   5.238   5.359 -3.4810  1.5798  0.6665
18641TIP3    H277339   3.372   5.235   5.473 -0.5126  2.4877 -1.7785
18642TIP3   OH277340   2.952   3.555   0.345 -0.5657 -0.0507  0.1772
18642TIP3    H177341   2.948   3.549   0.249 -1.1599 -1.3811  0.2614
18642TIP3    H277342   2.999   3.477   0.372  1.1310  1.1686  0.9134
18643TIP3   OH277343   3.117   6.179  13.152  1.0771  0.1293 -0.3946
18643TIP3    H177344   3.176   6.245  13.189  0.2877  0.1951  0.7772
18643TIP3    H277345   3.031   6.201  13.186  0.7127 -1.2236 -0.3748
18644TIP3   OH277346   5.180   2.894   3.367  0.2562 -0.4862 -0.3936
18644TIP3    H177347   5.261   2.913   3.319  1.9815 -0.1543  2.4314
18644TIP3    H277348   5.155   2.978   3.405  0.4513 -1.1695  1.3501
18645TIP3   OH277349   1.207   0.750   2.656 -0.0373 -0.5419 -0.1058
18645TIP3    H177350   1.228   0.658   2.640  0.9711 -0.4589  0.6728
18645TIP3    H277351   1.166   0.780   2.574  0.1255 -1.5240 -0.5606
18646TIP3   OH277352   1.923   0.107  15.846  0.1498 -0.3871 -0.3245
18646TIP3    H177353   2.018   0.100  15.861  0.1822 -0.7072 -0.6405
18646TIP3    H277354   1.915   0.175  15.780  0.0498  0.6241  0.7129
18647TIP3   OH277355   0.413   4.918  10.711  0.1862 -0.5979  0.0528
18647TIP3    H177356   0.322   4.891  10.725  0.8126 -2.5292  0.8233
18647TIP3    H277357   0.458   4.837  10.687  1.5864  0.4527 -1.0066
18648TIP3   OH277358   3.049   1.247  16.063 -0.1866  0.0035 -0.3280
18648TIP3    H177359   3.002   1.232  15.981  0.1576  2.5245 -1.0777
18648TIP3    H277360   3.141   1.253  16.037 -0.0870  0.9390  0.2228
18649TIP3   OH277361   5.673   4.498  17.063  0.2543  0.2199 -0.3778
18649TIP3    H177362   5.620   4.561  17.112  1.2040  0.1455  0.7873
18649TIP3    H277363   5.650   4.513  16.972 -1.5777  0.3565  0.0709
18650TIP3   OH277364   4.644   4.154  10.818 -0.2487 -0.5676  0.4318
18650TIP3    H177365   4.582   4.090  10.852  1.0861 -0.9435  2.2726
18650TIP3    H277366   4.662   4.124  10.728 -0.1803 -2.3805  1.0159
18651TIP3   OH277367   2.636   4.230  14.378 -0.2680  0.7521 -0.1461
18651TIP3    H177368   2.682   4.308  14.347  0.5321  0.4146  0.1881
18651TIP3    H277369   2.573   4.211  14.308  0.4926  0.8727 -0.8813
18652TIP3   OH277370   3.105   0.093   3.641 -0.5090 -0.0283  0.0243
18652TIP3    H177371   3.032   0.114   3.699 -0.6523 -1.2818  0.3250
18652TIP3    H277372   3.142   0.012   3.677 -0.5877 -0.8254 -1.6041
18653TIP3   OH277373   5.770   4.434  15.788  0.2320  0.2102  0.3109
18653TIP3    H177374   5.815   4.361  15.745 -0.5606 -0.6370  0.8635
18653TIP3    H277375   5.831   4.463  15.856  1.7287  1.9164 -1.6340
18654TIP3   OH277376   5.754   2.206   1.628  0.8237 -0.5197 -0.3887
18654TIP3    H177377   5.834   2.191   1.578  0.0447  0.1875 -1.9084
18654TIP3    H277378   5.694   2.138   1.598  0.4173 -0.2148 -0.2738
18655TIP3   OH277379   4.064   1.040   4.510 -0.0442 -0.1904  0.0636
18655TIP3    H177380   3.995   1.105   4.522 -0.6611 -0.9812  1.0093
18655TIP3    H277381   4.076   1.001   4.597  0.7478 -0.9022 -0.3428
18656TIP3   OH277382   6.432   2.251   2.458 -0.1915  0.5285 -0.6607
18656TIP3    H177383   6.496   2.306   2.414 -0.6940  1.3347 -0.4001
18656TIP3    H277384   6.354   2.254   2.403  0.3702 -1.4896 -1.6545
18657TIP3   OH277385   0.074   5.127   5.236  0.0130  0.6207 -0.5388
18657TIP3    H177386   0.050   5.057   5.297 -3.3190  0.8756 -1.3643
18657TIP3    H277387   0.112   5.195   5.292  2.1301 -1.2230  0.4454
18658TIP3   OH277388   6.655   4.146   1.903  0.5151  0.3250  0.4224
18658TIP3    H177389   6.568   4.109   1.887 -0.0303  1.1983  1.2823
18658TIP3    H277390   6.683   4.180   1.818 -1.1081  2.3425  0.6322
18659TIP3   OH277391   1.390   5.661  16.484  0.2514 -0.0766 -0.4207
18659TIP3    H177392   1.479   5.694  16.477  0.4513 -0.5190  0.0064
18659TIP3    H277393   1.399   5.577  16.528 -0.4990  0.4523  0.7718
18660TIP3   OH277394   6.292   3.310   0.190  0.1957 -0.6264  0.4504
18660TIP3    H177395   6.345   3.379   0.151 -2.2993  0.4151 -1.3984
18660TIP3    H277396   6.286   3.333   0.283  0.8833  0.6330  0.1930
18661TIP3   OH277397   2.254   2.496  17.214 -0.1466  0.5213 -0.0003
18661TIP3    H177398   2.339   2.526  17.245  0.4216 -1.7324  0.8622
18661TIP3    H277399   2.191   2.534  17.275  0.4990  0.1766  0.8996
18662TIP3   OH277400   0.344   2.483  13.904 -0.5496 -0.0722  0.0719
18662TIP3    H177401   0.309   2.454  13.820  0.1793 -0.9117  0.0394
18662TIP3    H277402   0.414   2.544  13.881  0.3994 -1.1488  0.0111
18663TIP3   OH277403   2.762   6.048   0.566  0.1484  0.1045 -0.1836
18663TIP3    H177404   2.781   6.062   0.473 -0.2439  0.6106 -0.1902
18663TIP3    H277405   2.714   6.126   0.593  0.5618  0.1155  0.5344
18664TIP3   OH277406   6.614   1.704  14.933 -0.2763 -0.2816  0.2679
18664TIP3    H177407   6.600   1.691  15.027 -1.2724  1.1582  0.3479
18664TIP3    H277408   6.709   1.696  14.922 -0.2946 -2.3021  1.0529
18665TIP3   OH277409   4.264   4.162  16.816  0.5411 -0.0250  0.0550
18665TIP3    H177410   4.297   4.107  16.744  0.0847 -0.8516  0.4622
18665TIP3    H277411   4.282   4.112  16.895 -0.5613  0.0652  0.3768
18666TIP3   OH277412   1.016   3.709  14.573 -0.2991 -0.7620  0.6735
18666TIP3    H177413   1.020   3.780  14.636  0.9274 -0.6818  0.5301
18666TIP3    H277414   0.967   3.640  14.617 -0.2463 -0.3645  1.3632
18667TIP3   OH277415   2.239   6.507   1.674  0.6412 -0.1175  0.6063
18667TIP3    H177416   2.222   6.569   1.745  0.5222 -0.8221  1.2066
18667TIP3    H277417   2.252   6.423   1.719 -1.0646 -0.9055 -0.2929
18668TIP3   OH277418   0.224   1.051  13.355 -0.1592  0.0407  0.0751
18668TIP3    H177419   0.291   1.087  13.298 -0.2364  0.9378  0.5322
18668TIP3    H277420   0.260   1.061  13.443 -0.0126 -1.3778  0.2070
18669TIP3   OH277421   4.355   0.524  16.521 -0.1415  0.0331 -0.2987
18669TIP3    H177422   4.400   0.449  16.482  0.2869 -0.0728  0.3668
18669TIP3    H277423   4.329   0.493  16.608 -0.4447  0.4794 -0.2296
18670TIP3   OH277424   0.362   1.659  17.109  0.4443  0.3548 -0.4354
18670TIP3    H177425   0.345   1.744  17.149  0.8024  0.3115 -0.1796
18670TIP3    H277426   0.458   1.655  17.102  0.3662  0.6796 -2.0113
18671TIP3   OH277427   1.763   6.327  15.679  0.0455 -0.4186  0.4994
18671TIP3    H177428   1.764   6.389  15.607  0.5057 -0.3042  0.6037
18671TIP3    H277429   1.770   6.241  15.637 -0.0567 -0.3738  0.3903
18672TIP3   OH277430   1.132   2.672  12.500  0.0672 -0.3656  0.2918
18672TIP3    H177431   1.135   2.763  12.470 -2.5199  0.2157  1.5506
18672TIP3    H277432   1.042   2.644  12.483  0.1649 -1.9323  2.0612
18673TIP3   OH277433   3.477   4.834   3.134 -0.1023 -0.1426  0.2922
18673TIP3    H177434   3.550   4.824   3.195  0.0838  0.2717  0.1458
18673TIP3    H277435   3.514   4.809   3.049 -0.4882 -1.1630  0.4208
18674TIP3   OH277436   1.868   5.122   4.158 -0.2518 -0.1416  0.1215
18674TIP3    H177437   1.963   5.114   4.149 -0.1870  0.0995  0.5575
18674TIP3    H277438   1.841   5.168   4.079  0.1178  0.6242  0.4275
18675TIP3   OH277439   4.958   1.473   0.577 -0.1696  0.3365  0.3819
18675TIP3    H177440   5.032   1.531   0.559  0.2997 -1.1514 -3.4011
18675TIP3    H277441   4.888   1.506   0.520 -0.4275 -1.7428 -0.6020
18676TIP3   OH277442   3.773   3.304  15.723 -0.1739 -0.0291 -0.0114
18676TIP3    H177443   3.734   3.232  15.673  0.8365 -0.4622 -0.2235
18676TIP3    H277444   3.818   3.357  15.657 -0.7620  0.7039  0.1690
18677TIP3   OH277445   2.172   1.672   0.887 -0.4174  0.0470  0.0978
18677TIP3    H177446   2.197   1.704   0.974  0.1551 -1.1824  0.4177
18677TIP3    H277447   2.235   1.602   0.869 -0.6607  0.1507 -1.2253
18678TIP3   OH277448   5.487   4.991   4.712  0.2562  0.2186  0.5988
18678TIP3    H177449   5.443   5.065   4.754  0.0939  1.5053 -1.6865
18678TIP3    H277450   5.575   5.025   4.692 -0.8516  1.2327 -3.6141
18679TIP3   OH277451   1.097   0.972  12.432  0.0109 -0.2226  0.4298
18679TIP3    H177452   1.169   0.996  12.490 -1.0673  0.5178  1.5427
18679TIP3    H277453   1.029   1.038  12.450 -1.2776 -1.3965  0.0954
18680TIP3   OH277454   5.764   3.852   5.211 -0.0428 -0.2764  0.3569
18680TIP3    H177455   5.782   3.846   5.117 -0.5727  0.0478  0.2298
18680TIP3    H277456   5.766   3.946   5.230 -2.1486 -0.1359  0.2014
18681TIP3   OH277457   4.799   2.538  11.489 -0.1138  0.7414  0.3126
18681TIP3    H177458   4.742   2.495  11.425 -0.1787 -0.0270  0.8698
18681TIP3    H277459   4.791   2.631  11.470  2.0715  0.4488 -2.6767
18682TIP3   OH277460   5.707   6.677   5.379  0.0758  0.0567  0.4085
18682TIP3    H177461   5.764   6.606   5.351  0.5846  0.5339  0.2152
18682TIP3    H277462   5.765   6.753   5.386 -0.3625  0.3424  1.0915
18683TIP3   OH277463   3.813   1.018  11.766  0.8269  0.0960  0.5882
18683TIP3    H177464   3.739   1.020  11.705 -0.9066  0.1606  2.6062
18683TIP3    H277465   3.854   0.933  11.750  1.2142  0.6163 -1.5183
18684TIP3   OH277466   6.628   3.954  15.489  0.1645 -0.5197 -0.1966
18684TIP3    H177467   6.669   3.902  15.557 -1.1727 -0.7300  0.4842
18684TIP3    H277468   6.676   3.932  15.409  0.9302 -1.2330  0.4453
18685TIP3   OH277469   2.883   1.691  15.481 -0.2005 -0.4824  0.1999
18685TIP3    H177470   2.854   1.650  15.399 -1.3982 -0.0087  0.3634
18685TIP3    H277471   2.948   1.756  15.454 -0.1396 -0.7532 -0.3098
18686TIP3   OH277472   3.628   6.217  13.875  0.2146  0.4271 -0.2574
18686TIP3    H177473   3.614   6.187  13.964 -0.7899  1.7444  0.0585
18686TIP3    H277474   3.683   6.149  13.835  1.1607  0.1122  1.5121
18687TIP3   OH277475   3.268   4.691  17.106  0.0934  0.4516 -0.0023
18687TIP3    H177476   3.315   4.651  17.179 -0.2885  1.0205  0.5730
18687TIP3    H277477   3.331   4.750  17.065  0.2528  0.2790 -0.0013
18688TIP3   OH277478   1.544   3.335   6.580 -0.1734  0.7505 -0.1237
18688TIP3    H177479   1.590   3.263   6.537  0.6309  0.1715  1.6030
18688TIP3    H277480   1.457   3.335   6.541  0.7112  0.7357 -2.2234
18689TIP3   OH277481   4.105   6.744   1.057  0.6465 -0.1023 -0.2765
18689TIP3    H177482   4.065   6.746   1.144 -0.8250  1.0410 -0.9487
18689TIP3    H277483   4.113   6.836   1.032  1.3510 -0.4065 -1.2452
18690TIP3   OH277484   0.078   1.479   4.999  0.1213 -0.0861  0.3310
18690TIP3    H177485   0.142   1.546   4.975 -1.5313  1.9724  1.3770
18690TIP3    H277486   0.020   1.473   4.923 -0.3813  0.5093  0.6610
18691TIP3   OH277487   4.716   6.211  13.207 -0.7320  0.0594  0.4495
18691TIP3    H177488   4.708   6.160  13.126 -0.2860  1.2826 -0.3992
18691TIP3    H277489   4.783   6.276  13.187 -0.6304  0.3986  1.8124
18692TIP3   OH277490   6.530   1.031  10.543 -0.1904  0.3486  0.7327
18692TIP3    H177491   6.502   1.116  10.578  0.6802  1.3954 -0.9672
18692TIP3    H277492   6.481   1.021  10.462  1.7467  0.6355 -0.5615
18693TIP3   OH277493   0.234   5.720  13.443  0.4463  0.2201 -0.1696
18693TIP3    H177494   0.270   5.796  13.396  0.8486  0.1707  0.0540
18693TIP3    H277495   0.294   5.649  13.422  1.0191  0.3453  0.9495
18694TIP3   OH277496   2.538   0.708  14.905 -0.4246  0.6670  0.2133
18694TIP3    H177497   2.462   0.766  14.899  0.7156  2.4901  1.9525
18694TIP3    H277498   2.595   0.737  14.834 -0.8245  0.0928 -0.3537
18695TIP3   OH277499   0.380   3.022   4.732 -0.8040  0.3680 -0.1551
18695TIP3    H177500   0.451   2.963   4.759 -0.5585  0.7615  0.0642
18695TIP3    H277501   0.391   3.031   4.637  0.0202  1.1820  0.0143
18696TIP3   OH277502   6.435   2.474  13.314  0.6693 -0.4756  0.0567
18696TIP3    H177503   6.524   2.481  13.348  1.4210 -0.0301 -1.8331
18696TIP3    H277504   6.427   2.547  13.252 -1.2221 -0.1694  0.5871
18697TIP3   OH277505   6.490   3.845   5.338  0.0714 -0.3331 -0.6963
18697TIP3    H177506   6.551   3.777   5.367 -1.6393 -1.1406  1.2507
18697TIP3    H277507   6.537   3.891   5.268  2.1035 -2.1558 -0.6348
18698TIP3   OH277508   5.025   4.628   2.160  0.4211 -0.1311  0.1416
18698TIP3    H177509   5.117   4.650   2.145  0.6932 -1.5837 -0.5600
18698TIP3    H277510   5.028   4.537   2.192 -0.5490  0.8902  3.6189
18699TIP3   OH277511   3.143   2.042  12.503  0.7490  0.1896  0.0137
18699TIP3    H177512   3.237   2.029  12.515  0.4399 -1.6730  0.7555
18699TIP3    H277513   3.132   2.055  12.409  1.6755 -0.3877 -0.1876
18700TIP3   OH277514   3.723   1.572   2.525  0.1417 -0.0610  0.5481
18700TIP3    H177515   3.797   1.516   2.506  1.0523  1.1098  0.5417
18700TIP3    H277516   3.715   1.629   2.448 -0.6894 -0.0905  0.5978
18701TIP3   OH277517   0.879   0.417  14.620  0.1345 -0.4162  0.3241
18701TIP3    H177518   0.850   0.327  14.602 -1.3371  0.1258 -0.1162
18701TIP3    H277519   0.799   0.468  14.627  0.9172  0.7612  1.2990
18702TIP3   OH277520   0.828   1.137   0.838 -0.8461 -0.2284 -0.4239
18702TIP3    H177521   0.867   1.089   0.911 -2.0843 -0.7435 -0.0776
18702TIP3    H277522   0.893   1.204   0.816 -0.1765 -0.4699  0.7362
18703TIP3   OH277523   6.430   1.637  14.729 -0.2533  0.4140  0.6151
18703TIP3    H177524   6.493   1.668  14.794 -1.3811  1.7831  1.1156
18703TIP3    H277525   6.385   1.716  14.699 -2.2144 -0.5412  0.8231
18704TIP3   OH277526   1.237   0.030  12.134 -0.3477 -0.3988 -0.0871
18704TIP3    H177527   1.283  -0.053  12.142 -2.8311 -1.8312  0.4155
18704TIP3    H277528   1.302   0.090  12.098  0.9929 -3.0317 -2.4702
18705TIP3   OH277529   1.434   4.776  12.923  0.3313  0.0080 -0.0607
18705TIP3    H177530   1.501   4.720  12.884  1.3763  0.6979  0.6736
18705TIP3    H277531   1.397   4.825  12.849 -0.0728 -1.0988 -0.6060
18706TIP3   OH277532   3.281   1.101  15.328 -0.2109  0.0840 -0.4508
18706TIP3    H177533   3.333   1.163  15.277 -0.8268  0.6925 -0.3529
18706TIP3    H277534   3.308   1.015  15.296  2.7651  0.2039  1.3875
18707TIP3   OH277535   3.566   3.819   1.743 -0.3246  0.0166  0.1278
18707TIP3    H177536   3.541   3.726   1.750 -0.8974  0.0426 -1.3559
18707TIP3    H277537   3.653   3.823   1.783 -0.2191 -1.1907  0.0590
18708TIP3   OH277538   2.206   4.769   3.538 -0.0274 -0.7640 -0.6989
18708TIP3    H177539   2.300   4.776   3.520  0.9790 -2.9435  2.7518
18708TIP3    H277540   2.182   4.682   3.506 -0.1543 -1.3015  0.7768
18709TIP3   OH277541   3.608   5.710   2.141  0.1493  0.3138 -0.8003
18709TIP3    H177542   3.698   5.678   2.139 -0.1641 -0.9602  1.7613
18709TIP3    H277543   3.560   5.654   2.080  0.3409 -1.8925  0.9364
18710TIP3   OH277544   2.193   3.824   2.945  0.4215  0.2807 -0.6039
18710TIP3    H177545   2.167   3.739   2.909 -0.8003  0.4034 -0.0459
18710TIP3    H277546   2.208   3.879   2.868 -0.6985  0.1164 -0.9515
18711TIP3   OH277547   4.759   5.730   5.770  0.0436 -0.1317 -1.1311
18711TIP3    H177548   4.776   5.803   5.830  1.9005  0.8191 -2.7076
18711TIP3    H277549   4.766   5.652   5.825 -0.9119  0.8091  0.3831
18712TIP3   OH277550   2.104   3.954  11.372  0.2673  0.5614 -0.0160
18712TIP3    H177551   2.199   3.955  11.378  0.2626  3.1509  0.9501
18712TIP3    H277552   2.084   4.001  11.291 -0.2094 -0.8645 -0.7533
18713TIP3   OH277553   4.753   5.461   1.377  0.1558  0.2534 -0.5620
18713TIP3    H177554   4.843   5.430   1.391 -0.2275 -0.2334  0.9867
18713TIP3    H277555   4.735   5.516   1.453 -0.5996  0.9979 -1.2633
18714TIP3   OH277556   4.663   4.236  13.713  0.4234  0.5482  0.0482
18714TIP3    H177557   4.756   4.216  13.699  0.3600 -0.0983  0.4976
18714TIP3    H277558   4.662   4.330  13.733  1.0640  0.4245  0.7261
18715TIP3   OH277559   6.666   1.340  17.029 -0.7693 -0.4727  0.2904
18715TIP3    H177560   6.737   1.392  17.067 -0.1574 -1.6022  0.7624
18715TIP3    H277561   6.638   1.282  17.100 -1.2176 -0.9958 -0.3002
18716TIP3   OH277562   4.988   1.247   1.311 -0.0350 -0.3498 -0.3575
18716TIP3    H177563   4.976   1.326   1.363 -2.3092 -0.5329 -0.4898
18716TIP3    H277564   4.938   1.263   1.230  0.4324 -1.4587 -0.8855
18717TIP3   OH277565   5.730   6.613   1.066  0.2402  0.0838  0.2921
18717TIP3    H177566   5.711   6.652   0.980 -3.5948 -2.0373 -0.0595
18717TIP3    H277567   5.791   6.542   1.047  0.6544  0.6066 -0.3970
18718TIP3   OH277568   6.151   5.407   3.461  0.0222 -0.1952 -0.2443
18718TIP3    H177569   6.071   5.366   3.495 -0.4308  0.1010 -0.9266
18718TIP3    H277570   6.222   5.358   3.502 -0.5030 -0.1683  0.7369
18719TIP3   OH277571   5.412   5.256   5.426 -0.4728  1.3432 -0.1817
18719TIP3    H177572   5.417   5.301   5.510  0.1022  1.4322 -0.2601
18719TIP3    H277573   5.332   5.203   5.432 -0.5541  1.5189  0.3321
18720TIP3   OH277574   4.348   4.360  16.078 -0.0287  0.6125 -0.7502
18720TIP3    H177575   4.294   4.387  16.152 -1.1753 -3.2111  0.0505
18720TIP3    H277576   4.323   4.419  16.007 -2.3371  1.5293  0.7130
18721TIP3   OH277577   5.255   1.614  15.766 -0.3850 -0.1903  0.7079
18721TIP3    H177578   5.229   1.542  15.824 -1.0861  0.4201  1.1645
18721TIP3    H277579   5.334   1.650  15.807  0.0951 -0.8229  0.3622
18722TIP3   OH277580   2.019   6.238  13.714 -0.1228 -0.1205 -0.0881
18722TIP3    H177581   2.114   6.227  13.717  0.2404  2.1468 -1.0665
18722TIP3    H277582   1.985   6.149  13.703  1.9415 -0.8862 -0.8204
18723TIP3   OH277583   5.514   4.854   3.397 -0.2218  0.4154 -0.1050
18723TIP3    H177584   5.429   4.839   3.440 -0.1575 -0.7217 -0.3430
18723TIP3    H277585   5.574   4.872   3.470 -0.4212 -0.0053  0.1732
18724TIP3   OH277586   1.079   2.560   0.051 -0.4912  0.0157 -0.1892
18724TIP3    H177587   0.995   2.556   0.097 -1.7735 -0.2179 -2.3883
18724TIP3    H277588   1.082   2.479  -0.000  1.7573 -0.6521  0.8683
18725TIP3   OH277589   5.600   0.076   4.292 -0.2145 -0.3920 -0.2588
18725TIP3    H177590   5.657   0.129   4.236  1.0816  0.2870  1.5944
18725TIP3    H277591   5.511   0.104   4.269  0.2525 -0.1879 -1.9830
18726TIP3   OH277592   3.521   1.334   6.895  0.4240  0.2171 -0.0663
18726TIP3    H177593   3.442   1.381   6.869 -0.4816 -0.9900  0.4522
18726TIP3    H277594   3.591   1.399   6.884 -0.0476  0.2771 -4.0348
18727TIP3   OH277595   5.619   0.148  13.317 -0.4928 -0.6310  0.7541
18727TIP3    H177596   5.636   0.238  13.287 -0.5946 -0.5516  0.9333
18727TIP3    H277597   5.682   0.135  13.388  0.1861 -1.0442  0.0886
18728TIP3   OH277598   5.785   4.876   0.395 -0.9065 -0.1510  0.6876
18728TIP3    H177599   5.790   4.956   0.447  0.5593  0.3470 -0.1646
18728TIP3    H277600   5.875   4.859   0.368 -1.8487  2.0828 -5.2656
18729TIP3   OH277601   6.736   1.726   2.708 -0.3527  0.4366  0.2237
18729TIP3    H177602   6.653   1.734   2.660 -0.4591 -1.0347  0.1250
18729TIP3    H277603   6.710   1.698   2.796  0.0545 -0.3373  0.1016
18730TIP3   OH277604   4.299   6.558   4.372  0.3213 -0.1852  0.4441
18730TIP3    H177605   4.354   6.610   4.314 -0.5032 -0.0389 -0.2274
18730TIP3    H277606   4.350   6.550   4.453  1.3724 -0.1617 -0.1969
18731TIP3   OH277607   0.546   2.855  16.892  0.7167 -0.5474  0.2213
18731TIP3    H177608   0.483   2.784  16.908 -0.2978  0.6979  2.1836
18731TIP3    H277609   0.525   2.886  16.804 -0.1893 -1.3510  0.1265
18732TIP3   OH277610   2.092   4.383  15.092 -0.1070 -0.1544  0.4307
18732TIP3    H177611   2.144   4.313  15.053 -0.7759 -0.5281  0.2045
18732TIP3    H277612   2.156   4.451  15.113  0.3627 -0.2594 -0.6236
18733TIP3   OH277613   0.102   4.755  12.353 -0.7102  0.4929 -0.1309
18733TIP3    H177614   0.022   4.758  12.301 -0.1256 -0.1141 -1.0955
18733TIP3    H277615   0.075   4.718  12.437 -1.2014 -1.0434 -0.9297
18734TIP3   OH277616   3.973   2.555  16.682  0.2190  0.5601 -0.0831
18734TIP3    H177617   3.909   2.502  16.635  0.3595  1.6150 -1.5264
18734TIP3    H277618   4.012   2.495  16.745 -0.1880 -0.8297 -1.1081
18735TIP3   OH277619   2.543   6.590  11.981 -0.1238 -0.1802  0.0033
18735TIP3    H177620   2.527   6.615  12.072  3.2647  0.7408  0.4799
18735TIP3    H277621   2.461   6.610  11.935 -0.7398  2.8629  2.1647
18736TIP3   OH277622   2.958   0.477  16.846  0.0108  0.6720 -0.2391
18736TIP3    H177623   2.986   0.435  16.765  2.0315 -0.7230  1.0753
18736TIP3    H277624   2.866   0.453  16.856  0.5145 -1.6371 -0.6812
18737TIP3   OH277625   6.696   2.031  14.271  0.4016  0.6298  0.6011
18737TIP3    H177626   6.788   2.019  14.248 -0.2213 -1.0575 -1.3770
18737TIP3    H277627   6.677   1.961  14.334  0.0750 -0.1789 -0.3711
18738TIP3   OH277628   3.403   5.360  14.990 -0.1660 -0.9626 -0.0097
18738TIP3    H177629   3.339   5.361  14.919 -1.2879 -1.7026  0.9515
18738TIP3    H277630   3.430   5.451  15.000 -2.0730 -0.4077  0.4203
18739TIP3   OH277631   3.196   4.592   5.098 -0.0789  0.2887  0.2167
18739TIP3    H177632   3.128   4.618   5.035  1.4564 -0.2843 -1.7611
18739TIP3    H277633   3.183   4.498   5.110  0.9381 -0.0313 -0.9711
18740TIP3   OH277634   3.025   3.985   4.974 -0.9269 -0.3142  0.2739
18740TIP3    H177635   2.965   3.916   5.004 -1.0094 -1.1684 -1.7587
18740TIP3    H277636   3.111   3.956   5.003 -1.2029 -0.1854  1.2732
18741TIP3   OH277637   4.742   3.887  16.056  0.6326 -0.8024 -0.0957
18741TIP3    H177638   4.760   3.915  15.967 -0.1505  1.5003  0.4116
18741TIP3    H277639   4.819   3.915  16.106 -0.2471  0.7913  0.4512
18742TIP3   OH277640   5.149   6.028  17.081  0.0020  0.3751 -0.2901
18742TIP3    H177641   5.215   6.096  17.098  1.5374 -0.8537 -1.1535
18742TIP3    H277642   5.110   6.053  16.998  2.4035 -1.1078 -1.9675
18743TIP3   OH277643   2.195   5.769  15.049 -0.0585  0.2267  0.3166
18743TIP3    H177644   2.173   5.777  15.142 -0.3963 -0.4292  0.2972
18743TIP3    H277645   2.141   5.697  15.018 -0.9452  1.3106 -0.7109
18744TIP3   OH277646   1.095   4.582   2.239  0.1250 -0.3645 -0.1860
18744TIP3    H177647   1.023   4.528   2.206 -0.7813  0.6241  0.1220
18744TIP3    H277648   1.099   4.656   2.178  1.5297 -0.8830 -0.7613
18745TIP3   OH277649   3.562   0.948   0.704  0.3442  0.7247  0.3410
18745TIP3    H177650   3.628   0.997   0.753  1.5572 -1.3481  0.8804
18745TIP3    H277651   3.517   0.895   0.770 -0.5695  0.7027 -0.2868
18746TIP3   OH277652   4.258   1.866   5.932 -0.6439 -0.4914 -0.3388
18746TIP3    H177653   4.283   1.773   5.934  0.1306 -0.2806  0.5360
18746TIP3    H277654   4.340   1.912   5.918 -0.5918  0.1824  1.8023
18747TIP3   OH277655   2.113   2.734  13.315  0.2054  0.1132 -0.3325
18747TIP3    H177656   2.115   2.808  13.376  1.9222  1.2427 -1.6857
18747TIP3    H277657   2.026   2.737  13.276 -0.4596  0.1429  1.0919
18748TIP3   OH277658   0.037   2.795  14.638  0.1678  0.2441  0.3566
18748TIP3    H177659   0.111   2.849  14.664  1.1402 -1.1427  0.6063
18748TIP3    H277660   0.027   2.811  14.544  2.0468 -0.9366 -0.1003
18749TIP3   OH277661   1.874   0.151   1.245 -0.1221  0.3314  0.1281
18749TIP3    H177662   1.869   0.204   1.325 -1.8075 -0.4780  0.6096
18749TIP3    H277663   1.881   0.061   1.276  0.3167  0.0922 -0.6515
18750TIP3   OH277664   2.061   3.437  13.889 -0.1258  0.2073  0.6229
18750TIP3    H177665   2.062   3.529  13.913  0.0325  0.0919  1.0675
18750TIP3    H277666   2.118   3.431  13.812 -0.0848  0.4669  0.6334
18751TIP3   OH277667   2.887   5.919  14.693 -0.7688 -0.0657 -0.4279
18751TIP3    H177668   2.916   5.882  14.776 -1.6333  1.0669  0.4066
18751TIP3    H277669   2.946   5.882  14.628  0.2786 -0.5334  0.7603
18752TIP3   OH277670   1.795   2.465   0.878 -0.4934 -0.1034  0.0066
18752TIP3    H177671   1.840   2.462   0.962  0.9929  0.5954 -0.7371
18752TIP3    H277672   1.773   2.557   0.866 -1.9701 -0.3935  0.2431
18753TIP3   OH277673   3.383   0.601  13.824  0.6115  0.0351  0.1201
18753TIP3    H177674   3.427   0.525  13.786  1.8105  0.9948 -0.4800
18753TIP3    H277675   3.325   0.632  13.754  0.9556  0.3285 -0.0355
18754TIP3   OH277676   2.539   6.018   2.264 -0.1407 -0.2817  0.4452
18754TIP3    H177677   2.617   6.038   2.316  1.7900  0.8524 -2.5474
18754TIP3    H277678   2.557   5.932   2.225 -1.4740 -1.0509  1.4519
18755TIP3   OH277679   3.648   5.731   4.397  0.2858  0.2032  0.4967
18755TIP3    H177680   3.740   5.729   4.424  0.6551  0.1360 -0.6921
18755TIP3    H277681   3.651   5.729   4.301 -0.9812 -0.7013  0.4429
18756TIP3   OH277682   5.870   5.656   1.625  1.0234  0.0775  0.1155
18756TIP3    H177683   5.805   5.591   1.648  0.0339  1.1280  0.4043
18756TIP3    H277684   5.901   5.631   1.538 -1.9250  1.1302 -1.3650
18757TIP3   OH277685   5.536   6.287  16.827  0.0927 -0.1612 -0.0118
18757TIP3    H177686   5.601   6.239  16.878  0.7773  1.4081  0.6911
18757TIP3    H277687   5.490   6.220  16.777  0.7581 -1.5600  1.1530
18758TIP3   OH277688   3.047   5.673   4.362  0.2807 -0.2658  0.0963
18758TIP3    H177689   2.986   5.713   4.301 -0.7087 -0.8052  0.7112
18758TIP3    H277690   2.994   5.650   4.438  1.3378 -0.3082  0.8456
18759TIP3   OH277691   5.069   3.240   4.380 -0.1441  0.4388  0.0277
18759TIP3    H177692   5.116   3.274   4.457  0.8240  1.3576 -0.9177
18759TIP3    H277693   5.038   3.319   4.335  1.4741  0.1165 -1.8135
18760TIP3   OH277694   1.574   1.425  12.384  0.1878 -0.7626 -0.0370
18760TIP3    H177695   1.478   1.418  12.379 -0.0739  1.5123  0.7366
18760TIP3    H277696   1.597   1.492  12.321  1.5878 -2.7535 -1.7764
18761TIP3   OH277697   2.952   1.700  14.430  0.0063  0.2634 -0.4011
18761TIP3    H177698   3.034   1.723  14.387 -0.3657  3.1026  0.2650
18761TIP3    H277699   2.888   1.760  14.394 -1.3119 -0.4205  0.7092
18762TIP3   OH277700   2.228   3.506  15.796 -0.0874  0.1895 -0.1857
18762TIP3    H177701   2.173   3.584  15.791  0.3559  0.4311 -3.4087
18762TIP3    H277702   2.299   3.531  15.856 -2.3849  0.4732  2.6470
18763TIP3   OH277703   4.523   3.046   5.799 -0.9892  0.1259  0.7447
18763TIP3    H177704   4.501   2.957   5.826 -0.8804 -0.3115 -0.5892
18763TIP3    H277705   4.613   3.059   5.831 -0.1980 -1.0286 -0.9099
18764TIP3   OH277706   6.556   2.850   3.625 -0.0798 -0.4423 -0.0830
18764TIP3    H177707   6.601   2.902   3.558 -0.2843  0.6933  0.6329
18764TIP3    H277708   6.542   2.765   3.584  1.1793 -0.2742 -0.9361
18765TIP3   OH277709   4.549   0.426  12.018  0.2063  0.1077 -0.1121
18765TIP3    H177710   4.553   0.503  12.076 -1.0148  1.7449 -2.0512
18765TIP3    H277711   4.513   0.357  12.073 -0.4291  1.4455  1.2476
18766TIP3   OH277712   3.755   0.466   5.087  0.1994  0.1480  0.0412
18766TIP3    H177713   3.729   0.528   5.156 -0.1187  1.1601 -0.9659
18766TIP3    H277714   3.850   0.477   5.079 -0.0882  2.0348 -1.5185
18767TIP3   OH277715   4.808   2.895   5.024 -0.4008 -0.5267  0.4473
18767TIP3    H177716   4.805   2.883   4.930  1.8020  1.8432 -0.0251
18767TIP3    H277717   4.817   2.989   5.037 -0.5550 -0.7762  3.0428
18768TIP3   OH277718   4.647   1.053   2.418  0.2128  0.4151  0.0288
18768TIP3    H177719   4.561   1.017   2.440  1.3572 -1.8316  1.1456
18768TIP3    H277720   4.650   1.052   2.322  0.1483 -2.6041 -0.0122
18769TIP3   OH277721   0.746   4.597  13.539  0.6339  0.4195 -0.2976
18769TIP3    H177722   0.700   4.597  13.622  0.9857 -1.6667 -0.0482
18769TIP3    H277723   0.824   4.544  13.555  0.9853  0.4352 -1.8005
18770TIP3   OH277724   0.174   6.442   3.488  0.5962 -0.1465 -0.7487
18770TIP3    H177725   0.199   6.428   3.579  1.7872 -0.8018 -1.1662
18770TIP3    H277726   0.102   6.381   3.473 -1.5896  1.9173  0.5231
18771TIP3   OH277727   0.667   3.313   2.524  0.3563  0.1698  0.0236
18771TIP3    H177728   0.645   3.265   2.604 -2.6009 -1.3491 -1.5204
18771TIP3    H277729   0.737   3.262   2.484  0.0742 -0.5254  0.4001
18772TIP3   OH277730   0.300   4.003   0.974  0.4870  0.4969 -0.1293
18772TIP3    H177731   0.235   4.052   1.024 -0.4442  0.7890 -1.6006
18772TIP3    H277732   0.350   3.955   1.041 -2.7466 -1.6511  0.9695
18773TIP3   OH277733   2.865   3.903   5.537 -0.8485 -0.1440  0.1937
18773TIP3    H177734   2.913   3.911   5.454 -0.1807 -1.1253  0.4651
18773TIP3    H277735   2.793   3.966   5.529 -1.2779 -0.7845 -1.4691
18774TIP3   OH277736   5.952   5.820   4.550  0.4804  0.6546 -0.4243
18774TIP3    H177737   5.964   5.915   4.553  3.7713  0.3434  0.4118
18774TIP3    H277738   6.009   5.791   4.479 -0.0468 -0.7288 -0.3006
18775TIP3   OH277739   2.568   0.040  16.652  0.2120 -0.6816 -0.1227
18775TIP3    H177740   2.517  -0.040  16.641 -0.4206 -0.4342  0.9052
18775TIP3    H277741   2.504   0.111  16.648  0.6371 -0.2869 -0.0224
18776TIP3   OH277742   5.633   0.482  12.855  0.3984 -0.0364 -0.0973
18776TIP3    H177743   5.655   0.483  12.762 -2.7668  2.0097 -0.9950
18776TIP3    H277744   5.665   0.566  12.887  0.3704 -0.1922  0.3401
18777TIP3   OH277745   2.529   4.976   1.028 -0.1037  0.0048 -0.4709
18777TIP3    H177746   2.563   5.000   1.114 -2.7133  3.4559 -0.2170
18777TIP3    H277747   2.604   4.938   0.982  1.6549 -0.9174  2.8715
18778TIP3   OH277748   2.985   1.786   2.201  0.2694  0.3314 -0.0875
18778TIP3    H177749   3.026   1.699   2.198 -0.2437  0.0995 -0.5909
18778TIP3    H277750   2.892   1.768   2.214  0.3478  0.8683  1.4407
18779TIP3   OH277751   4.909   5.086   4.760 -0.4446 -0.0034 -0.2904
18779TIP3    H177752   4.845   5.095   4.690  0.2070 -1.6311 -1.1466
18779TIP3    H277753   4.993   5.073   4.715  0.1384 -0.1741  0.7936
18780TIP3   OH277754   6.037   3.751  10.295  0.2737  0.7929 -0.4517
18780TIP3    H177755   5.954   3.707  10.274 -1.2722  3.5496 -0.7116
18780TIP3    H277756   6.021   3.790  10.381  2.0445 -0.1492  0.3489
18781TIP3   OH277757   6.274   6.136   4.088 -0.1704  0.2292 -0.3742
18781TIP3    H177758   6.188   6.128   4.046 -0.0156  0.4655 -0.7398
18781TIP3    H277759   6.309   6.220   4.058 -0.6838  1.1381  1.4102
18782TIP3   OH277760   2.381   1.273  15.032  0.8667  0.4768 -0.0845
18782TIP3    H177761   2.473   1.274  15.058  0.9233 -0.9632 -0.1674
18782TIP3    H277762   2.379   1.219  14.953 -0.2230 -0.5690  0.6291
18783TIP3   OH277763   5.440   5.056   2.911  0.0323 -0.3381 -0.2774
18783TIP3    H177764   5.355   5.082   2.876  0.1884  0.0586 -0.3640
18783TIP3    H277765   5.420   5.020   2.998 -0.0095  1.6324  0.5692
18784TIP3   OH277766   4.402   1.344  13.213  0.2236 -0.4132  0.2483
18784TIP3    H177767   4.421   1.437  13.223  0.0548 -0.1275 -1.6281
18784TIP3    H277768   4.312   1.342  13.181  0.1937 -1.2338  0.3687
18785TIP3   OH277769   6.501   1.648  15.841  0.4522  0.3385 -0.0126
18785TIP3    H177770   6.530   1.665  15.931  1.3098  0.9812 -0.4018
18785TIP3    H277771   6.426   1.707  15.830  0.1315  0.0118  0.3900
18786TIP3   OH277772   5.714   1.914  15.274 -0.1324  0.2124  0.0688
18786TIP3    H177773   5.745   2.003  15.256  1.8071 -0.4996 -0.4133
18786TIP3    H277774   5.690   1.878  15.189 -0.9929  0.3016  0.2723
18787TIP3   OH277775   3.759   3.022  10.952  0.9899 -0.4129  0.1306
18787TIP3    H177776   3.734   3.028  10.860  0.0898  0.6844  0.4276
18787TIP3    H277777   3.798   3.107  10.972 -0.9778  0.2536  1.3583
18788TIP3   OH277778   6.027   5.257   3.020  0.2778 -0.2896 -0.1432
18788TIP3    H177779   6.058   5.189   2.961 -0.7177 -1.9184  1.1055
18788TIP3    H277780   5.959   5.303   2.971 -0.0899 -1.1983 -0.5008
18789TIP3   OH277781   5.121   5.748  14.957 -0.0712  0.1918 -0.5212
18789TIP3    H177782   5.207   5.720  14.924 -0.2836 -1.7790  0.4419
18789TIP3    H277783   5.062   5.677  14.935 -1.3551  1.2475 -0.6145
18790TIP3   OH277784   5.394   4.029  10.867  0.3559 -0.5288  0.6616
18790TIP3    H177785   5.474   3.998  10.823  1.4288 -0.6343  2.5793
18790TIP3    H277786   5.396   4.124  10.854  0.2820 -0.6229 -0.0955
18791TIP3   OH277787   4.336   5.592  14.137  0.2280  0.3741 -0.3495
18791TIP3    H177788   4.283   5.527  14.183  1.2517  0.0051  0.3355
18791TIP3    H277789   4.280   5.670  14.132 -1.2877 -0.7301 -1.8118
18792TIP3   OH277790   2.613   5.333  16.519  0.4478  0.3708 -0.0304
18792TIP3    H177791   2.558   5.379  16.582  0.5445  0.5449 -0.0758
18792TIP3    H277792   2.661   5.269  16.571 -1.2187 -1.1440 -0.2309
18793TIP3   OH277793   0.623   5.084  15.508 -0.7041  0.5245  0.2502
18793TIP3    H177794   0.576   5.152  15.460  0.1528  0.0004 -1.4275
18793TIP3    H277795   0.714   5.113  15.507 -0.7796  1.0297  2.5817
18794TIP3   OH277796   1.078   4.161   1.712 -0.0789  0.4527 -0.2311
18794TIP3    H177797   0.991   4.121   1.708  0.3459 -0.4599 -0.7071
18794TIP3    H277798   1.084   4.210   1.630  0.2305 -0.3159 -0.6812
18795TIP3   OH277799   3.357   2.834  15.203 -0.3435 -0.1719  0.5687
18795TIP3    H177800   3.377   2.888  15.127 -0.7521 -0.0312  0.5583
18795TIP3    H277801   3.442   2.800  15.231  0.0670  1.1691  1.0873
18796TIP3   OH277802   5.855   2.658   2.198 -0.1292  0.3660 -0.2466
18796TIP3    H177803   5.913   2.734   2.200 -2.9523  2.6716  0.0351
18796TIP3    H277804   5.825   2.654   2.107  1.5555 -1.8045 -0.7921
18797TIP3   OH277805   6.588   0.137  14.752  0.0989 -0.8811  0.6119
18797TIP3    H177806   6.673   0.181  14.756 -0.4607  0.1522  1.5793
18797TIP3    H277807   6.524   0.208  14.756 -0.8373 -1.5651 -1.0148
18798TIP3   OH277808   0.764   0.441   5.043  0.0553  0.3290 -0.4830
18798TIP3    H177809   0.765   0.347   5.023  3.5059 -0.0116  0.5061
18798TIP3    H277810   0.813   0.448   5.125  0.7622  3.0701 -1.0440
18799TIP3   OH277811   3.254   2.898   3.199  0.1774  0.8038 -0.8712
18799TIP3    H177812   3.253   2.839   3.124  2.5354 -1.4640  0.7088
18799TIP3    H277813   3.161   2.917   3.216 -0.8318 -3.0932 -1.0896
18800TIP3   OH277814   1.542   0.789   6.152  0.1666  0.5321  0.0323
18800TIP3    H177815   1.485   0.813   6.225  0.5763  1.1062  0.1745
18800TIP3    H277816   1.485   0.744   6.090 -0.9326  2.8845 -0.7994
18801TIP3   OH277817   0.596   4.651  16.609 -0.9707 -0.5476 -0.0738
18801TIP3    H177818   0.637   4.735  16.628 -0.9681 -0.4553 -0.4803
18801TIP3    H277819   0.663   4.602  16.561 -1.1278 -0.6181 -0.2209
18802TIP3   OH277820   5.758   5.818  15.375 -0.1652  0.3067 -0.6332
18802TIP3    H177821   5.801   5.746  15.329 -1.2992 -0.4062 -0.6219
18802TIP3    H277822   5.740   5.784  15.462 -0.4969  0.6858 -0.5489
18803TIP3   OH277823   0.542   5.093  12.299  0.0700 -0.7570  0.9248
18803TIP3    H177824   0.476   5.068  12.235  2.5490 -2.1667 -1.3388
18803TIP3    H277825   0.513   5.055  12.381 -1.0746 -2.8824 -0.3881
18804TIP3   OH277826   1.219   0.398  15.130 -0.6950  0.5208 -0.6871
18804TIP3    H177827   1.130   0.396  15.095 -2.0590  0.0903  2.5075
18804TIP3    H277828   1.238   0.307  15.154  0.1389  0.7986 -0.2555
18805TIP3   OH277829   4.996   1.218  12.966 -1.4475  0.1219 -0.3293
18805TIP3    H177830   4.940   1.144  12.987 -1.5749 -0.1122 -1.4087
18805TIP3    H277831   5.084   1.181  12.957 -1.4551  0.1523 -0.5433
18806TIP3   OH277832   1.658   1.739  15.195 -0.2069 -0.4445 -0.0029
18806TIP3    H177833   1.627   1.829  15.192 -0.9385 -0.7111 -0.6479
18806TIP3    H277834   1.626   1.699  15.114  0.7112 -1.0952 -0.0601
18807TIP3   OH277835   1.324   1.540   6.031 -0.0417  0.4940 -0.4713
18807TIP3    H177836   1.364   1.591   5.961  0.8525 -0.4331 -0.6572
18807TIP3    H277837   1.355   1.580   6.112  2.5096 -1.0394 -0.5774
18808TIP3   OH277838   4.405   1.908  13.407  0.5115  0.2380  0.0467
18808TIP3    H177839   4.360   1.929  13.489 -0.0231  0.3390 -0.2609
18808TIP3    H277840   4.483   1.861  13.433 -0.3043 -0.8725  0.5546
18809TIP3   OH277841   2.761   4.399   4.376 -0.3762  0.1066  0.1638
18809TIP3    H177842   2.836   4.342   4.395 -1.2007 -1.0421  0.1126
18809TIP3    H277843   2.719   4.411   4.461 -3.3040 -3.9312 -0.4312
18810TIP3   OH277844   0.183   5.905   0.853 -0.3131 -0.5435 -0.1750
18810TIP3    H177845   0.200   5.995   0.827 -1.3755 -0.5535 -0.9732
18810TIP3    H277846   0.091   5.890   0.831  0.4485 -2.5852 -2.4755
18811TIP3   OH277847   2.417   4.337   1.067  0.7771 -0.2368 -0.6947
18811TIP3    H177848   2.463   4.255   1.087  2.5136  0.3979 -1.9497
18811TIP3    H277849   2.444   4.397   1.136 -1.5844 -0.9945  1.0675
18812TIP3   OH277850   0.126   0.187  17.194  0.1254 -0.5583  0.1261
18812TIP3    H177851   0.135   0.096  17.166 -0.6290 -1.3197  2.1493
18812TIP3    H277852   0.202   0.231  17.158  0.8011 -2.1135 -0.4505
18813TIP3   OH277853   0.486   4.765   0.039  0.4559  0.5642  0.5006
18813TIP3    H177854   0.496   4.714  -0.042 -1.7203 -1.2554  1.2892
18813TIP3    H277855   0.449   4.848   0.010 -0.2190 -0.0317 -0.4105
18814TIP3   OH277856   0.190   2.987  11.546 -0.1078  0.0364  0.0618
18814TIP3    H177857   0.101   2.956  11.562 -0.0376 -0.5486 -0.6089
18814TIP3    H277858   0.184   3.037  11.465  0.4013 -1.1667 -0.7594
18815TIP3   OH277859   2.124   5.162   5.864  0.3648 -0.0669 -0.3498
18815TIP3    H177860   2.079   5.085   5.900  0.3801  0.0207 -0.1407
18815TIP3    H277861   2.092   5.235   5.917  0.2271  0.0955 -0.6529
18816TIP3   OH277862   1.486   6.649   6.316  0.6403  0.2531  0.1238
18816TIP3    H177863   1.456   6.592   6.386  0.7377 -0.2621 -0.2514
18816TIP3    H277864   1.523   6.590   6.250  1.0651  0.7669 -0.1123
18817TIP3   OH277865   4.304   2.156   2.244 -0.0977  0.0864 -0.2859
18817TIP3    H177866   4.368   2.161   2.173 -0.5785  1.1962 -0.6503
18817TIP3    H277867   4.353   2.185   2.322 -0.5605  2.5717 -0.8583
18818TIP3   OH277868   6.445   2.282   3.419  0.2343  0.2970 -0.6339
18818TIP3    H177869   6.429   2.187   3.418  0.9471  0.1359  0.8423
18818TIP3    H277870   6.372   2.319   3.369  0.1203 -1.0412 -1.5170
18819TIP3   OH277871   4.569   4.129   4.834 -0.3462 -0.1649 -0.1774
18819TIP3    H177872   4.649   4.077   4.828 -0.5738 -0.7215  1.2177
18819TIP3    H277873   4.499   4.064   4.841 -0.6081  0.2734  1.8900
18820TIP3   OH277874   0.608   1.214   3.040  0.5227  0.0377 -0.1146
18820TIP3    H177875   0.644   1.195   3.127  2.4186 -0.8274 -1.0154
18820TIP3    H277876   0.544   1.144   3.025  0.8327 -0.3299  0.2395
18821TIP3   OH277877   5.002   0.997  12.380  0.2901 -0.2675 -0.2495
18821TIP3    H177878   5.035   0.991  12.291  1.8140 -1.1104  0.3439
18821TIP3    H277879   5.060   0.941  12.431 -0.8976 -0.2411  1.1836
18822TIP3   OH277880   2.381   6.330  13.469  0.2041  0.2462  0.0794
18822TIP3    H177881   2.388   6.286  13.554  0.0344 -0.2130 -0.1435
18822TIP3    H277882   2.289   6.325  13.446  0.3512 -0.1798 -0.4253
18823TIP3   OH277883   5.084   1.570  16.498  0.3944 -0.5190  0.2943
18823TIP3    H177884   5.072   1.486  16.542 -0.1897 -1.1086 -0.9339
18823TIP3    H277885   5.022   1.629  16.541  2.7468  0.1168  3.0801
18824TIP3   OH277886   3.770   4.270  15.978  0.2946  0.6208 -0.4201
18824TIP3    H177887   3.726   4.194  15.940 -3.0227  3.0151 -1.8747
18824TIP3    H277888   3.799   4.322  15.903  1.5773  1.2932  0.5094
18825TIP3   OH277889   3.715   5.460  13.573 -0.1772  0.0795 -0.6203
18825TIP3    H177890   3.754   5.422  13.652  1.5260  0.4757 -1.2394
18825TIP3    H277891   3.625   5.482  13.599  0.0613 -0.6533  0.9204
18826TIP3   OH277892   4.240   3.637   5.406 -0.7933 -0.0633  0.0888
18826TIP3    H177893   4.189   3.661   5.329 -0.1272 -0.7100 -0.5589
18826TIP3    H277894   4.191   3.675   5.479 -1.4577  0.5098 -0.6373
18827TIP3   OH277895   6.354   6.391  11.958 -0.3628 -0.0792  0.6114
18827TIP3    H177896   6.283   6.347  12.005  0.2603  0.3822  2.0400
18827TIP3    H277897   6.394   6.322  11.905 -1.1539 -0.5973  0.6665
18828TIP3   OH277898   5.083   0.678   1.879 -0.2115  0.8258 -0.3445
18828TIP3    H177899   5.049   0.752   1.827  1.4951  1.0500 -1.2136
18828TIP3    H277900   5.174   0.670   1.851  0.4521  0.2193  1.8481
18829TIP3   OH277901   1.301   5.215   4.918 -0.0207 -1.0635  0.6194
18829TIP3    H177902   1.252   5.187   4.841 -0.5862  1.3403  0.0005
18829TIP3    H277903   1.388   5.177   4.907 -0.3522 -1.4578 -0.7687
18830TIP3   OH277904   1.774   4.679  11.478  0.0788  1.1290 -0.2291
18830TIP3    H177905   1.790   4.745  11.544  1.2467  0.6360  0.0042
18830TIP3    H277906   1.779   4.596  11.525 -2.4853  0.8484 -0.2814
18831TIP3   OH277907   6.753   2.501  12.120  0.4013 -0.4262  0.1826
18831TIP3    H177908   6.750   2.588  12.160 -0.5336 -0.5400  0.3762
18831TIP3    H277909   6.737   2.517  12.027 -1.6232 -0.5371  0.4726
18832TIP3   OH277910   1.847   3.699  11.687  0.5032  0.3560 -0.2981
18832TIP3    H177911   1.827   3.726  11.777 -0.5381 -0.6927 -0.1974
18832TIP3    H277912   1.840   3.780  11.636 -1.7307  0.4961  0.1253
18833TIP3   OH277913   6.603   6.706  12.233  0.6139  0.0505 -0.6172
18833TIP3    H177914   6.595   6.722  12.138 -3.0790  1.1204 -0.3035
18833TIP3    H277915   6.624   6.792  12.270 -1.4508  0.4565 -0.2771
18834TIP3   OH277916   3.430   6.653  16.331 -0.2140  0.1534 -0.5101
18834TIP3    H177917   3.446   6.741  16.365 -1.3970 -0.3114  1.3575
18834TIP3    H277918   3.364   6.616  16.389 -0.2027 -1.7588 -1.6360
18835TIP3   OH277919   2.728   2.114   6.059 -0.4311 -0.2645  0.1309
18835TIP3    H177920   2.776   2.194   6.082 -1.1249  0.5312 -1.1168
18835TIP3    H277921   2.648   2.119   6.111 -1.8254  1.3485 -2.0239
18836TIP3   OH277922   4.331   4.941   3.099  0.2953  0.2664  0.6983
18836TIP3    H177923   4.350   4.860   3.051 -1.4168 -0.4773  1.1887
18836TIP3    H277924   4.242   4.929   3.133  0.4720  1.8394  1.8669
18837TIP3   OH277925   3.524   5.223  11.893  0.4076  0.2551  0.2823
18837TIP3    H177926   3.608   5.179  11.875  0.4481  0.3893  0.1364
18837TIP3    H277927   3.460   5.152  11.894  0.5220  0.1517  0.3865
18838TIP3   OH277928   3.767   2.894  13.205  0.5573 -0.8776 -0.1778
18838TIP3    H177929   3.721   2.865  13.126  0.7192 -0.7579 -0.3181
18838TIP3    H277930   3.751   2.988  13.209 -0.7103 -1.1146  0.7675
18839TIP3   OH277931   1.141   2.373  10.610 -0.0937  0.4297  0.7577
18839TIP3    H177932   1.228   2.344  10.582 -0.7499 -1.3128  0.3600
18839TIP3    H277933   1.119   2.445  10.551  0.9000  0.6159  0.5962
18840TIP3   OH277934   2.887   3.323   5.688  0.1561  0.5248  0.8680
18840TIP3    H177935   2.927   3.410   5.690  0.8605  0.3374 -1.4927
18840TIP3    H277936   2.960   3.262   5.703  0.0784  0.2919  0.3365
18841TIP3   OH277937   1.317   5.853   4.477 -0.9725 -0.1288 -0.0644
18841TIP3    H177938   1.363   5.781   4.435 -0.0403  0.9312 -0.9527
18841TIP3    H277939   1.361   5.865   4.561 -0.8122 -0.2955 -0.1253
18842TIP3   OH277940   5.319   6.243  17.112  0.3840 -0.4772  0.4744
18842TIP3    H177941   5.353   6.293  17.038 -1.7931  0.6590  0.1602
18842TIP3    H277942   5.295   6.309  17.177 -2.2595 -1.0586  0.1837
18843TIP3   OH277943   4.039   4.200   3.339  0.1953  0.4994 -0.2817
18843TIP3    H177944   3.957   4.249   3.326 -0.6050 -0.8728 -0.6057
18843TIP3    H277945   4.048   4.195   3.434 -0.1332  0.5890 -0.2420
18844TIP3   OH277946   2.975   2.005   5.936  0.5845 -0.1023  0.8274
18844TIP3    H177947   3.022   1.934   5.980 -1.7017 -2.2590  0.0960
18844TIP3    H277948   2.903   2.026   5.995 -0.1855 -0.1926 -0.0449
18845TIP3   OH277949   1.024   1.047   1.506 -0.8551  0.0381 -0.0741
18845TIP3    H177950   1.079   1.051   1.584 -2.6038 -1.2684  1.3075
18845TIP3    H277951   1.074   0.993   1.445  0.4030  0.8195  0.2409
18846TIP3   OH277952   2.922   4.735  11.650 -0.2655 -0.0257  0.1852
18846TIP3    H177953   2.868   4.758  11.574 -0.7412  0.3985  0.6392
18846TIP3    H277954   3.009   4.768  11.628 -0.8064  1.7783  0.5720
18847TIP3   OH277955   6.059   4.023   3.717 -0.2180 -0.2180  0.2389
18847TIP3    H177956   6.142   4.022   3.765  0.1237 -1.0226 -0.3512
18847TIP3    H277957   6.005   3.957   3.761 -0.2723 -0.2348  0.1462
18848TIP3   OH277958   2.225   2.588   0.259  0.0837  0.7153  0.3086
18848TIP3    H177959   2.160   2.526   0.292 -0.0654  0.6499 -0.1029
18848TIP3    H277960   2.203   2.671   0.301 -0.2330  0.6826  0.2091
18849TIP3   OH277961   5.834   0.980   4.651  0.0685 -0.6604  0.0895
18849TIP3    H177962   5.903   1.005   4.590  0.8865  0.1539  1.3163
18849TIP3    H277963   5.845   1.039   4.726 -1.9659 -0.4804  0.3200
18850TIP3   OH277964   6.697   6.412   4.515  0.0475  0.4495 -0.1520
18850TIP3    H177965   6.686   6.319   4.496  0.1784  0.3802  0.1179
18850TIP3    H277966   6.755   6.415   4.591 -1.0136  0.7051  0.6765
18851TIP3   OH277967   5.899   1.589   2.349 -0.0818 -0.3662 -0.1083
18851TIP3    H177968   5.913   1.659   2.286 -0.8544 -0.1869 -0.0813
18851TIP3    H277969   5.984   1.545   2.355  0.4298  0.6046 -0.0714
18852TIP3   OH277970   4.845   5.489  16.627  0.3820  0.0666  0.2485
18852TIP3    H177971   4.778   5.557  16.624  1.0489  0.7117 -0.2523
18852TIP3    H277972   4.921   5.528  16.584  0.8465 -0.9172  0.1532
18853TIP3   OH277973   0.655   3.789  12.816 -0.0500 -0.3625 -0.2053
18853TIP3    H177974   0.734   3.761  12.861  0.9062 -1.1511 -2.2433
18853TIP3    H277975   0.602   3.709  12.808  0.2781 -0.4747 -1.3789
18854TIP3   OH277976   5.538   1.100   5.955 -0.4575 -0.5760  0.5518
18854TIP3    H177977   5.597   1.171   5.930 -1.4398 -0.3084 -1.0936
18854TIP3    H277978   5.596   1.025   5.968  0.4161  0.1057  0.7095
18855TIP3   OH277979   3.296   1.938  12.807  0.4696  0.2838  0.1823
18855TIP3    H177980   3.367   1.967  12.750  0.1062  0.7304 -0.0475
18855TIP3    H277981   3.253   1.867  12.759  0.5659  0.2209  0.1887
18856TIP3   OH277982   0.809   5.645  14.106  0.2281 -0.1875 -0.5948
18856TIP3    H177983   0.879   5.679  14.049  1.9559 -0.6749  1.1233
18856TIP3    H277984   0.786   5.719  14.162 -1.0172  0.1124 -1.4821
18857TIP3   OH277985   6.603   3.584   5.122  0.2470  0.2686 -0.0249
18857TIP3    H177986   6.537   3.652   5.114 -1.2271 -1.1872 -0.9470
18857TIP3    H277987   6.608   3.545   5.035  0.5050 -1.2567  0.6414
18858TIP3   OH277988   4.580   2.555   5.285  0.3323 -0.7606  0.0758
18858TIP3    H177989   4.535   2.549   5.370  0.4982 -1.8602  0.0994
18858TIP3    H277990   4.661   2.602   5.304 -1.3284  2.4756 -0.2059
18859TIP3   OH277991   2.329   4.104  12.988 -0.3840  0.3249  0.1729
18859TIP3    H177992   2.295   4.183  12.946  0.3594  0.5369 -0.0343
18859TIP3    H277993   2.305   4.033  12.928 -0.5837  0.4529  0.1000
18860TIP3   OH277994   1.045   5.759  15.023 -0.4763  0.0053 -0.1244
18860TIP3    H177995   0.988   5.829  14.991 -0.0362  0.3120 -0.2429
18860TIP3    H277996   1.121   5.761  14.965 -0.3423 -0.3964  0.0365
18861TIP3   OH277997   3.806   5.043  10.689 -0.1651  0.1176 -0.0638
18861TIP3    H177998   3.883   4.988  10.706  0.1519  0.7020  0.4683
18861TIP3    H277999   3.783   5.078  10.775 -0.4928  0.6363 -0.3572
18862TIP3   OH278000   2.704   6.589   4.303 -0.5064 -0.0319 -0.4321
18862TIP3    H178001   2.782   6.643   4.298 -0.9473  0.5160 -2.3417
18862TIP3    H278002   2.670   6.603   4.392  0.9492  0.5636  0.0524
18863TIP3   OH278003   5.649   4.577  11.344  0.2350  0.5739 -0.4436
18863TIP3    H178004   5.691   4.534  11.418  4.3245 -2.3106 -3.9957
18863TIP3    H278005   5.601   4.508  11.299 -1.4200  2.0528 -1.1008
18864TIP3   OH278006   6.503   2.153   5.219 -0.0109 -0.7126 -0.2081
18864TIP3    H178007   6.491   2.143   5.124 -0.5348 -2.2881 -0.0080
18864TIP3    H278008   6.588   2.113   5.236 -0.1446 -0.8836  0.0540
18865TIP3   OH278009   3.160   1.719  11.035 -0.6739 -0.2100  0.5106
18865TIP3    H178010   3.241   1.759  11.066 -1.5385  1.5602  0.5811
18865TIP3    H278011   3.184   1.676  10.953 -0.2850  3.2067 -1.3462
18866TIP3   OH278012   2.698   1.795  15.652 -0.6379 -0.4620  0.2873
18866TIP3    H178013   2.773   1.760  15.604 -1.1896 -0.8557 -0.3043
18866TIP3    H278014   2.660   1.718  15.695  0.4622  0.0194  2.2723
18867TIP3   OH278015   0.660   1.633   4.442 -0.5417  0.4724 -0.9563
18867TIP3    H178016   0.638   1.622   4.534 -0.4807  0.5568 -0.9304
18867TIP3    H278017   0.738   1.578   4.429 -0.9347 -0.0482 -1.1180
18868TIP3   OH278018   1.945   4.972  15.476 -0.2121  0.2410 -0.4292
18868TIP3    H178019   1.999   4.995  15.551 -0.0760 -1.1188 -0.0852
18868TIP3    H278020   1.946   5.050  15.421  0.3590  0.9674  0.5862
18869TIP3   OH278021   4.904   0.299   5.696 -0.2697  0.1869 -0.4022
18869TIP3    H178022   4.815   0.329   5.714 -0.7214 -0.0833 -1.9973
18869TIP3    H278023   4.946   0.296   5.782 -1.8654  0.0950  0.4245
18870TIP3   OH278024   1.795   5.954   3.665  0.0887  0.0355  0.2552
18870TIP3    H178025   1.841   5.922   3.587 -0.8781  1.1856 -0.8228
18870TIP3    H278026   1.803   5.882   3.728  0.7018 -1.0216 -0.9728
18871TIP3   OH278027   3.486   5.285   0.528 -0.0660  0.4876 -0.4802
18871TIP3    H178028   3.454   5.194   0.534  0.5548  0.2239 -1.0615
18871TIP3    H278029   3.409   5.338   0.547 -0.1126 -0.1624  1.3736
18872TIP3   OH278030   4.669   6.538   4.478  0.1210  0.3140  0.3701
18872TIP3    H178031   4.713   6.539   4.563 -1.1938 -2.4445  1.1891
18872TIP3    H278032   4.708   6.465   4.431 -1.1931 -0.0383 -0.2055
18873TIP3   OH278033   6.480   2.828   4.426  0.1635 -0.4793 -0.1874
18873TIP3    H178034   6.550   2.878   4.383  0.4468  0.2076  1.0250
18873TIP3    H278035   6.434   2.893   4.479  0.0559 -1.3693  0.8272
18874TIP3   OH278036   3.802   5.051   3.459  0.7276 -0.3812 -0.2678
18874TIP3    H178037   3.748   5.057   3.538  0.3624 -1.1226 -0.4475
18874TIP3    H278038   3.892   5.045   3.491  0.7269  0.9341  0.0343
18875TIP3   OH278039   5.652   1.107  16.658 -0.3335  0.0095  0.0753
18875TIP3    H178040   5.664   1.199  16.636 -0.9975 -0.2436 -1.4146
18875TIP3    H278041   5.596   1.107  16.735 -0.1929  0.8495  0.1812
18876TIP3   OH278042   2.759   1.061   4.964  0.1136  0.4156  0.4185
18876TIP3    H178043   2.814   1.139   4.955 -0.4007  0.8436  0.8471
18876TIP3    H278044   2.812   1.000   5.015  0.8598  0.1328 -0.6546
18877TIP3   OH278045   5.914   4.464   3.774 -0.0151 -0.6705  0.4068
18877TIP3    H178046   5.883   4.387   3.726  1.2263  0.0252 -1.6982
18877TIP3    H278047   6.010   4.455   3.773  0.1641  0.8956  0.0328
18878TIP3   OH278048   2.133   3.620   0.194  0.3823  0.1315  0.1842
18878TIP3    H178049   2.154   3.526   0.197 -0.7569 -0.1139  1.0524
18878TIP3    H278050   2.201   3.661   0.247  0.4574 -0.2873  0.4214
18879TIP3   OH278051   3.931   5.601   1.162 -0.1408  0.3266 -0.0809
18879TIP3    H178052   4.026   5.608   1.173  0.2796 -0.7494 -2.3268
18879TIP3    H278053   3.896   5.608   1.251  2.2652 -2.4733  1.2752
18880TIP3   OH278054   5.664   1.193   1.300 -0.2327 -0.2427  0.2006
18880TIP3    H178055   5.702   1.168   1.385  1.2910  0.0242 -0.3727
18880TIP3    H278056   5.735   1.237   1.254 -1.0472 -0.3652 -1.2241
18881TIP3   OH278057   6.078   3.830  14.667 -0.3835  0.3938 -0.1989
18881TIP3    H178058   6.171   3.822  14.687 -0.6253 -0.8235  0.6087
18881TIP3    H278059   6.068   3.916  14.628  0.9077  0.9779  0.7042
18882TIP3   OH278060   5.562   3.475  15.198 -0.0046  0.1176  0.1560
18882TIP3    H178061   5.485   3.511  15.154 -0.5637 -3.5444 -2.3649
18882TIP3    H278062   5.625   3.547  15.200 -2.2436  2.2379 -0.9320
18883TIP3   OH278063   2.248   2.349  16.753 -0.3881  0.4468 -0.2622
18883TIP3    H178064   2.191   2.424  16.771  1.4423  1.3083  2.4557
18883TIP3    H278065   2.337   2.382  16.767  0.8913 -1.0094 -3.7353
18884TIP3   OH278066   1.897   5.674  11.878 -0.1828  0.2902  0.4133
18884TIP3    H178067   1.813   5.670  11.834  1.2642  1.5312 -2.7360
18884TIP3    H278068   1.903   5.592  11.927 -2.3888 -0.6509 -0.7673
18885TIP3   OH278069   4.614   4.833  14.259  0.4073  0.7163 -0.1996
18885TIP3    H178070   4.528   4.868  14.235  0.0289 -0.7693 -1.1526
18885TIP3    H278071   4.639   4.882  14.338 -0.7724  1.9855 -0.5792
18886TIP3   OH278072   5.050   1.141  11.564  0.4504  0.2907 -0.3745
18886TIP3    H178073   4.959   1.146  11.536 -0.0341 -0.4567  0.9987
18886TIP3    H278074   5.093   1.214  11.519 -1.1019  1.5037  0.0255
18887TIP3   OH278075   5.029   1.844   0.981 -0.6609  0.6486 -0.9932
18887TIP3    H178076   5.050   1.788   0.906  0.8657  1.3188 -1.1065
18887TIP3    H278077   4.934   1.836   0.992 -0.9304  0.6158 -3.0618
18888TIP3   OH278078   1.576   4.934  13.388 -0.0253 -0.0751  0.1774
18888TIP3    H178079   1.485   4.960  13.399 -0.3571 -1.0451 -0.1281
18888TIP3    H278080   1.606   4.983  13.311 -0.8580 -1.1133 -0.8399
18889TIP3   OH278081   2.955   1.739  12.262  0.0821  0.7071 -0.1497
18889TIP3    H178082   2.899   1.789  12.203 -0.0744  1.9850  1.0408
18889TIP3    H278083   2.950   1.786  12.345  2.7657  0.7723  0.0495
18890TIP3   OH278084   0.739   0.227  11.182  0.4036 -0.5836 -0.0118
18890TIP3    H178085   0.679   0.189  11.118  1.7038 -3.0284  0.0880
18890TIP3    H278086   0.803   0.276  11.130  1.2949 -2.3323 -0.6305
18891TIP3   OH278087   3.649   6.216   1.071 -0.3580 -0.0405 -0.3398
18891TIP3    H178088   3.695   6.132   1.072  1.3302  0.8247  1.0791
18891TIP3    H278089   3.693   6.267   1.003 -0.6019  0.0906 -0.4009
18892TIP3   OH278090   0.911   2.446   5.643  0.4334 -0.3245  0.1864
18892TIP3    H178091   0.937   2.365   5.687  1.1908 -0.0728  0.2089
18892TIP3    H278092   0.890   2.507   5.714 -0.0933 -0.4827  0.1702
18893TIP3   OH278093   2.238   1.085  16.485 -0.9373  0.0094 -0.2612
18893TIP3    H178094   2.209   1.007  16.439 -0.0172 -1.0623  0.9062
18893TIP3    H278095   2.163   1.110  16.540 -1.3607  0.1790 -0.9036
18894TIP3   OH278096   2.998   3.296   0.876  0.5305 -0.5079  0.3229
18894TIP3    H178097   2.990   3.306   0.781  0.7740 -3.6852 -0.1473
18894TIP3    H278098   3.088   3.323   0.896  0.2127  1.0056 -0.1506
18895TIP3   OH278099   1.278   3.917   5.194 -0.4401 -0.4542 -0.5139
18895TIP3    H178100   1.260   3.844   5.253 -2.2917  1.4844  1.5189
18895TIP3    H278101   1.330   3.977   5.246 -0.4600  0.4593 -1.5203
18896TIP3   OH278102   1.449   0.215  13.042 -0.3548 -0.3773  0.5710
18896TIP3    H178103   1.510   0.282  13.012 -0.5596 -0.1941  0.5598
18896TIP3    H278104   1.502   0.136  13.052 -0.1674 -0.2813  0.3216
18897TIP3   OH278105   5.677   6.721  16.051 -0.2714  0.2265  0.4649
18897TIP3    H178106   5.671   6.693  15.959 -0.6874 -0.7193  0.7742
18897TIP3    H278107   5.601   6.681  16.093  1.8284 -2.4258  2.0031
18898TIP3   OH278108   6.026   2.586   4.531 -0.3989 -0.1886  0.5694
18898TIP3    H178109   6.049   2.672   4.565  1.9589 -0.5558  0.1108
18898TIP3    H278110   5.986   2.603   4.446  3.5497  0.5115 -1.3981
18899TIP3   OH278111   5.239   3.622  16.203 -0.2984  0.2662 -0.1175
18899TIP3    H178112   5.250   3.529  16.182 -0.4666 -0.2526  1.8932
18899TIP3    H278113   5.177   3.623  16.276 -0.6020  2.0004 -0.3510
18900TIP3   OH278114   0.132   2.345  15.263  0.0964 -0.2804 -0.4122
18900TIP3    H178115   0.127   2.394  15.344 -0.5447 -1.0230  0.0132
18900TIP3    H278116   0.223   2.353  15.234  0.5716 -0.8241  0.8904
18901TIP3   OH278117   1.177   4.546  16.898 -0.4408 -0.4597  0.3760
18901TIP3    H178118   1.264   4.537  16.858 -0.5019 -1.5141  0.4554
18901TIP3    H278119   1.194   4.536  16.992 -0.2926  2.0239  0.6865
18902TIP3   OH278120   1.619   6.212   1.815 -0.5126 -0.4757 -0.5324
18902TIP3    H178121   1.581   6.264   1.745  0.8038  0.7369 -0.3889
18902TIP3    H278122   1.630   6.125   1.776 -3.0015 -0.7981 -0.6815
18903TIP3   OH278123   1.716   1.834  11.553 -0.0245  0.6297 -0.0307
18903TIP3    H178124   1.686   1.811  11.465  0.4496  1.0155 -0.2968
18903TIP3    H278125   1.744   1.925  11.546 -0.7524  0.9242  0.7239
18904TIP3   OH278126   6.580   1.666  13.477 -0.3879 -0.0628  1.0081
18904TIP3    H178127   6.613   1.576  13.477 -1.6022 -0.5751 -1.2498
18904TIP3    H278128   6.486   1.657  13.460 -0.4375  1.6402  0.2033
18905TIP3   OH278129   0.065   2.203   3.923  0.1464 -0.7095  0.4087
18905TIP3    H178130  -0.024   2.235   3.935 -0.2881 -0.7624 -2.1730
18905TIP3    H278131   0.120   2.266   3.970 -1.0719  0.7562 -0.0500
18906TIP3   OH278132   5.108   0.115  11.987  0.0737  0.3537  0.0489
18906TIP3    H178133   5.183   0.174  11.987 -1.0260  1.8414  1.0813
18906TIP3    H278134   5.139   0.036  12.031  1.3370  0.5105 -0.5468
18907TIP3   OH278135   5.704   4.542   5.072 -0.5693 -0.1695  0.0739
18907TIP3    H178136   5.743   4.590   5.144 -0.1244 -1.9852  1.1159
18907TIP3    H278137   5.758   4.563   4.996  0.7768 -0.4996  0.9127
18908TIP3   OH278138   2.683   4.162   2.670  0.4115  0.3622  0.3047
18908TIP3    H178139   2.617   4.094   2.659  0.0148  0.9607 -1.4308
18908TIP3    H278140   2.677   4.214   2.590  0.4168  2.6964  1.7371
18909TIP3   OH278141   1.528   2.097   0.737 -0.0374  0.2626 -0.3278
18909TIP3    H178142   1.462   2.033   0.709 -1.9327  1.5925  0.8181
18909TIP3    H278143   1.490   2.182   0.714  1.6382  1.0641 -0.2732
18910TIP3   OH278144   0.865   4.191   5.773  0.0346 -0.5010  0.0857
18910TIP3    H178145   0.917   4.147   5.706 -0.1739  0.8229 -1.0045
18910TIP3    H278146   0.862   4.130   5.846  1.1862 -1.5452 -0.7036
18911TIP3   OH278147   0.479   2.309   3.791  0.3586  0.3322  0.3536
18911TIP3    H178148   0.468   2.403   3.779  0.0287  0.2641  0.0837
18911TIP3    H278149   0.406   2.283   3.848 -0.8324 -0.0967 -1.2945
18912TIP3   OH278150   5.921   1.797  11.193  0.4484 -0.4920 -0.0977
18912TIP3    H178151   5.859   1.855  11.238  0.0312 -0.6035 -0.5292
18912TIP3    H278152   5.996   1.853  11.173  0.0272 -0.0865 -0.5595
18913TIP3   OH278153   3.789   3.579   1.782  0.1531 -0.3900 -0.0025
18913TIP3    H178154   3.867   3.627   1.754  0.0822  1.1808  2.1892
18913TIP3    H278155   3.820   3.490   1.799  1.2817 -0.0178 -0.0209
18914TIP3   OH278156   1.625   5.636  14.334  0.3390  0.5247  0.5992
18914TIP3    H178157   1.596   5.727  14.335 -0.6740  0.2337 -0.1673
18914TIP3    H278158   1.559   5.590  14.387  1.0702  0.2896  1.3278
18915TIP3   OH278159   6.613   6.524  15.645 -0.3625  0.4714  0.3449
18915TIP3    H178160   6.575   6.546  15.730 -0.5408  1.0470  0.1217
18915TIP3    H278161   6.595   6.601  15.591  1.2218  0.8125  0.2682
18916TIP3   OH278162   3.213   0.110  16.537 -0.6441  0.3872 -0.4117
18916TIP3    H178163   3.264   0.045  16.585 -1.5855  0.7250  1.1188
18916TIP3    H278164   3.267   0.189  16.539 -0.0874  0.0393 -1.1218
18917TIP3   OH278165   1.750   5.225   5.761 -0.4749  0.6438  0.4172
18917TIP3    H178166   1.731   5.174   5.683  2.4290 -0.8393  0.5575
18917TIP3    H278167   1.698   5.183   5.830 -1.0504  0.3251 -0.1948
18918TIP3   OH278168   6.168   2.850   0.557  0.2011 -0.6587  0.6007
18918TIP3    H178169   6.172   2.785   0.487  1.9253 -0.0467  0.0823
18918TIP3    H278170   6.184   2.934   0.513 -0.7152 -0.0097  1.4504
18919TIP3   OH278171   5.701   2.002  11.239  0.7349 -0.4567 -0.0810
18919TIP3    H178172   5.632   2.068  11.231  0.7885 -0.5807 -1.8093
18919TIP3    H278173   5.739   1.996  11.151  1.1678 -2.3297  0.2087
18920TIP3   OH278174   0.157   0.390  12.436  0.0441 -0.1629  0.0972
18920TIP3    H178175   0.224   0.375  12.503 -0.4099 -0.9262  0.3889
18920TIP3    H278176   0.148   0.307  12.391 -1.2282 -0.2892  0.5550
18921TIP3   OH278177   3.720   1.292   5.993  0.0483  0.0882  0.0540
18921TIP3    H178178   3.816   1.286   5.987 -0.0043  0.1228 -1.0980
18921TIP3    H278179   3.696   1.351   5.921 -1.0432 -1.9413 -1.3309
18922TIP3   OH278180   4.268   1.085   5.732  0.7034  0.3307 -0.3891
18922TIP3    H178181   4.349   1.082   5.680  1.5112  1.7278  0.7011
18922TIP3    H278182   4.298   1.088   5.822 -0.5956  0.6815  0.0505
18923TIP3   OH278183   2.831   6.149   3.556 -0.4386 -0.1203 -0.5872
18923TIP3    H178184   2.849   6.232   3.512 -0.5564  0.8421  1.0906
18923TIP3    H278185   2.800   6.174   3.643 -1.2238 -1.9222 -0.2989
18924TIP3   OH278186   5.258   2.090   0.663 -0.3733  0.2750 -0.9093
18924TIP3    H178187   5.305   2.027   0.718 -2.5415 -1.2566 -0.6869
18924TIP3    H278188   5.281   2.066   0.573 -1.7824 -1.4534 -0.8688
18925TIP3   OH278189   5.854   6.195  13.715  0.3314  0.0219  0.2791
18925TIP3    H178190   5.778   6.225  13.765  1.4846  0.6333  1.7620
18925TIP3    H278191   5.847   6.239  13.631 -1.6953 -1.0582 -0.1957
18926TIP3   OH278192   1.390   1.066   4.467 -0.0424  0.2992 -0.4379
18926TIP3    H178193   1.427   1.047   4.381 -1.2111  0.7882 -1.0616
18926TIP3    H278194   1.296   1.046   4.458 -0.3018  1.0371  0.5096
18927TIP3   OH278195   2.798   3.350   2.887  0.4563  0.4317 -0.0474
18927TIP3    H178196   2.720   3.404   2.874 -0.6929 -1.3146 -0.8564
18927TIP3    H278197   2.859   3.406   2.936 -2.1578  1.0857  2.7404
18928TIP3   OH278198   1.412   0.746  11.719 -0.6690  0.0790  0.0352
18928TIP3    H178199   1.469   0.694  11.662  1.0447  0.3852  1.3915
18928TIP3    H278200   1.405   0.830  11.675 -0.6528 -0.1846 -0.4863
18929TIP3   OH278201   5.788   1.728  11.443  0.2156 -0.0810 -0.2537
18929TIP3    H178202   5.780   1.799  11.506 -1.0519  0.6669 -1.2155
18929TIP3    H278203   5.702   1.722  11.402 -0.7024 -4.1388  1.7991
18930TIP3   OH278204   1.031   5.210   2.068  0.2076  0.3414  0.3819
18930TIP3    H178205   1.111   5.226   2.117  0.2989 -1.6193  0.9123
18930TIP3    H278206   0.962   5.205   2.134 -0.0515  0.0827  0.0943
18931TIP3   OH278207   0.281   1.330   5.638  0.9886 -0.2509 -0.2387
18931TIP3    H178208   0.197   1.286   5.619  0.3989  1.5782 -2.3560
18931TIP3    H278209   0.315   1.285   5.715 -1.5179 -1.6511  0.1609
18932TIP3   OH278210   0.663   2.240   4.017  0.5511  0.6349  0.0691
18932TIP3    H178211   0.595   2.295   3.979  0.7571 -0.6520 -2.3104
18932TIP3    H278212   0.714   2.209   3.943  2.5841  0.0120  1.6273
18933TIP3   OH278213   2.838   2.546  11.845  0.2940  0.5530  0.2494
18933TIP3    H178214   2.804   2.591  11.922 -1.6801  0.0791 -0.2722
18933TIP3    H278215   2.915   2.499  11.876 -0.1314  0.8310  1.7964
18934TIP3   OH278216   5.696   4.679   5.860 -0.7336  0.2755  0.4083
18934TIP3    H178217   5.616   4.726   5.839  0.3192  1.1082 -2.1017
18934TIP3    H278218   5.766   4.743   5.848  0.6796 -1.5552 -2.2425
18935TIP3   OH278219   2.359   4.439  16.612 -0.0172 -0.3292  0.5469
18935TIP3    H178220   2.433   4.477  16.659  1.1043 -1.7175 -0.0075
18935TIP3    H278221   2.390   4.352  16.585 -0.5915  0.3074 -2.6118
18936TIP3   OH278222   3.932   2.307   3.242 -0.0709  0.0655 -0.1704
18936TIP3    H178223   3.988   2.356   3.183 -0.1702  1.3649  0.7627
18936TIP3    H278224   3.876   2.374   3.283  0.4441 -0.6753  1.8602
18937TIP3   OH278225   3.064   2.346  14.802  0.6955  0.3570  0.3965
18937TIP3    H178226   3.138   2.286  14.792 -0.8536 -1.7171  0.7332
18937TIP3    H278227   2.988   2.295  14.776 -0.5995  2.6080 -0.5211
18938TIP3   OH278228   0.452   1.996   2.995  0.1400  0.6367  0.3976
18938TIP3    H178229   0.368   2.018   2.956  0.8150  2.0038 -0.3426
18938TIP3    H278230   0.486   2.079   3.029  1.7247  0.3416 -0.3823
18939TIP3   OH278231   5.474   0.375   0.717 -0.2781 -0.1370 -0.9127
18939TIP3    H178232   5.555   0.325   0.725 -0.4209 -0.2777 -0.3446
18939TIP3    H278233   5.483   0.421   0.633  1.2597  1.3842  0.0099
18940TIP3   OH278234   1.042   5.548  16.902  0.2661 -0.3162 -0.2610
18940TIP3    H178235   0.959   5.566  16.948  0.2939 -4.0907  1.6711
18940TIP3    H278236   1.109   5.590  16.956  0.0795 -2.8770  2.2013
18941TIP3   OH278237   1.079   1.589   3.512  0.1373 -0.5347  0.2251
18941TIP3    H178238   1.010   1.645   3.548 -0.9221 -0.3682 -1.9489
18941TIP3    H278239   1.149   1.594   3.577 -0.3403  2.4138  0.6492
18942TIP3   OH278240   4.937   0.386   1.291 -0.2171 -0.1353 -0.2734
18942TIP3    H178241   4.875   0.445   1.248 -1.2400  0.0219  1.3260
18942TIP3    H278242   4.977   0.439   1.360  0.4344 -0.7129 -0.1990
18943TIP3   OH278243   5.086   5.712  15.346 -0.0734 -0.2674  0.5130
18943TIP3    H178244   5.007   5.722  15.400 -0.4009  0.3542 -0.0672
18943TIP3    H278245   5.053   5.697  15.258  0.4555  0.5400  0.1719
18944TIP3   OH278246   1.560   5.818   0.700  0.1014 -0.2924  0.0053
18944TIP3    H178247   1.615   5.785   0.771  2.3771 -0.6285 -1.7933
18944TIP3    H278248   1.549   5.743   0.642 -0.0273  0.4731 -0.9793
18945TIP3   OH278249   6.182   1.544   4.164  0.0392  0.4717  0.8264
18945TIP3    H178250   6.210   1.464   4.207  0.9824 -0.1858 -0.9050
18945TIP3    H278251   6.214   1.535   4.074 -2.5505  1.4037 -0.2654
18946TIP3   OH278252   3.692   5.928  13.938 -0.4399  0.3112  0.1243
18946TIP3    H178253   3.690   5.867  14.011  0.4271 -0.8511 -0.7660
18946TIP3    H278254   3.716   5.874  13.863 -0.1734  1.6663 -0.8052
18947TIP3   OH278255   2.525   6.414   1.161  0.3133 -0.2312  0.6885
18947TIP3    H178256   2.484   6.407   1.248 -2.8001  0.3387 -0.5884
18947TIP3    H278257   2.503   6.331   1.119 -0.3597  0.4435 -0.3357
18948TIP3   OH278258   0.559   5.986   6.047 -0.6078 -0.8156 -0.2582
18948TIP3    H178259   0.594   5.921   6.108 -0.7544 -0.9357 -0.2986
18948TIP3    H278260   0.635   6.035   6.017 -0.2128 -2.1577 -1.6191
18949TIP3   OH278261   0.041   5.322  13.747 -0.3369 -0.3285 -0.6382
18949TIP3    H178262   0.050   5.311  13.841 -0.6817 -1.2548 -0.7009
18949TIP3    H278263   0.074   5.410  13.729  0.4830 -0.4389  0.2398
18950TIP3   OH278264   0.895   4.112   1.304  0.2754 -0.4793 -0.1709
18950TIP3    H178265   0.946   4.186   1.339  0.5636 -0.9743  0.4727
18950TIP3    H278266   0.912   4.040   1.364 -0.9418 -0.7526 -0.1270
18951TIP3   OH278267   0.832   6.710   0.908 -0.0241 -0.4220 -0.4024
18951TIP3    H178268   0.901   6.775   0.892 -0.6444  0.1739 -0.6890
18951TIP3    H278269   0.751   6.755   0.886 -0.5605 -0.9234  0.5144
18952TIP3   OH278270   1.003   4.635  16.074  0.4990 -0.2204 -0.5522
18952TIP3    H178271   0.926   4.692  16.080  1.0827  0.4558  1.2687
18952TIP3    H278272   0.989   4.584  15.994 -1.6454  0.1547 -0.4794
18953TIP3   OH278273   4.223   0.390  14.417 -0.2246 -0.6127 -0.0770
18953TIP3    H178274   4.194   0.306  14.453 -1.5321 -1.6419 -3.1553
18953TIP3    H278275   4.144   0.428  14.379  0.5838  1.4998  0.2420
18954TIP3   OH278276   1.585   4.918   5.368  0.3741  0.1840  0.2056
18954TIP3    H178277   1.603   4.925   5.274 -0.1167  1.5073  0.1894
18954TIP3    H278278   1.537   4.835   5.377 -1.0078  0.7959 -0.9758
18955TIP3   OH278279   2.223   2.599   2.121  0.0956  0.0123  0.1703
18955TIP3    H178280   2.273   2.635   2.194 -1.2624 -1.1818  1.7588
18955TIP3    H278281   2.160   2.540   2.162 -0.8220 -0.5786 -1.9718
18956TIP3   OH278282   6.596   0.004   1.032  0.0399  0.1908 -0.7932
18956TIP3    H178283   6.636  -0.031   1.112 -0.2881  1.0506 -0.2311
18956TIP3    H278284   6.652   0.077   1.008  1.7696 -1.7217 -2.9898
18957TIP3   OH278285   1.964   3.847  12.723 -0.5712  0.3557  0.1008
18957TIP3    H178286   1.985   3.763  12.682 -0.3251 -0.0587  1.0563
18957TIP3    H278287   1.923   3.823  12.806 -0.2649  1.1875  0.4973
18958TIP3   OH278288   2.070   2.204  13.231 -0.4376  0.0036 -0.2497
18958TIP3    H178289   2.031   2.236  13.150 -0.8294 -0.8143 -0.3937
18958TIP3    H278290   2.021   2.249  13.300  0.4720  1.3674 -0.4509
18959TIP3   OH278291   0.115   0.058  12.547 -0.9231 -0.4058 -0.0247
18959TIP3    H178292   0.129  -0.037  12.542 -1.0121 -0.4136 -0.1278
18959TIP3    H278293   0.036   0.074  12.495 -1.3452 -0.3706  0.6131
18960TIP3   OH278294   1.862   2.653  10.452  0.1243  0.4317 -0.1428
18960TIP3    H178295   1.831   2.585  10.513 -0.5521  0.6160 -0.2801
18960TIP3    H278296   1.802   2.648  10.378  0.8365  0.3310 -0.7317
18961TIP3   OH278297   5.131   0.953  17.151 -0.0689  0.1290 -0.3055
18961TIP3    H178298   5.139   1.015  17.079 -1.4953  0.9506  0.2158
18961TIP3    H278299   5.113   0.869  17.108  0.5726  0.3189 -0.9580
18962TIP3   OH278300   5.859   0.430  14.081 -0.3788  0.0941 -0.1277
18962TIP3    H178301   5.811   0.491  14.138 -0.6636 -1.3867  1.3161
18962TIP3    H278302   5.801   0.414  14.007 -0.3443  1.4548 -0.4658
18963TIP3   OH278303   4.748   6.564  13.399  0.3237 -0.6328 -0.3209
18963TIP3    H178304   4.755   6.652  13.436 -0.6581 -0.4810 -0.4612
18963TIP3    H278305   4.747   6.579  13.304 -3.4197 -0.4123 -0.3759
18964TIP3   OH278306   2.279   3.669  17.141 -0.1260 -0.3340 -0.3117
18964TIP3    H178307   2.304   3.686  17.050 -0.6141 -0.6639 -0.5121
18964TIP3    H278308   2.356   3.695  17.192  0.2857 -0.4764 -0.8449
18965TIP3   OH278309   0.674   4.039  11.729  0.0559  0.0882 -0.1990
18965TIP3    H178310   0.629   4.052  11.813 -1.8995 -0.4035 -1.1019
18965TIP3    H278311   0.655   3.947  11.706 -1.1089  0.7292 -2.0475
18966TIP3   OH278312   3.719   2.050  13.284  0.1306  0.1214 -0.1164
18966TIP3    H178313   3.698   2.066  13.376 -0.0794 -0.0210 -0.1378
18966TIP3    H278314   3.717   1.955  13.276  1.9098  0.0190  0.1460
18967TIP3   OH278315   6.398   3.410  16.951  0.0997  0.4452 -0.0984
18967TIP3    H178316   6.412   3.344  17.019  2.1244  0.6917 -0.1979
18967TIP3    H278317   6.358   3.484  16.997 -0.8942 -0.3230  0.2920
18968TIP3   OH278318   4.182   4.507  13.639 -0.0352  0.4842  0.1089
18968TIP3    H178319   4.152   4.433  13.586  1.2156 -0.6653  0.9524
18968TIP3    H278320   4.106   4.530  13.693 -0.3504 -0.3450  0.0261
18969TIP3   OH278321   4.350   5.596  11.085  0.0770  0.1923 -0.9488
18969TIP3    H178322   4.287   5.633  11.024  2.1736  0.5445 -3.0193
18969TIP3    H278323   4.429   5.582  11.033  1.3910 -1.2573  1.2702
18970TIP3   OH278324   5.807   4.850   1.660 -0.2936 -0.4666  0.3302
18970TIP3    H178325   5.852   4.766   1.669 -0.7592 -0.7129  0.4039
18970TIP3    H278326   5.825   4.896   1.741 -1.0345 -0.9905  0.8069
18971TIP3   OH278327   0.026   4.498  12.975 -0.5091 -0.2560  0.0622
18971TIP3    H178328  -0.006   4.437  13.042 -1.3745 -0.4097 -0.4729
18971TIP3    H278329  -0.036   4.570  12.977  0.2175  0.3745  0.3284
18972TIP3   OH278330   1.955   0.986  13.915 -0.2312 -0.5122  0.0139
18972TIP3    H178331   1.915   0.906  13.882  1.0792 -0.9164 -0.6514
18972TIP3    H278332   1.906   1.007  13.994 -0.2488 -2.2678  0.4967
18973TIP3   OH278333   3.136   0.798  14.628 -0.0897  0.5041 -0.1808
18973TIP3    H178334   3.135   0.702  14.622  0.2975  0.5233 -0.6399
18973TIP3    H278335   3.051   0.825  14.591  0.2362  0.3802 -1.0527
18974TIP3   OH278336   5.098   5.426   0.587  0.4561  0.2536  0.0777
18974TIP3    H178337   5.152   5.478   0.528 -1.3028 -0.1884 -2.0357
18974TIP3    H278338   5.008   5.439   0.557 -0.2576 -2.3414  0.7568
18975TIP3   OH278339   6.762   5.898  14.167  0.2474  0.0727  0.4897
18975TIP3    H178340   6.830   5.965  14.179  0.6267 -0.0920 -0.6727
18975TIP3    H278341   6.704   5.934  14.100  0.9140 -1.0847 -0.7491
18976TIP3   OH278342   4.799   2.078   2.629 -0.4030  0.2536 -0.2719
18976TIP3    H178343   4.718   2.100   2.676 -1.5748 -0.5626 -1.8101
18976TIP3    H278344   4.806   1.983   2.636  0.2609  0.2879 -0.4245
18977TIP3   OH278345   4.258   5.857  13.894  0.2672 -0.8158  0.7888
18977TIP3    H178346   4.312   5.814  13.828  1.1522  0.1589  0.8585
18977TIP3    H278347   4.220   5.932  13.848  0.5856 -0.3475  1.2795
18978TIP3   OH278348   2.836   6.118  14.364  0.0465 -0.0569  0.0366
18978TIP3    H178349   2.903   6.050  14.364 -0.0082 -0.1117 -0.1655
18978TIP3    H278350   2.877   6.192  14.408 -0.0029 -0.3266  0.5426
18979TIP3   OH278351   4.598   3.442   0.115 -0.0451  0.2969 -0.0023
18979TIP3    H178352   4.600   3.399   0.030 -0.1604 -1.4542  0.8457
18979TIP3    H278353   4.682   3.488   0.121  1.3797 -2.1698  0.1982
18980TIP3   OH278354   4.262   6.225  17.185  0.0294 -0.2765 -0.1265
18980TIP3    H178355   4.180   6.184  17.157 -1.2650  0.6860  2.0247
18980TIP3    H278356   4.238   6.316  17.203  1.1306 -0.3903  2.2394
18981TIP3   OH278357   0.323   1.317   4.983 -0.1697 -0.1963  0.0547
18981TIP3    H178358   0.332   1.235   5.032 -0.1031 -0.8519 -1.0269
18981TIP3    H278359   0.367   1.382   5.038  0.6014 -1.0604  0.4951
18982TIP3   OH278360   1.883   3.319  12.320 -0.2761  0.5359  0.5547
18982TIP3    H178361   1.806   3.353  12.274 -2.2178 -1.9290  1.7020
18982TIP3    H278362   1.937   3.280  12.251 -0.3907  1.6450 -0.1858
18983TIP3   OH278363   1.529   4.600   5.688  0.3973 -0.1936 -0.3141
18983TIP3    H178364   1.553   4.514   5.654  0.1893 -0.1061 -0.6969
18983TIP3    H278365   1.601   4.624   5.747 -0.3796 -1.3780  1.1739
18984TIP3   OH278366   2.586   6.577  16.084  0.8178 -0.2586  0.5413
18984TIP3    H178367   2.636   6.559  16.163  0.4158  0.3146  0.9345
18984TIP3    H278368   2.609   6.506  16.024  1.9913 -0.0748  0.7539
18985TIP3   OH278369   3.695   3.278  14.797  0.2848 -0.2939  0.1693
18985TIP3    H178370   3.642   3.199  14.797 -3.2638  1.8005 -1.7132
18985TIP3    H278371   3.690   3.310  14.707  1.1262  2.3089  0.9504
18986TIP3   OH278372   2.361   5.032  11.574  0.1765  0.0178  0.3107
18986TIP3    H178373   2.285   5.043  11.630  0.3017  0.4479  0.3979
18986TIP3    H278374   2.325   5.006  11.489  0.0340 -1.6668  0.8471
18987TIP3   OH278375   5.840   1.863   5.143  0.0692 -0.5977 -0.4217
18987TIP3    H178376   5.785   1.902   5.210  0.0030 -0.0001 -0.8149
18987TIP3    H278377   5.904   1.812   5.191 -0.1267 -0.3695  0.0862
18988TIP3   OH278378   3.472   5.827  13.412  0.5976  0.1247  0.0242
18988TIP3    H178379   3.460   5.822  13.318  0.4219  2.9073 -0.1913
18988TIP3    H278380   3.421   5.754  13.447 -0.0317 -0.4539 -1.9806
18989TIP3   OH278381   4.557   1.746  12.904  0.1407  0.2481  0.4138
18989TIP3    H178382   4.570   1.774  12.995  0.5896  1.4118  0.0077
18989TIP3    H278383   4.507   1.818  12.864  0.6435  0.1252 -0.4579
18990TIP3   OH278384   0.515   0.195   2.804  0.1844  0.3154 -0.4348
18990TIP3    H178385   0.436   0.153   2.772  0.9951 -2.0322  0.4088
18990TIP3    H278386   0.484   0.271   2.853 -1.6035 -0.8279  0.3140
18991TIP3   OH278387   6.377   4.210  13.643 -0.7141  0.2328 -0.6242
18991TIP3    H178388   6.295   4.224  13.688  0.2339 -0.0234  1.2679
18991TIP3    H278389   6.432   4.284  13.669  0.2569 -0.5562 -0.3493
18992TIP3   OH278390   6.588   3.095  11.862  0.6105 -0.3917 -0.0806
18992TIP3    H178391   6.495   3.091  11.841  1.0194 -0.9109 -1.9711
18992TIP3    H278392   6.593   3.064  11.952 -0.9100 -1.8262 -0.4317
18993TIP3   OH278393   1.711   3.001   3.346 -0.0660  0.0485 -0.0645
18993TIP3    H178394   1.690   2.909   3.360 -1.6043  0.0366 -1.9521
18993TIP3    H278395   1.722   3.037   3.434  0.9587 -1.9699  0.7187
18994TIP3   OH278396   4.001   4.070  15.309 -0.2832 -0.5402 -0.4666
18994TIP3    H178397   4.080   4.039  15.265  1.5153  2.8481  0.1181
18994TIP3    H278398   3.954   4.118  15.241 -1.6165 -1.9770 -0.6275
18995TIP3   OH278399   6.506   2.965  17.128  0.0424 -0.8887 -0.9001
18995TIP3    H178400   6.582   2.943  17.075  1.4954 -2.1075  1.5204
18995TIP3    H278401   6.492   2.889  17.183 -0.6643  0.6862  1.2374
18996TIP3   OH278402   0.679   1.593  10.407  0.0921  0.0510 -1.1159
18996TIP3    H178403   0.586   1.571  10.407  0.3836 -1.2250 -0.7668
18996TIP3    H278404   0.704   1.596  10.499  0.6380 -0.6817 -1.2327
18997TIP3   OH278405   0.767   2.319   0.618  0.0315  0.2196  0.1668
18997TIP3    H178406   0.730   2.387   0.675  0.5662  0.6247  0.0340
18997TIP3    H278407   0.694   2.259   0.603  0.0044 -0.1868  1.7050
18998TIP3   OH278408   3.912   4.924   2.952  0.3960  0.2425 -0.4750
18998TIP3    H178409   3.929   4.985   3.023  1.3419  0.3268 -0.7517
18998TIP3    H278410   3.842   4.964   2.901 -1.0125 -0.2929  0.9447
18999TIP3   OH278411   6.257   4.754  11.915  0.0751 -0.2807  0.6768
18999TIP3    H178412   6.205   4.777  11.838 -0.3855  0.1406  1.1056
18999TIP3    H278413   6.341   4.798  11.901 -0.1557  0.1499  0.6134
19000TIP3   OH278414   4.127   6.288   3.428 -0.7352  0.1465  0.0989
19000TIP3    H178415   4.119   6.278   3.333 -1.3646  1.7670 -0.0612
19000TIP3    H278416   4.120   6.382   3.442  0.6690  0.0607  1.6550
19001TIP3   OH278417   3.640   0.634  16.681 -0.0935 -0.1853  0.0063
19001TIP3    H178418   3.673   0.563  16.626 -1.7349 -0.8590 -0.1507
19001TIP3    H278419   3.712   0.696  16.685  0.2036 -0.2591 -2.6144
19002TIP3   OH278420   0.141   1.696  10.485 -0.8669 -0.2341  0.1441
19002TIP3    H178421   0.145   1.610  10.441  2.2667 -0.7569  1.1893
19002TIP3    H278422   0.048   1.714  10.494 -1.6377 -2.4844 -2.0907
19003TIP3   OH278423   5.242   1.714  14.726 -0.3365  0.7308 -0.2398
19003TIP3    H178424   5.217   1.766  14.803  1.5973  0.1728  0.8286
19003TIP3    H278425   5.180   1.641  14.726 -1.9748  2.0470 -0.7453
19004TIP3   OH278426   5.589   6.648  15.019 -0.2191 -0.1476  0.0586
19004TIP3    H178427   5.624   6.736  15.031 -1.1764  0.1906  0.5236
19004TIP3    H278428   5.582   6.614  15.108 -1.2619 -0.1096  0.0060
19005TIP3   OH278429   4.125   2.585  12.460 -0.5838  0.1681  0.4528
19005TIP3    H178430   4.211   2.547  12.476  0.9009  2.3435 -1.6644
19005TIP3    H278431   4.105   2.562  12.370 -2.4459 -0.6117  1.0274
19006TIP3   OH278432   0.708   4.409  13.089  0.4359 -0.3657 -0.1380
19006TIP3    H178433   0.685   4.317  13.102  0.2617 -0.5610 -1.6824
19006TIP3    H278434   0.623   4.455  13.090  0.4627 -0.3161 -0.1433
19007TIP3   OH278435   3.847   0.757  11.841 -0.5725  0.2326 -0.1025
19007TIP3    H178436   3.909   0.746  11.913  0.1261  0.1238 -0.7066
19007TIP3    H278437   3.893   0.720  11.765 -0.9490  1.1340 -0.7752
19008TIP3   OH278438   3.000   6.148  10.267  0.1724 -0.8671 -0.3444
19008TIP3    H178439   2.973   6.150  10.359 -1.1448 -1.3930 -0.6977
19008TIP3    H278440   2.989   6.238  10.237  1.7741 -0.4173  0.3028
19009TIP3   OH278441   4.422   5.189   4.227 -0.4948 -0.1419 -0.1580
19009TIP3    H178442   4.467   5.274   4.221 -1.3469  0.2590 -1.0961
19009TIP3    H278443   4.478   5.137   4.284  1.3861  0.1788 -1.6331
19010TIP3   OH278444   0.432   0.978   2.768 -0.1308 -0.4700 -0.0290
19010TIP3    H178445   0.380   0.898   2.759  1.1942 -1.2674 -1.0355
19010TIP3    H278446   0.457   0.980   2.861 -1.9322 -0.0392  0.4858
19011TIP3   OH278447   6.230   3.355  15.976  0.2355  0.2385 -0.0317
19011TIP3    H178448   6.282   3.312  16.044  0.5151  1.2439  0.4081
19011TIP3    H278449   6.198   3.435  16.017 -3.1456 -1.1272  0.3108
19012TIP3   OH278450   6.608   3.431   0.487  0.2167  0.5271 -0.0847
19012TIP3    H178451   6.592   3.464   0.575 -1.3135 -2.6917  0.9898
19012TIP3    H278452   6.703   3.433   0.477  0.4443  0.5607  1.8154
19013TIP3   OH278453   5.313   2.353   2.851 -0.5312  0.3957 -0.3389
19013TIP3    H178454   5.401   2.387   2.835  0.6668 -1.8789  0.8862
19013TIP3    H278455   5.257   2.431   2.852  1.6299  2.0459 -0.0906
19014TIP3   OH278456   1.946   6.152  15.497 -0.0176  0.2670  0.0090
19014TIP3    H178457   1.895   6.081  15.536 -1.4202  1.2612  0.0534
19014TIP3    H278458   2.020   6.108  15.454  0.0435 -1.0648  1.4066
19015TIP3   OH278459   1.969   1.666  15.584 -0.4846 -0.5563 -0.1562
19015TIP3    H178460   2.057   1.652  15.619 -0.6089 -2.2167 -0.4461
19015TIP3    H278461   1.936   1.579  15.565 -2.6667 -0.0918  1.0431
19016TIP3   OH278462   1.281   6.156  14.931 -0.4498 -0.4265  0.2917
19016TIP3    H178463   1.351   6.146  14.867  0.3060  0.7312  0.9026
19016TIP3    H278464   1.293   6.083  14.992  0.1325 -0.3341  0.2901
19017TIP3   OH278465   5.447   0.301  16.129 -0.6799  0.3708 -0.0458
19017TIP3    H178466   5.450   0.256  16.045  0.2688 -1.5531  0.9576
19017TIP3    H278467   5.529   0.349  16.134 -0.5722  0.1938 -0.0846
19018TIP3   OH278468   5.097   0.408   4.022  0.2172  0.0569  0.4296
19018TIP3    H178469   5.041   0.485   4.027  0.0530 -0.0912  0.8886
19018TIP3    H278470   5.091   0.367   4.108  0.1631 -0.5677  0.1422
19019TIP3   OH278471   4.865   6.050  14.651 -1.3075 -0.1073 -0.0399
19019TIP3    H178472   4.845   6.032  14.559 -0.1527  1.8756 -0.7214
19019TIP3    H278473   4.821   6.133  14.669  0.2191  0.6081  0.5502
19020TIP3   OH278474   4.783   6.108   3.542  0.4634  0.2406 -1.0825
19020TIP3    H178475   4.844   6.167   3.497  1.7181 -1.3181 -1.4974
19020TIP3    H278476   4.819   6.021   3.528 -1.4231 -0.6665 -0.6065
19021TIP3   OH278477   1.582   1.132   4.697 -0.1000 -0.0610 -0.1363
19021TIP3    H178478   1.641   1.170   4.632 -0.7823  3.4866  1.0685
19021TIP3    H278479   1.508   1.100   4.646  1.5887 -2.1616 -1.4296
19022TIP3   OH278480   3.519   1.481  12.905  0.0928  0.7416 -0.3020
19022TIP3    H178481   3.477   1.421  12.842 -1.9975  0.9177  0.8171
19022TIP3    H278482   3.603   1.440  12.925  0.3734  0.1767 -2.4310
19023TIP3   OH278483   1.915   2.472  16.949  0.0861 -0.5880  0.7481
19023TIP3    H178484   1.843   2.515  16.902 -1.5237 -1.3221  2.4410
19023TIP3    H278485   1.937   2.396  16.895 -0.1042 -0.1369  0.0184
19024TIP3   OH278486   0.484   4.928  11.969 -0.2445 -0.0433  0.2323
19024TIP3    H178487   0.402   4.924  12.018 -0.2885 -0.1421  0.1515
19024TIP3    H278488   0.477   5.008  11.917  0.2772  0.6544  1.2182
19025TIP3   OH278489   0.860   6.569  16.571 -0.0743  0.3230  0.4841
19025TIP3    H178490   0.864   6.659  16.539  0.5560  0.4037  0.7784
19025TIP3    H278491   0.935   6.525  16.530  0.7089  0.4083  1.7481
19026TIP3   OH278492   3.133   3.211   0.107  0.1863 -0.4491  0.1169
19026TIP3    H178493   3.137   3.169   0.193  0.5605 -0.6668 -0.0026
19026TIP3    H278494   3.153   3.141   0.045 -2.0251 -0.7671 -0.3117
19027TIP3   OH278495   4.257   3.303  11.680  0.4069  0.8916  0.6357
19027TIP3    H178496   4.302   3.318  11.597 -0.2009  1.6804  0.4350
19027TIP3    H278497   4.262   3.387  11.725 -0.9485  1.0443  0.5489
19028TIP3   OH278498   1.527   5.618   0.520  0.1209 -1.0301  0.4898
19028TIP3    H178499   1.563   5.642   0.434 -1.5125  1.4363  0.3895
19028TIP3    H278500   1.502   5.526   0.511 -0.6933 -0.6405 -1.9621
19029TIP3   OH278501   5.435   4.006   5.979 -0.0859 -0.7868  0.1058
19029TIP3    H178502   5.375   4.080   5.987 -0.5891 -1.2891  1.1716
19029TIP3    H278503   5.519   4.040   6.010 -0.3123 -0.6564  0.5851
19030TIP3   OH278504   3.596   2.428   3.692 -0.7314 -0.4264  0.0231
19030TIP3    H178505   3.636   2.493   3.750 -1.2455  0.8446 -0.9876
19030TIP3    H278506   3.503   2.429   3.715 -1.1162  0.7912 -1.3895
19031TIP3   OH278507   2.609   4.941  11.507 -0.2303 -0.0738  0.4218
19031TIP3    H178508   2.525   4.961  11.548 -0.7887 -0.3187 -0.5602
19031TIP3    H278509   2.637   5.023  11.467 -0.9516 -0.4224 -0.8664
19032TIP3   OH278510   1.371   5.338   1.605  0.3932  0.4932  0.2057
19032TIP3    H178511   1.397   5.412   1.662 -0.2239 -0.9441  2.4944
19032TIP3    H278512   1.343   5.270   1.666 -3.6877  0.0017 -1.9039
19033TIP3   OH278513   5.911   1.927   2.380  0.6111 -0.1896 -0.2666
19033TIP3    H178514   5.958   1.937   2.462  0.2281  1.4162 -0.2227
19033TIP3    H278515   5.980   1.915   2.314  1.1836  2.4529 -0.2541
19034TIP3   OH278516   6.540   0.877  13.987 -0.2064 -0.0840 -0.6262
19034TIP3    H178517   6.521   0.818  13.914 -0.4647  0.3267 -0.8965
19034TIP3    H278518   6.632   0.863  14.007 -0.1109 -0.1306 -1.0951
19035TIP3   OH278519   3.826   0.146  11.990  0.1861  0.0450 -0.5452
19035TIP3    H178520   3.904   0.126  12.041 -1.3781 -0.8787  1.6555
19035TIP3    H278521   3.760   0.171  12.056 -2.7216 -3.6240 -1.6992
19036TIP3   OH278522   4.835   5.577  15.200 -0.3139  0.5243  0.6532
19036TIP3    H178523   4.804   5.530  15.124 -1.5130  0.1378  1.3525
19036TIP3    H278524   4.918   5.535  15.223 -0.0416  0.5223 -0.3013
19037TIP3   OH278525   6.085   6.618   0.177 -0.5950  0.1858 -0.2814
19037TIP3    H178526   6.107   6.640   0.087 -3.1855 -0.8265 -1.2493
19037TIP3    H278527   5.989   6.619   0.180 -0.6255  1.5907  2.8518
19038TIP3   OH278528   4.108   0.232   1.069  0.1228 -0.4653 -0.5262
19038TIP3    H178529   4.061   0.300   1.116 -1.4477 -1.1782 -1.0220
19038TIP3    H278530   4.162   0.280   1.005  1.2472  0.4287  1.0150
19039TIP3   OH278531   2.772   0.519  15.935  0.1406  0.0368 -0.2564
19039TIP3    H178532   2.716   0.590  15.902  0.1842 -0.1398 -0.7190
19039TIP3    H278533   2.723   0.439  15.914 -0.3256 -0.0468  1.0522
19040TIP3   OH278534   5.051   0.002   1.393  0.1752 -0.8475 -0.3195
19040TIP3    H178535   5.011   0.063   1.331  1.8842 -0.7258 -1.3602
19040TIP3    H278536   5.091   0.058   1.459 -3.0596 -0.9733  2.0032
19041TIP3   OH278537   4.238   4.882  11.363 -0.4547  0.2355 -0.1916
19041TIP3    H178538   4.234   4.852  11.454 -0.9506  3.1716  0.8470
19041TIP3    H278539   4.191   4.814  11.314  0.1111 -1.6029  1.6463
19042TIP3   OH278540   4.048   3.877  16.231  0.7777 -0.3930  0.1671
19042TIP3    H178541   4.085   3.834  16.153  3.2307  0.2683  0.8817
19042TIP3    H278542   4.019   3.963  16.200  0.5871 -0.6033 -0.2474
19043TIP3   OH278543   4.367   4.004   3.057  0.2699 -0.2087 -0.0063
19043TIP3    H178544   4.271   4.008   3.048  0.3761 -0.6049 -1.5978
19043TIP3    H278545   4.383   3.921   3.103 -0.1452 -0.0879  0.3660
19044TIP3   OH278546   3.801   5.364   1.840 -0.0218  0.5478 -0.2434
19044TIP3    H178547   3.827   5.455   1.852  0.1408  0.5029 -0.2504
19044TIP3    H278548   3.708   5.362   1.864 -0.1787  0.8300 -0.7968
19045TIP3   OH278549   4.431   6.628   5.873  0.6184  0.3039  0.2026
19045TIP3    H178550   4.384   6.545   5.861  2.6194 -0.8801  0.2524
19045TIP3    H278551   4.429   6.643   5.968 -0.2556  0.6708  0.1452
19046TIP3   OH278552   6.018   1.005  13.350  0.1800  0.5145  0.1267
19046TIP3    H178553   6.039   1.071  13.284 -1.3290  0.6731 -0.2339
19046TIP3    H278554   5.974   1.054  13.420  1.0666  0.2246  0.8940
19047TIP3   OH278555   0.129   0.715  15.791  0.9997  0.0361  0.1400
19047TIP3    H178556   0.196   0.670  15.740  0.9888 -0.2577  0.3833
19047TIP3    H278557   0.170   0.735  15.875  0.3582 -1.4292  0.8381
19048TIP3   OH278558   4.713   0.138  15.961  0.2162 -0.0276  0.3921
19048TIP3    H178559   4.666   0.219  15.941  0.9168  0.4607  0.6933
19048TIP3    H278560   4.783   0.133  15.896 -0.7066 -1.1716 -0.5654
19049TIP3   OH278561   2.584   4.273  13.107  0.2492 -0.3435  0.0615
19049TIP3    H178562   2.524   4.340  13.139 -2.3643 -1.1131 -2.8003
19049TIP3    H278563   2.561   4.195  13.157 -1.7972 -0.8236 -1.5151
19050TIP3   OH278564   4.235   0.391   6.623  0.5981  0.0922 -0.0498
19050TIP3    H178565   4.327   0.400   6.600 -0.0687 -0.6187 -3.5512
19050TIP3    H278566   4.207   0.310   6.581 -1.6031  0.1906  1.0629
19051TIP3   OH278567   6.220   2.427  10.478  0.1548  0.4526 -0.0397
19051TIP3    H178568   6.236   2.511  10.436  0.6001  0.7042  0.6046
19051TIP3    H278569   6.141   2.394  10.437  0.6762  0.5909 -1.2066
19052TIP3   OH278570   2.469   1.524   1.464  0.4048  0.1092 -0.4474
19052TIP3    H178571   2.489   1.457   1.529  1.9950  2.1250  1.2837
19052TIP3    H278572   2.392   1.570   1.499  2.0318  2.0362  0.8316
19053TIP3   OH278573   3.075   1.527   0.033 -0.0380 -0.0631 -0.0491
19053TIP3    H178574   3.033   1.480  -0.039 -1.2013  0.3360  0.3445
19053TIP3    H278575   3.016   1.514   0.108  2.0803 -2.1317  1.4157
19054TIP3   OH278576   5.711   6.131  16.949 -0.6087 -0.0413 -0.1434
19054TIP3    H178577   5.783   6.091  16.899 -0.4842  1.3531 -1.1361
19054TIP3    H278578   5.726   6.101  17.039  0.4835 -0.7985 -0.5463
19055TIP3   OH278579   0.205   0.527   3.995 -0.0427  0.7176 -0.4652
19055TIP3    H178580   0.176   0.437   4.007  1.6652  0.1666 -0.1737
19055TIP3    H278581   0.220   0.560   4.084 -0.3456  1.1940 -0.5834
19056TIP3   OH278582   6.415   0.338  11.408  0.6039  0.0721 -0.0798
19056TIP3    H178583   6.435   0.308  11.496  0.9445 -2.6942 -1.0175
19056TIP3    H278584   6.325   0.371  11.415  1.0108  0.9815  1.4945
19057TIP3   OH278585   3.727   5.009  12.781  0.0268  0.5944  0.1465
19057TIP3    H178586   3.786   5.063  12.728  0.0646  0.0959 -0.3275
19057TIP3    H278587   3.751   4.919  12.759 -0.0500  0.3843  0.9162
19058TIP3   OH278588   1.717   6.694   5.412 -0.2163 -0.4553  0.0955
19058TIP3    H178589   1.655   6.740   5.468 -0.5466  0.5257 -1.0460
19058TIP3    H278590   1.664   6.654   5.344  0.1544 -1.8878  0.6060
19059TIP3   OH278591   3.102   5.811  11.742 -0.3484  0.0110 -0.1459
19059TIP3    H178592   3.066   5.741  11.796 -0.8076  1.8965  2.1993
19059TIP3    H278593   3.071   5.793  11.654 -3.0433 -1.0732  0.9213
19060TIP3   OH278594   0.869   6.424  13.723 -0.0155 -0.4533 -0.3435
19060TIP3    H178595   0.939   6.435  13.658 -1.0671 -3.7837 -2.3026
19060TIP3    H278596   0.795   6.472  13.686  0.0017 -0.5454 -0.4997
19061TIP3   OH278597   1.509   3.174  14.945 -0.2669  0.9653  0.2384
19061TIP3    H178598   1.431   3.119  14.954 -0.5547  1.0589 -1.3038
19061TIP3    H278599   1.582   3.112  14.947 -0.5987  0.4326 -1.7324
19062TIP3   OH278600   0.031   6.688   3.529 -0.5295  0.3947 -0.7789
19062TIP3    H178601  -0.004   6.712   3.444  0.8703  1.3621 -1.1229
19062TIP3    H278602   0.082   6.608   3.513  2.6115  2.4183 -1.6635
19063TIP3   OH278603   2.268   3.965   6.092  0.0370 -0.2077 -0.3443
19063TIP3    H178604   2.309   3.935   6.011  0.9248  0.2207 -0.0689
19063TIP3    H278605   2.308   4.050   6.109  0.6602 -0.7537  1.0923
19064TIP3   OH278606   6.608   4.801   5.004  0.6816 -0.0462  0.7945
19064TIP3    H178607   6.557   4.749   5.065 -0.7913  0.5664  0.1238
19064TIP3    H278608   6.587   4.764   4.918  0.6314  0.8033  0.4301
19065TIP3   OH278609   4.075   4.486  11.907 -0.1363  0.2890  0.4746
19065TIP3    H178610   4.164   4.515  11.891  0.1033 -1.2570 -1.3228
19065TIP3    H278611   4.085   4.404  11.956 -0.6184  0.5219  0.9841
19066TIP3   OH278612   6.385   0.619   0.427  0.0627 -0.1586  0.1306
19066TIP3    H178613   6.420   0.549   0.482 -0.6606  0.0715  0.9087
19066TIP3    H278614   6.462   0.672   0.404  0.4150 -0.4167  0.6969
19067TIP3   OH278615   5.934   1.434   3.464 -0.2919  0.5903  0.5260
19067TIP3    H178616   5.840   1.451   3.472 -0.1733  0.5698  2.3262
19067TIP3    H278617   5.966   1.430   3.554  1.6482  1.6898 -0.0567
19068TIP3   OH278618   4.799   2.299   1.698  0.1742  0.0863  0.2415
19068TIP3    H178619   4.823   2.211   1.726  0.3816  0.4104  1.0971
19068TIP3    H278620   4.875   2.329   1.647 -0.5006 -0.7761 -1.3589
19069TIP3   OH278621   2.598   1.048   3.608 -0.1353 -0.2937  0.2337
19069TIP3    H178622   2.596   1.144   3.607 -1.6435 -0.2963 -1.0308
19069TIP3    H278623   2.506   1.022   3.602  0.3060 -1.8179 -0.3075
19070TIP3   OH278624   2.111   2.543  10.458 -0.5043  0.2088  0.1346
19070TIP3    H178625   2.030   2.595  10.454 -0.4526  0.2351 -0.9133
19070TIP3    H278626   2.084   2.457  10.425 -0.4976 -0.3230  1.4728
19071TIP3   OH278627   2.809   0.610  13.090  0.4056  0.5214  0.9194
19071TIP3    H178628   2.898   0.609  13.056  0.3054  0.2193  0.6547
19071TIP3    H278629   2.777   0.698  13.072  0.3993  0.4046  0.3406
19072TIP3   OH278630   0.055   1.580  11.848 -0.3312  0.0611 -0.4873
19072TIP3    H178631   0.014   1.659  11.815 -0.7598 -0.5335 -1.4075
19072TIP3    H278632   0.012   1.509  11.801  0.3976 -0.6937 -0.0427
19073TIP3   OH278633   4.707   5.740   3.917  0.3316  0.0561  0.2882
19073TIP3    H178634   4.685   5.660   3.964 -0.1036 -0.6887 -1.1126
19073TIP3    H278635   4.634   5.800   3.936  0.5266  0.0357  1.1302
19074TIP3   OH278636   4.036   4.625  15.696 -0.2728 -0.3765  0.0794
19074TIP3    H178637   4.018   4.718  15.713  1.4518  0.1330 -0.6422
19074TIP3    H278638   4.072   4.624  15.608 -0.7106 -1.8164 -0.1009
19075TIP3   OH278639   0.262   1.742   2.265  0.2342 -0.5114  0.3228
19075TIP3    H178640   0.248   1.689   2.343 -0.9944  1.6631  1.6924
19075TIP3    H278641   0.259   1.680   2.192  0.2190 -2.4461  1.9043
19076TIP3   OH278642   1.091   3.157  15.057  0.6616  0.7729  0.4838
19076TIP3    H178643   1.144   3.237  15.063  0.4106  0.9800 -0.0006
19076TIP3    H278644   1.019   3.172  15.118 -0.2363  1.5920 -0.7259
19077TIP3   OH278645   5.764   5.523  14.011 -0.2375  0.6042  0.0152
19077TIP3    H178646   5.684   5.494  13.968  1.2870 -1.5395 -1.6165
19077TIP3    H278647   5.761   5.484  14.098  0.2843 -2.0276 -1.0489
19078TIP3   OH278648   4.549   2.976  10.905  0.0772 -0.0055 -0.0910
19078TIP3    H178649   4.590   3.042  10.961  1.8550 -0.1329 -1.1685
19078TIP3    H278650   4.569   2.893  10.946 -1.2646  0.0357  0.6998
19079TIP3   OH278651   1.259   3.109   2.994  0.7312  0.2937 -0.7766
19079TIP3    H178652   1.202   3.081   3.066 -1.0198  0.9638 -1.8525
19079TIP3    H278653   1.267   3.204   3.005  1.5163  0.2367 -0.7604
19080TIP3   OH278654   2.644   5.751  16.890  1.3267  0.2509 -0.0445
19080TIP3    H178655   2.620   5.737  16.799  2.0536 -0.2939 -0.1612
19080TIP3    H278656   2.737   5.730  16.894  1.3783  0.5756  0.7591
19081TIP3   OH278657   2.199   2.143  14.824 -0.5354 -0.3912 -0.1773
19081TIP3    H178658   2.194   2.158  14.729  1.2342  1.1558 -0.0835
19081TIP3    H278659   2.240   2.057  14.831 -0.7053 -0.5343 -0.8085
19082TIP3   OH278660   2.109   0.155   1.076 -0.0187 -0.0404 -0.7881
19082TIP3    H178661   2.142   0.244   1.087 -0.8284  0.1867 -0.0903
19082TIP3    H278662   2.016   0.161   1.098  0.1510 -1.2695  0.3910
19083TIP3   OH278663   0.087   5.927  15.893 -0.4331 -0.8059  0.0223
19083TIP3    H178664   0.178   5.957  15.885 -0.7546  0.7531  1.6839
19083TIP3    H278665   0.056   5.922  15.802  1.0978 -0.6856 -0.5402
19084TIP3   OH278666   1.988   4.333  13.790  0.2466  0.3519  1.0484
19084TIP3    H178667   2.046   4.374  13.855 -0.4106  0.8868  1.3097
19084TIP3    H278668   1.900   4.342  13.828  0.0393 -0.8869  0.8882
19085TIP3   OH278669   6.531   5.154   1.778 -0.0746  0.1928  0.0711
19085TIP3    H178670   6.611   5.107   1.755  1.3711  3.1807 -1.6148
19085TIP3    H278671   6.535   5.234   1.726 -2.2160  2.3251  2.8965
19086TIP3   OH278672   1.572   3.041  16.749 -1.0145 -0.6466 -0.1385
19086TIP3    H178673   1.655   3.087  16.765  0.2047 -1.4434 -3.3597
19086TIP3    H278674   1.505   3.099  16.786  0.8923 -0.1489  2.9381
19087TIP3   OH278675   0.407   5.236   1.705  0.3573 -0.0261  0.3353
19087TIP3    H178676   0.457   5.159   1.678  0.5162  0.4734 -0.8300
19087TIP3    H278677   0.358   5.262   1.627  0.7947  1.4411  0.5232
19088TIP3   OH278678   0.389   1.910  14.616 -0.2249 -0.0670 -0.6217
19088TIP3    H178679   0.312   1.966  14.629  0.1602  0.1511  0.8801
19088TIP3    H278680   0.379   1.876  14.527 -0.9014  1.7332 -1.2920
19089TIP3   OH278681   0.388   3.718   5.534  0.2382  0.0591  0.2626
19089TIP3    H178682   0.315   3.668   5.569  0.1527  0.3055  0.4378
19089TIP3    H278683   0.398   3.687   5.444 -0.7940  0.8072 -0.1243
19090TIP3   OH278684   3.251   3.121   0.402 -0.5742 -0.1780  0.3410
19090TIP3    H178685   3.298   3.124   0.485  0.0278  1.4336 -0.0098
19090TIP3    H278686   3.249   3.028   0.378  2.7250 -0.3273  0.2413
19091TIP3   OH278687   4.580   3.876  14.273 -0.1678 -0.3647 -0.0069
19091TIP3    H178688   4.671   3.904  14.271 -0.2131 -0.0047  1.5079
19091TIP3    H278689   4.572   3.815  14.200  2.0378 -2.6136  1.4429
19092TIP3   OH278690   2.099   6.138   0.182  0.0797  0.2518  0.1863
19092TIP3    H178691   2.007   6.148   0.158  0.7206  1.1614 -2.1014
19092TIP3    H278692   2.134   6.227   0.183  0.6229  0.0928  2.6786
19093TIP3   OH278693   4.359   3.133  14.050 -0.8251 -0.6863 -0.0168
19093TIP3    H178694   4.445   3.094  14.069  0.3448  0.8404 -1.8616
19093TIP3    H278695   4.297   3.076  14.097  0.8293 -4.0901 -1.5556
19094TIP3   OH278696   0.463   3.900  15.923  0.1358 -0.2776 -0.0432
19094TIP3    H178697   0.507   3.981  15.899  1.7515 -0.6654  1.3696
19094TIP3    H278698   0.421   3.870  15.842 -0.6332  1.9925 -0.5656
19095TIP3   OH278699   5.197   2.036   2.445 -0.3427  0.0588 -0.3133
19095TIP3    H178700   5.288   2.068   2.441 -0.8713  1.5648 -1.2944
19095TIP3    H278701   5.205   1.946   2.477  1.3786  0.6051  0.9442
19096TIP3   OH278702   6.722   5.551   2.267  0.3315 -0.0715 -0.1953
19096TIP3    H178703   6.806   5.584   2.235  0.6310 -1.8592 -1.3740
19096TIP3    H278704   6.718   5.461   2.236 -1.3951 -0.4833  1.0902
19097TIP3   OH278705   4.759   2.542   0.982  0.3704 -0.0968 -0.7232
19097TIP3    H178706   4.779   2.635   0.974 -1.0007  0.1546 -1.4901
19097TIP3    H278707   4.678   2.530   0.933 -0.3050 -1.4280  0.6379
19098TIP3   OH278708   5.308   5.662  11.141  0.1815 -0.0974 -0.0131
19098TIP3    H178709   5.353   5.650  11.057 -0.2222  1.2221 -0.4398
19098TIP3    H278710   5.215   5.665  11.119  0.1742  2.9699  0.0679
19099TIP3   OH278711   5.243   0.847  14.228  0.5641  0.2311  0.7116
19099TIP3    H178712   5.221   0.754  14.238 -0.5859  0.3797 -0.2231
19099TIP3    H278713   5.333   0.854  14.258  0.8543 -1.3042  0.2786
19100TIP3   OH278714   3.057   2.210   1.945  0.9309 -0.0216 -0.0413
19100TIP3    H178715   3.148   2.180   1.947  0.3947 -1.9598 -1.2244
19100TIP3    H278716   3.051   2.263   1.866  0.9933 -0.0512 -0.0664
19101TIP3   OH278717   2.428   3.654   0.255 -0.1719  0.0315 -0.3704
19101TIP3    H178718   2.518   3.686   0.260 -0.0555 -0.4215  0.7801
19101TIP3    H278719   2.438   3.559   0.242 -0.4372 -0.2715  1.4054
19102TIP3   OH278720   3.384   2.032   3.744  0.2064 -0.2091  0.5964
19102TIP3    H178721   3.313   2.049   3.805  0.3473 -2.0835  1.3450
19102TIP3    H278722   3.420   1.948   3.772  2.9517  0.8270  0.4781
19103TIP3   OH278723   2.355   1.142   1.512  0.2219 -0.4977  0.4022
19103TIP3    H178724   2.322   1.052   1.508 -0.4026 -0.3546  1.6721
19103TIP3    H278725   2.292   1.193   1.461 -0.2595 -0.5702  0.9147
19104TIP3   OH278726   0.733   5.897  15.326 -0.5613  0.4174 -0.4048
19104TIP3    H178727   0.738   5.940  15.412  0.2442 -1.3007  0.4654
19104TIP3    H278728   0.824   5.876  15.305 -0.9917 -1.9306 -0.1720
19105TIP3   OH278729   2.988   1.153   1.313 -0.0648 -0.0316  0.1469
19105TIP3    H178730   2.945   1.236   1.295  0.9075  0.7164  1.0569
19105TIP3    H278731   3.082   1.174   1.310  0.2197 -1.3324 -0.6349
19106TIP3   OH278732   2.175   2.582  16.962 -0.2344 -0.0028  0.1529
19106TIP3    H178733   2.079   2.584  16.964 -0.2181  0.2394  0.7896
19106TIP3    H278734   2.200   2.552  17.050  0.2282 -1.8952 -0.5725
19107TIP3   OH278735   0.115   5.830   0.372  0.0608  0.8007 -0.4698
19107TIP3    H178736   0.062   5.760   0.410  1.0200 -0.3777 -1.2626
19107TIP3    H278737   0.197   5.828   0.421  0.2697  1.0781 -0.8049
19108TIP3   OH278738   2.325   0.553   5.392  0.7087  0.4114 -0.8067
19108TIP3    H178739   2.259   0.599   5.339  0.3151  0.3084 -0.4151
19108TIP3    H278740   2.356   0.483   5.334 -0.4908 -0.3698 -0.5534
19109TIP3   OH278741   0.691   0.113  13.322  0.4331  0.4385 -0.3463
19109TIP3    H178742   0.642   0.189  13.354 -0.1422  0.6112 -1.5723
19109TIP3    H278743   0.641   0.083  13.245  0.7620 -1.0562 -0.0085
19110TIP3   OH278744   2.135   2.492   3.775 -0.4367  0.3433 -0.1110
19110TIP3    H178745   2.076   2.558   3.741  0.6337  1.4376  0.0998
19110TIP3    H278746   2.222   2.524   3.753  0.1050 -1.1555 -0.2877
19111TIP3   OH278747   0.440   5.626   3.179  0.1839 -0.5201  0.1493
19111TIP3    H178748   0.458   5.532   3.174  2.3474 -0.3146  2.2275
19111TIP3    H278749   0.526   5.667   3.175 -0.6785  1.3631 -0.0776
19112TIP3   OH278750   4.168   1.262  12.309  0.0081 -0.3702 -0.1493
19112TIP3    H178751   4.143   1.351  12.336 -0.0004 -0.1492 -0.8626
19112TIP3    H278752   4.091   1.229  12.262  0.7312  0.0011 -1.6260
19113TIP3   OH278753   4.539   5.209  15.410  0.6199 -0.4369 -0.1582
19113TIP3    H178754   4.506   5.287  15.455  0.2816  0.3172 -1.6612
19113TIP3    H278755   4.500   5.136  15.457  1.7701  0.2224  1.9502
19114TIP3   OH278756   1.446   3.098   3.557 -0.5534 -0.1654  0.5818
19114TIP3    H178757   1.533   3.135   3.570  0.5716 -2.4279  0.0672
19114TIP3    H278758   1.431   3.105   3.462  0.3688 -2.2668  0.2149
19115TIP3   OH278759   2.596   2.075   3.887 -0.1148 -0.5153 -0.4830
19115TIP3    H178760   2.504   2.089   3.906  0.0164 -0.1352 -0.1058
19115TIP3    H278761   2.620   1.997   3.937 -0.4389 -1.1370 -1.2694
19116TIP3   OH278762   1.794   4.673   2.339  0.4549 -0.6964 -0.3225
19116TIP3    H178763   1.862   4.740   2.349  0.2571 -0.5757  0.2281
19116TIP3    H278764   1.804   4.643   2.248 -0.8397  1.5733 -1.3022
19117TIP3   OH278765   5.212   2.104  16.075 -0.2713 -0.3126  0.1330
19117TIP3    H178766   5.217   2.023  16.024  1.8604 -1.6541  2.2582
19117TIP3    H278767   5.277   2.161  16.036 -0.5538 -0.2807 -0.2973
19118TIP3   OH278768   5.933   1.913   3.952 -0.1986 -0.2245  1.2789
19118TIP3    H178769   5.867   1.854   3.989  0.4622 -1.0973  1.0771
19118TIP3    H278770   5.973   1.864   3.881 -0.2738  0.8221  0.4842
19119TIP3   OH278771   2.047   1.598   2.489 -0.0144  0.5498 -0.1092
19119TIP3    H178772   2.141   1.597   2.472  0.0023  1.6313 -0.1007
19119TIP3    H278773   2.010   1.652   2.419 -0.7169 -0.4047 -0.4968
19120TIP3   OH278774   1.803   3.175  15.564  0.4190  0.0251 -0.3540
19120TIP3    H178775   1.868   3.160  15.495 -0.5475 -0.6157 -1.1513
19120TIP3    H278776   1.853   3.168  15.646  1.3124 -0.6326 -0.9345
19121TIP3   OH278777   3.918   4.708  12.279  0.5237  0.1909  0.1372
19121TIP3    H178778   3.904   4.750  12.195  2.0687  0.3225 -0.0676
19121TIP3    H278779   3.999   4.745  12.313  2.2179 -2.8225 -0.2401
19122TIP3   OH278780   6.501   0.972  11.858  0.1288 -0.2959  0.0870
19122TIP3    H178781   6.506   0.889  11.809  0.5703 -1.0987  1.4467
19122TIP3    H278782   6.422   0.963  11.911  1.3735 -0.8565  1.9452
19123TIP3   OH278783   2.965   3.881   0.528 -0.2321 -0.4504 -0.2712
19123TIP3    H178784   2.958   3.940   0.453  0.9356  0.9469  0.6632
19123TIP3    H278785   2.926   3.799   0.497 -0.0436  0.1543 -2.3000
19124TIP3   OH278786   3.482   1.034   4.344  0.7544  0.6367 -0.6301
19124TIP3    H178787   3.452   0.966   4.404  0.8013  1.5061  0.3949
19124TIP3    H278788   3.411   1.043   4.280 -0.1770  1.0831  0.4470
19125TIP3   OH278789   6.252   1.006  17.115  0.3232 -0.0923 -0.5545
19125TIP3    H178790   6.267   1.097  17.088  0.5388 -0.4373 -1.6340
19125TIP3    H278791   6.305   0.954  17.055  1.2197 -0.8891  0.8543
19126TIP3   OH278792   3.615   0.737  16.092 -0.0574 -0.0651 -0.1077
19126TIP3    H178793   3.610   0.642  16.081 -0.2979 -0.0845  0.1527
19126TIP3    H278794   3.571   0.773  16.015  0.3739 -0.1551 -0.4001
19127TIP3   OH278795   2.865   6.446  11.778  0.2225 -0.3288 -0.9654
19127TIP3    H178796   2.918   6.402  11.712  1.7407  0.0594 -0.0747
19127TIP3    H278797   2.917   6.523  11.803 -0.0397 -0.7440  1.0197
19128TIP3   OH278798   3.679   1.619   4.821 -0.1995  0.4733  0.0154
19128TIP3    H178799   3.736   1.613   4.898  0.4218  0.9783 -0.3949
19128TIP3    H278800   3.638   1.705   4.829 -0.3938  0.3867 -0.0473
19129TIP3   OH278801   5.858   5.343  10.927 -0.1429 -0.7486 -0.2718
19129TIP3    H178802   5.787   5.391  10.883 -0.6979 -0.5867  0.7611
19129TIP3    H278803   5.931   5.405  10.929 -0.0385 -0.8376 -1.1567
19130TIP3   OH278804   1.694   5.562  13.257 -0.3999  0.0541  0.1339
19130TIP3    H178805   1.619   5.527  13.305 -1.1640 -0.4295 -1.3581
19130TIP3    H278806   1.712   5.646  13.299  0.4980 -1.3580  2.7819
19131TIP3   OH278807   2.566   6.772   3.641 -0.0762  0.3592  0.0976
19131TIP3    H178808   2.508   6.755   3.567 -1.0319  2.7029  0.2133
19131TIP3    H278809   2.527   6.724   3.714 -0.0640 -0.6099 -0.5106
19132TIP3   OH278810   2.204   6.058   1.000 -0.8170 -0.3798  0.0035
19132TIP3    H178811   2.212   5.963   1.004  0.5286 -0.4127 -2.0489
19132TIP3    H278812   2.164   6.076   0.915  0.2853  0.9093 -0.2921
19133TIP3   OH278813   4.053   2.444   0.472 -0.1577  0.6754  0.0429
19133TIP3    H178814   4.125   2.464   0.412 -0.8890  1.1737 -0.6928
19133TIP3    H278815   3.975   2.475   0.427 -0.6729  1.6147  1.5083
19134TIP3   OH278816   4.788   1.625   1.655  0.5132 -0.1668 -0.0116
19134TIP3    H178817   4.712   1.625   1.596  0.3308  0.5755  0.2089
19134TIP3    H278818   4.752   1.648   1.741  1.1104  1.2803 -0.1125
19135TIP3   OH278819   0.127   5.111   3.724 -0.2235 -0.0077 -0.1540
19135TIP3    H178820   0.153   5.176   3.658 -1.7180  0.3828 -0.4202
19135TIP3    H278821   0.041   5.080   3.693 -0.8092 -0.0440  1.4337
19136TIP3   OH278822   1.176   4.189  16.124  0.5551  0.4474  0.9360
19136TIP3    H178823   1.193   4.097  16.146 -3.2816 -1.4044 -2.4534
19136TIP3    H278824   1.224   4.202  16.042  0.7982  1.4151  1.2234
19137TIP3   OH278825   4.125   4.504  11.047  0.0454 -0.0176  0.3885
19137TIP3    H178826   4.080   4.460  10.975 -1.5825  2.3919 -0.1991
19137TIP3    H278827   4.215   4.515  11.016 -0.8780  2.0474 -1.9409
19138TIP3   OH278828   0.878   6.549   3.237  0.0913  0.8476  0.2776
19138TIP3    H178829   0.879   6.461   3.201 -0.1808  0.4877  1.1232
19138TIP3    H278830   0.941   6.547   3.309  0.5855  1.5341 -0.1184
19139TIP3   OH278831   0.976   6.024  12.504 -0.0923 -0.2886 -0.2834
19139TIP3    H178832   0.996   6.006  12.596  2.1298  2.4665 -0.0680
19139TIP3    H278833   0.907   6.090  12.507 -0.2808 -0.4694 -0.5999
19140TIP3   OH278834   0.197   2.125  15.715 -0.3484  0.4334 -0.6793
19140TIP3    H178835   0.196   2.031  15.698 -0.0680  0.1499  0.7906
19140TIP3    H278836   0.227   2.134  15.805  1.0553  2.0162 -1.2453
19141TIP3   OH278837   4.834   4.683  16.450  0.3696 -0.2903 -0.5615
19141TIP3    H178838   4.809   4.642  16.533 -2.0242 -0.4536 -1.2778
19141TIP3    H278839   4.889   4.617  16.407 -0.0371 -1.0476  0.0375
19142TIP3   OH278840   0.924   0.721  12.003  0.3095 -0.3772  0.0826
19142TIP3    H178841   0.955   0.731  12.093 -1.2373  0.6967  0.5572
19142TIP3    H278842   1.001   0.736  11.949  1.3617 -1.4516  1.2238
19143TIP3   OH278843   1.680   1.047  13.614 -0.1257 -0.1743  0.1554
19143TIP3    H178844   1.755   1.095  13.649  0.6831 -0.6780 -0.8350
19143TIP3    H278845   1.659   1.092  13.532  0.9801 -1.7559 -1.0702
19144TIP3   OH278846   3.414   3.608  15.430 -0.1141  0.2712  0.1269
19144TIP3    H178847   3.428   3.693  15.472  1.3190 -0.3651  1.0385
19144TIP3    H278848   3.476   3.606  15.357  0.6281 -0.3751  0.7501
19145TIP3   OH278849   6.134   1.315  14.946 -0.1776  0.3885 -0.1726
19145TIP3    H178850   6.193   1.379  14.985 -0.3653  0.6840 -0.3712
19145TIP3    H278851   6.191   1.260  14.892  0.3848 -1.1580  1.8703
19146TIP3   OH278852   2.451   1.250   0.798 -0.1847  0.4790  0.0294
19146TIP3    H178853   2.431   1.309   0.871  0.0572 -0.7625  1.1481
19146TIP3    H278854   2.501   1.179   0.838 -0.2651 -0.3695 -1.3086
19147TIP3   OH278855   0.898   2.608  12.145 -0.1252 -0.0418 -0.2830
19147TIP3    H178856   0.952   2.584  12.069 -0.4145 -0.3480 -0.3972
19147TIP3    H278857   0.911   2.702  12.156  1.4978 -0.3250  0.5225
19148TIP3   OH278858   2.448   5.193  14.305  0.1340 -0.4271 -0.1779
19148TIP3    H178859   2.386   5.266  14.312 -0.7461 -1.0065 -1.5300
19148TIP3    H278860   2.426   5.152  14.222  2.3247 -0.6964 -0.6680
19149TIP3   OH278861   1.447   3.472   1.390 -0.6316  0.2452  0.1623
19149TIP3    H178862   1.427   3.546   1.448 -2.0283  0.7604 -0.9251
19149TIP3    H278863   1.469   3.512   1.306  3.7246 -0.3520  0.8055
19150TIP3   OH278864   5.637   4.353  16.530 -0.0035  0.1671  0.3660
19150TIP3    H178865   5.722   4.365  16.488  1.2877  0.7929  2.9264
19150TIP3    H278866   5.627   4.258  16.537 -0.3330  0.0476 -1.4162
19151TIP3   OH278867   5.792   6.773   1.280  0.1392  0.4336  1.0827
19151TIP3    H178868   5.777   6.718   1.203  0.0359  1.6832  0.1968
19151TIP3    H278869   5.852   6.721   1.334 -0.5137 -0.8600  0.6227
19152TIP3   OH278870   6.473   2.542   2.906 -0.2220 -0.6287 -0.0338
19152TIP3    H178871   6.567   2.553   2.915 -0.1736 -1.5408  0.7226
19152TIP3    H278872   6.451   2.468   2.963 -1.5367  0.1764  0.5581
19153TIP3   OH278873   3.146   5.643   4.670  0.2388  0.3955 -0.0923
19153TIP3    H178874   3.232   5.636   4.711 -1.1846  1.1778  3.3240
19153TIP3    H278875   3.158   5.704   4.597  2.5755  0.3051  0.1662
19154TIP3   OH278876   3.190   3.287   1.805  0.4579  0.1082 -0.7011
19154TIP3    H178877   3.170   3.232   1.881 -1.7938 -0.7711 -1.8395
19154TIP3    H278878   3.228   3.366   1.843 -1.9000  0.3165  1.5384
19155TIP3   OH278879   0.126   0.152  14.384 -0.0180 -0.5725  0.1412
19155TIP3    H178880   0.083   0.182  14.303 -1.1203  1.8374  1.5162
19155TIP3    H278881   0.096   0.062  14.394 -1.4549 -0.2957 -1.1276
19156TIP3   OH278882   3.253   3.532   2.013 -0.0587 -0.1387 -0.5319
19156TIP3    H178883   3.178   3.586   2.039  1.1385  1.8725 -1.0335
19156TIP3    H278884   3.250   3.457   2.072 -1.6672  0.5982  0.3825
19157TIP3   OH278885   4.290   6.565   0.997 -0.6173  0.8083  0.9868
19157TIP3    H178886   4.372   6.589   0.953  0.1563 -1.7232  0.8635
19157TIP3    H278887   4.248   6.649   1.017  1.1201  2.1473 -0.5773
19158TIP3   OH278888   3.414   2.061   0.487  0.2343 -0.4930 -0.4636
19158TIP3    H178889   3.378   2.122   0.551  0.8419 -2.0282  1.4448
19158TIP3    H278890   3.426   2.113   0.408 -2.3748  1.0189  0.0286
19159TIP3   OH278891   3.664   2.355   0.508  0.2658 -0.0253 -0.3887
19159TIP3    H178892   3.570   2.368   0.512  0.0610 -0.9942 -1.3975
19159TIP3    H278893   3.696   2.377   0.595 -0.8356  0.6841 -0.1479
19160TIP3   OH278894   6.483   0.086  14.464 -0.7835 -0.3652  0.3228
19160TIP3    H178895   6.408   0.118  14.415  0.6849  1.0983 -1.0891
19160TIP3    H278896   6.514   0.163  14.512  0.6903 -0.5465 -0.3039
19161TIP3   OH278897   4.449   6.350   3.701  0.0439 -0.2477 -0.0544
19161TIP3    H178898   4.527   6.404   3.691 -0.4475  0.4233 -0.3499
19161TIP3    H278899   4.461   6.278   3.639  0.6691 -0.4490  0.2906
19162TIP3   OH278900   2.871   1.994   1.128 -0.3207  0.2415  0.4210
19162TIP3    H178901   2.860   1.921   1.067 -0.9768  0.7079 -0.0440
19162TIP3    H278902   2.787   2.040   1.125 -0.1398  0.6358  1.2032
19163TIP3   OH278903   1.815   2.833  11.697 -0.9566 -0.4883  0.2340
19163TIP3    H178904   1.875   2.902  11.669 -0.3160 -0.0811  2.4567
19163TIP3    H278905   1.733   2.852  11.649  0.1630 -0.1424 -1.6518
19164TIP3   OH278906   4.620   3.262  10.958 -0.6363  0.0231  0.2731
19164TIP3    H178907   4.655   3.349  10.937 -1.1394  0.0015 -0.7044
19164TIP3    H278908   4.526   3.276  10.968 -0.4845 -0.0493  2.2018
19165TIP3   OH278909   6.504   4.939   4.597 -0.3860 -0.1493  0.4014
19165TIP3    H178910   6.486   4.849   4.625 -1.8274 -0.2292 -0.6515
19165TIP3    H278911   6.565   4.929   4.524  1.9213 -0.0398  2.1911
19166TIP3   OH278912   0.142   3.696  14.459 -0.3950 -0.2780  0.2040
19166TIP3    H178913   0.049   3.720  14.462  0.1974  3.0346 -1.9069
19166TIP3    H278914   0.167   3.684  14.550 -3.0027 -2.0806  0.7982
19167TIP3   OH278915   3.248   2.401   1.794  0.4283  0.0571  0.2150
19167TIP3    H178916   3.328   2.357   1.765  0.0391 -1.5246  1.3755
19167TIP3    H278917   3.178   2.360   1.743  0.1520 -0.0458  0.6673
19168TIP3   OH278918   4.280   2.139  13.612 -0.6686  0.0772 -0.3103
19168TIP3    H178919   4.241   2.222  13.639 -0.9335 -0.0508 -0.2925
19168TIP3    H278920   4.206   2.089  13.578 -0.2871  0.3870 -1.6574
19169TIP3   OH278921   4.346   0.395   0.003  0.2947 -0.8360  0.0806
19169TIP3    H178922   4.432   0.427  -0.021 -0.4009 -0.8090 -2.7262
19169TIP3    H278923   4.300   0.471   0.039  0.9375 -0.4637  0.1177
19170TIP3   OH278924   3.918   1.989  10.792  0.4456  0.3172 -0.1406
19170TIP3    H178925   3.961   1.940  10.722  0.3437 -0.2928  0.2083
19170TIP3    H278926   3.987   2.003  10.857  0.2331 -0.3115  0.2390
19171TIP3   OH278927   1.300   5.463  15.858  0.0722 -0.1176 -0.0467
19171TIP3    H178928   1.289   5.446  15.764 -0.4718  0.4484 -0.0905
19171TIP3    H278929   1.234   5.530  15.878  1.9582  1.7757  0.1588
19172TIP3   OH278930   2.610   1.821  11.438  0.4024 -0.1089  0.3276
19172TIP3    H178931   2.646   1.908  11.421 -1.3039  0.3009 -1.5499
19172TIP3    H278932   2.604   1.780  11.352 -1.0495 -1.1627  0.8816
19173TIP3   OH278933   6.336   6.314   5.570  0.2633  0.6934  0.7725
19173TIP3    H178934   6.335   6.289   5.662  1.9051  1.0633  0.9271
19173TIP3    H278935   6.385   6.245   5.527  1.6104  1.7109  0.6015
19174TIP3   OH278936   5.701   3.415   2.198  0.2476  0.2660  0.8024
19174TIP3    H178937   5.635   3.360   2.240  0.9808 -0.4423  1.0682
19174TIP3    H278938   5.784   3.379   2.228  0.7618  1.4798  0.9206
19175TIP3   OH278939   2.182   4.360   3.623  0.3234 -0.2013 -0.6399
19175TIP3    H178940   2.096   4.318   3.620  0.6013 -0.7719 -0.8921
19175TIP3    H278941   2.164   4.452   3.644 -0.4964  0.0942 -2.4299
19176TIP3   OH278942   2.209   3.007  15.805 -0.1375  0.3167  0.3527
19176TIP3    H178943   2.294   2.964  15.814 -0.4371  0.0782  2.5589
19176TIP3    H278944   2.151   2.938  15.773 -0.0387 -0.2589  1.3542
19177TIP3   OH278945   1.076   2.314  15.124 -0.0144  0.0187  0.1370
19177TIP3    H178946   1.023   2.245  15.163 -0.2572  0.1086 -0.0275
19177TIP3    H278947   1.155   2.318  15.178  0.1598 -0.6212 -0.0634
19178TIP3   OH278948   0.239   0.304   5.228 -0.3419  0.3756  0.1161
19178TIP3    H178949   0.212   0.218   5.258 -1.0028  0.4786 -0.1690
19178TIP3    H278950   0.207   0.364   5.296  0.0962  0.4051  0.3029
19179TIP3   OH278951   0.655   3.917  14.941 -0.4650 -0.3132 -0.2322
19179TIP3    H178952   0.715   3.888  15.009 -0.6904 -0.4662 -0.0998
19179TIP3    H278953   0.568   3.911  14.980 -0.7459 -1.8286 -1.0112
19180TIP3   OH278954   4.198   5.176   5.019 -0.1757  0.3122  0.1320
19180TIP3    H178955   4.191   5.251   5.078  0.1508  0.2674  0.2297
19180TIP3    H278956   4.108   5.145   5.009 -0.4725  1.3860 -0.7786
19181TIP3   OH278957   3.146   0.088  14.271 -0.2036 -0.1865 -0.5995
19181TIP3    H178958   3.156   0.176  14.307  0.1389 -0.3205 -0.3669
19181TIP3    H278959   3.133   0.102  14.177  0.2841  0.0919 -0.6277
19182TIP3   OH278960   1.706   0.740   0.678 -0.2037 -0.7063 -0.6361
19182TIP3    H178961   1.709   0.736   0.583  0.0537 -0.9538 -0.6195
19182TIP3    H278962   1.755   0.663   0.707 -0.6457 -0.8643 -0.3040
19183TIP3   OH278963   1.260   4.114   1.008  0.1201 -0.4439  0.1161
19183TIP3    H178964   1.167   4.097   0.996  0.7078 -2.9031 -2.0045
19183TIP3    H278965   1.288   4.157   0.927  0.9032 -0.0983  0.5532
19184TIP3   OH278966   4.885   1.777  13.033 -0.1196  0.3121 -0.2634
19184TIP3    H178967   4.813   1.832  13.065 -0.6161  0.1808 -1.1398
19184TIP3    H278968   4.864   1.689  13.066  0.2411  0.4871  0.4409
19185TIP3   OH278969   1.555   6.085   3.603 -0.0778 -0.0686 -0.7119
19185TIP3    H178970   1.648   6.065   3.592 -0.1729 -1.5016  0.8777
19185TIP3    H278971   1.551   6.141   3.681 -0.7930 -2.9349  1.4671
19186TIP3   OH278972   5.477   4.793  15.899 -0.3532  0.0184 -0.1536
19186TIP3    H178973   5.477   4.748  15.983  0.0914 -0.3976 -0.3730
19186TIP3    H278974   5.483   4.886  15.922 -1.6429  0.0024  0.3114
19187TIP3   OH278975   5.933   6.552   1.783 -0.6892  0.3370  0.5172
19187TIP3    H178976   5.960   6.583   1.870  1.5177 -1.1095  0.4182
19187TIP3    H278977   6.015   6.542   1.735 -1.7513 -0.4388 -1.2171
19188TIP3   OH278978   1.612   6.139  16.413 -0.0778  0.2212  0.2576
19188TIP3    H178979   1.525   6.102  16.427 -0.3783  0.2986 -1.2237
19188TIP3    H278980   1.673   6.068  16.435 -0.6073 -0.6848 -1.0807
19189TIP3   OH278981   5.169   5.987   3.462  0.1924 -0.3760  0.3617
19189TIP3    H178982   5.255   6.007   3.500 -0.0407 -0.4837  0.9557
19189TIP3    H278983   5.106   6.025   3.523 -0.1771  0.7115 -0.6576
19190TIP3   OH278984   2.449   3.546  13.947  0.3303 -0.0309  0.2793
19190TIP3    H178985   2.385   3.616  13.950  1.2494  0.9504 -1.5605
19190TIP3    H278986   2.530   3.588  13.919  1.4546 -1.4778  1.1584
19191TIP3   OH278987   1.436   4.567   4.724  0.5954  0.2896  0.2121
19191TIP3    H178988   1.457   4.480   4.691  3.2543  0.9115 -0.0377
19191TIP3    H278989   1.368   4.600   4.665 -0.2246 -1.4730  0.1383
19192TIP3   OH278990   1.230   2.269   4.218  0.0103 -0.2726 -0.7858
19192TIP3    H178991   1.315   2.226   4.215  0.5566  0.8069 -1.3073
19192TIP3    H278992   1.211   2.279   4.311  0.2786 -0.8417 -0.6656
19193TIP3   OH278993   3.214   2.443  16.705  0.8366 -0.1056  0.2478
19193TIP3    H178994   3.268   2.521  16.690  1.8292 -0.5181  1.4389
19193TIP3    H278995   3.242   2.412  16.791  1.8774 -2.9062 -1.0089
19194TIP3   OH278996   6.135   6.213  15.317 -0.1215 -0.4401  0.0889
19194TIP3    H178997   6.164   6.263  15.393  1.0979 -0.0126 -0.6337
19194TIP3    H278998   6.135   6.122  15.347  0.3818 -0.2821  0.5931
19195TIP3   OH278999   4.919   4.029   6.401 -0.0160  0.1772 -0.1253
19195TIP3    H179000   4.892   4.009   6.311 -0.8219 -1.3407  0.4074
19195TIP3    H279001   4.866   4.105   6.425  0.1783  0.5753 -0.9077
19196TIP3   OH279002   4.202   3.128  16.552 -0.0195  0.0711 -0.9343
19196TIP3    H179003   4.201   3.138  16.457  0.4112  0.3876 -0.9085
19196TIP3    H279004   4.114   3.155  16.580  0.5906  2.3618 -1.0263
19197TIP3   OH279005   4.436   5.197  13.581 -0.2652 -0.1362 -0.9422
19197TIP3    H179006   4.358   5.141  13.575 -0.5642  0.3172 -1.3536
19197TIP3    H279007   4.474   5.193  13.493 -0.8059  1.0436 -1.2433
19198TIP3   OH279008   1.312   0.449   2.667 -0.0179 -0.4517  0.2719
19198TIP3    H179009   1.346   0.360   2.674  0.6023 -0.0777  2.6715
19198TIP3    H279010   1.365   0.501   2.726 -0.7370  1.4376 -0.6430
19199TIP3   OH279011   5.482   5.562  14.571  0.3731  0.2387  0.2822
19199TIP3    H179012   5.446   5.569  14.659  0.4470  1.4384  0.2423
19199TIP3    H279013   5.437   5.631  14.522  0.5808 -0.1904 -0.5340
19200TIP3   OH279014   1.330   6.455   3.655 -0.4491  0.1769 -0.4397
19200TIP3    H179015   1.250   6.507   3.655  0.1211  1.0827 -0.5244
19200TIP3    H279016   1.397   6.515   3.688  0.4260 -0.2015 -1.4806
19201TIP3   OH279017   1.344   0.834   5.070  0.4071  0.0401 -0.3112
19201TIP3    H179018   1.265   0.788   5.042  1.0302 -0.9255 -0.5267
19201TIP3    H279019   1.387   0.773   5.131  1.2856  0.3055 -0.6531
19202TIP3   OH279020   5.363   5.438  15.295  0.5772  0.0388  0.4822
19202TIP3    H179021   5.419   5.512  15.315  0.1706  0.5483 -0.2484
19202TIP3    H279022   5.366   5.429  15.200 -0.2794 -0.1559  0.4602
19203TIP3   OH279023   6.625   3.395  12.430 -0.1681 -0.0240 -0.2090
19203TIP3    H179024   6.584   3.477  12.459 -1.7163 -0.5768 -0.7448
19203TIP3    H279025   6.674   3.419  12.352 -0.4632  0.4288 -0.2595
19204TIP3   OH279026   1.560   3.288  11.090 -0.3287  0.4830  0.2376
19204TIP3    H179027   1.626   3.329  11.035 -0.7398  0.4490 -0.2919
19204TIP3    H279028   1.504   3.361  11.118  0.4789  0.6629  1.4891
19205TIP3   OH279029   2.917   4.080  12.568  0.6401  0.3749 -0.3567
19205TIP3    H179030   2.978   4.057  12.498 -1.9966 -0.4108 -2.6029
19205TIP3    H279031   2.906   3.999  12.617  1.0873  0.4094 -0.1942
19206TIP3   OH279032   4.003   4.770  16.451  0.5718  0.3742 -0.0748
19206TIP3    H179033   4.035   4.764  16.541  0.9822 -1.0841 -0.2932
19206TIP3    H279034   3.919   4.725  16.452  0.5372  0.4268 -0.3992
19207TIP3   OH279035   0.460   2.632  14.638 -0.0812 -0.1496  0.1373
19207TIP3    H179036   0.394   2.562  14.640  0.6931 -0.9203  2.6839
19207TIP3    H279037   0.444   2.677  14.555 -2.4049 -1.6207 -0.3275
19208TIP3   OH279038   2.001   2.937  14.808  0.2723 -0.4009 -0.5831
19208TIP3    H179039   1.920   2.887  14.792 -0.7025  0.8074  0.3536
19208TIP3    H279040   2.071   2.879  14.779 -0.8788 -1.8478 -0.5903
19209TIP3   OH279041   0.488   2.225   5.396  0.3243 -0.5572 -0.4260
19209TIP3    H179042   0.435   2.270   5.462  0.3743 -0.2851 -0.5716
19209TIP3    H279043   0.568   2.201   5.443  0.0370 -1.0458 -0.1837
19210TIP3   OH279044   0.994   4.154   3.150  0.2623 -0.5448 -0.1276
19210TIP3    H179045   0.900   4.150   3.168  0.3109  0.1859  0.2992
19210TIP3    H279046   1.030   4.210   3.219  0.6218  1.3740 -1.8034
19211TIP3   OH279047   4.109   1.136   1.171 -0.1729 -0.2965 -0.1882
19211TIP3    H179048   4.047   1.186   1.225  0.8655  0.1401  0.6196
19211TIP3    H279049   4.186   1.124   1.226  0.8383 -0.0280 -1.4861
19212TIP3   OH279050   4.729   1.695   5.741  0.3204  0.6768 -0.8663
19212TIP3    H179051   4.739   1.782   5.779  1.3198  0.5551 -0.8222
19212TIP3    H279052   4.707   1.711   5.649  0.8529  0.9808 -0.9435
19213TIP3   OH279053   6.661   2.569  17.037 -0.3192 -0.3838 -0.3084
19213TIP3    H179054   6.703   2.589  17.120  1.2803  1.0922 -1.3935
19213TIP3    H279055   6.611   2.648  17.015  2.9541  1.2184 -2.8138
19214TIP3   OH279056   4.766   4.949  11.925 -0.0281  0.2719  0.8741
19214TIP3    H179057   4.819   5.027  11.939 -1.6845  1.5448  0.3867
19214TIP3    H279058   4.678   4.974  11.954 -0.8141 -1.0986 -0.1900
19215TIP3   OH279059   6.655   4.142   5.370  0.0279 -0.1385 -0.2720
19215TIP3    H179060   6.741   4.183   5.359  0.2072 -0.3449  0.3217
19215TIP3    H279061   6.634   4.108   5.283 -0.6619  2.1841 -1.0656
19216TIP3   OH279062   1.617   1.239   2.042 -0.7957 -0.6550  0.4049
19216TIP3    H179063   1.702   1.264   2.080 -0.0848 -2.2483 -0.0642
19216TIP3    H279064   1.634   1.231   1.949 -2.1040  1.4408 -0.0983
19217TIP3   OH279065   0.235   5.115   5.606 -0.0312  0.1037 -0.7245
19217TIP3    H179066   0.184   5.152   5.534 -0.2910  1.6792  0.2188
19217TIP3    H279067   0.318   5.089   5.565 -0.0626  1.2389 -1.5487
19218TIP3   OH279068   6.041   0.953   0.070 -0.2910  0.3164  0.1791
19218TIP3    H179069   6.035   1.049   0.066 -0.9329  0.2778  0.0066
19218TIP3    H279070   6.115   0.931   0.014  0.0531  0.7293  0.4615
19219TIP3   OH279071   0.756   2.778   1.105 -0.3668  0.4830  0.2409
19219TIP3    H179072   0.811   2.856   1.095 -0.6718  1.4485  4.1379
19219TIP3    H279073   0.668   2.813   1.122 -0.5384 -0.6415  1.9372
19220TIP3   OH279074   4.791   0.762  13.926  0.1629 -0.1152  0.0685
19220TIP3    H179075   4.802   0.800  13.839  1.1847  0.8596  0.6003
19220TIP3    H279076   4.866   0.704  13.937 -0.2312 -0.6242  0.1100
19221TIP3   OH279077   4.456   2.381  15.598  0.0010 -0.3324 -0.1966
19221TIP3    H179078   4.419   2.327  15.667  0.6731  1.5647  1.7256
19221TIP3    H279079   4.451   2.470  15.631  2.6313  0.3982 -1.5038
19222TIP3   OH279080   1.794   1.109  13.348 -0.4424 -0.2618 -0.2053
19222TIP3    H179081   1.881   1.148  13.341  0.0969 -1.5051 -0.7657
19222TIP3    H279082   1.810   1.016  13.362 -1.6667 -0.1645  2.4973
19223TIP3   OH279083   6.597   6.055  12.504 -0.0709 -0.0801  0.3255
19223TIP3    H179084   6.615   5.963  12.522  0.6158  0.0378  0.2537
19223TIP3    H279085   6.671   6.102  12.542  0.1978  0.3541 -0.6944
19224TIP3   OH279086   2.514   2.092  13.077  0.3342  0.2358 -0.0334
19224TIP3    H179087   2.528   2.165  13.017  1.6523 -1.8666 -2.4669
19224TIP3    H279088   2.581   2.102  13.144  0.5644  1.1767 -0.4007
19225TIP3   OH279089   5.075   3.690  15.096  0.4592 -0.0740 -0.2818
19225TIP3    H179090   5.061   3.762  15.035 -0.8617 -0.2023 -0.1603
19225TIP3    H279091   5.165   3.700  15.125  0.8959  0.4011 -1.7230
19226TIP3   OH279092   1.131   1.082  11.164  0.2667 -0.0909  0.2607
19226TIP3    H179093   1.055   1.134  11.135  0.7334  0.6566  0.3374
19226TIP3    H279094   1.104   0.991  11.152 -0.1169  0.1719 -1.0992
19227TIP3   OH279095   4.638   6.577   5.637 -0.1368 -0.2505  0.1483
19227TIP3    H179096   4.556   6.598   5.682 -0.1520 -1.0100  0.5114
19227TIP3    H279097   4.685   6.659   5.633 -0.5104  0.0091  0.8071
19228TIP3   OH279098   0.178   2.314   0.723  0.3569  0.0461  0.0044
19228TIP3    H179099   0.266   2.292   0.753  0.2858 -0.6237 -0.2657
19228TIP3    H279100   0.153   2.242   0.665 -0.0232  0.6649 -0.6170
19229TIP3   OH279101   3.076   0.993  14.367 -0.0878 -0.3461  0.1065
19229TIP3    H179102   3.083   1.012  14.273  0.7643  1.3261  0.4813
19229TIP3    H279103   3.070   1.079  14.408  0.0141 -1.0515  1.6320
19230TIP3   OH279104   1.141   5.382   4.663  0.2633  0.0996 -0.5811
19230TIP3    H179105   1.153   5.440   4.739  0.8294  1.0195 -1.3455
19230TIP3    H279106   1.066   5.419   4.617 -0.5419 -0.8911 -0.0990
19231TIP3   OH279107   2.813   4.731  17.111 -0.2185  0.4046 -0.1029
19231TIP3    H179108   2.793   4.813  17.065  2.5961  1.1579 -0.1167
19231TIP3    H279109   2.798   4.751  17.203  0.0408  0.7971 -0.1450
19232TIP3   OH279110   5.853   0.373   1.682 -0.1811  0.0275 -0.2288
19232TIP3    H179111   5.881   0.313   1.752 -1.2757 -1.6698 -1.1803
19232TIP3    H279112   5.892   0.337   1.603 -2.1801 -0.4218 -1.0640
19233TIP3   OH279113   0.027   5.047   2.657 -0.3043 -0.2249 -0.1945
19233TIP3    H179114  -0.050   5.055   2.600 -0.1655  0.6729 -0.2763
19233TIP3    H279115   0.009   5.107   2.729  1.0309  1.2626 -1.0432
19234TIP3   OH279116   3.304   0.369   5.872 -0.4192 -0.1196 -0.1096
19234TIP3    H179117   3.225   0.365   5.925 -2.1370  1.4596 -2.3569
19234TIP3    H279118   3.375   0.382   5.935 -1.9976 -0.9435  1.9350
19235TIP3   OH279119   0.831   0.625  16.584 -0.4344  0.0734 -0.1209
19235TIP3    H179120   0.898   0.618  16.516 -0.3132 -1.7160  0.1338
19235TIP3    H279121   0.852   0.706  16.630  3.0514 -1.4976  1.4574
19236TIP3   OH279122   4.510   0.137   3.579 -0.8321 -0.2317  0.6039
19236TIP3    H179123   4.557   0.210   3.540  2.1667 -1.9852  0.6568
19236TIP3    H279124   4.433   0.178   3.620  0.2348  2.7388 -0.0754
19237TIP3   OH279125   5.962   5.142  17.078  0.0963 -0.1276  0.5813
19237TIP3    H179126   6.045   5.100  17.056  0.1641 -0.1925  0.9561
19237TIP3    H279127   5.975   5.176  17.167 -0.5736 -0.9491  1.0166
19238TIP3   OH279128   2.747   4.421   4.881 -0.0586 -0.1550  0.3448
19238TIP3    H179129   2.708   4.446   4.965  0.0860  0.8333  0.1275
19238TIP3    H279130   2.687   4.457   4.815  0.4004  0.0321  0.0217
19239TIP3   OH279131   3.180   0.620   2.409 -0.0348  0.2976  0.1387
19239TIP3    H179132   3.145   0.694   2.460  1.3414  0.9428  0.1978
19239TIP3    H279133   3.215   0.661   2.330  1.1722 -0.2156  0.3899
19240TIP3   OH279134   3.395   4.482  14.482  0.1520 -0.3345  0.2952
19240TIP3    H179135   3.339   4.500  14.557  0.0813 -0.4126  0.2604
19240TIP3    H279136   3.454   4.558  14.478  0.0874 -0.2801  0.3649
19241TIP3   OH279137   0.122   0.818  15.035 -0.5883  0.0425  0.0493
19241TIP3    H179138   0.178   0.883  14.993  0.8163 -0.5967  0.8741
19241TIP3    H279139   0.169   0.793  15.115 -1.3936 -1.5115  0.0832
19242TIP3   OH279140   5.397   1.897  14.536  0.6186  0.3359  0.2045
19242TIP3    H179141   5.470   1.850  14.497  0.5036 -0.2807  0.7105
19242TIP3    H279142   5.342   1.829  14.574  0.2703  0.8586  0.6586
19243TIP3   OH279143   5.278   4.734  11.691 -0.7852 -0.5057 -0.3377
19243TIP3    H179144   5.209   4.771  11.746 -2.5999 -2.3764 -1.2507
19243TIP3    H279145   5.256   4.763  11.602  0.5585  0.2043 -0.4648
19244TIP3   OH279146   1.451   1.953   4.856  0.0170  0.1997 -0.2334
19244TIP3    H179147   1.490   2.007   4.787  1.0382  0.0125  0.1770
19244TIP3    H279148   1.452   1.865   4.820 -0.8876  0.3221 -0.5787
19245TIP3   OH279149   2.719   1.201   1.743  0.1169  0.1065 -0.0959
19245TIP3    H179150   2.686   1.112   1.758 -1.0868  0.5620  0.1239
19245TIP3    H279151   2.812   1.196   1.762 -0.1364 -0.8579  1.0327
19246TIP3   OH279152   0.707   4.361   1.493  0.1388 -0.2588 -0.1527
19246TIP3    H179153   0.701   4.406   1.578  3.0026 -2.4107  1.3754
19246TIP3    H279154   0.648   4.286   1.501 -1.4334  0.8337 -1.0725
19247TIP3   OH279155   5.230   3.800  14.285  0.0295 -0.3595  0.0829
19247TIP3    H179156   5.236   3.895  14.270 -1.1862 -0.2318  0.3328
19247TIP3    H279157   5.137   3.783  14.298  0.2769 -1.5350  0.4605
19248TIP3   OH279158   2.858   4.088  13.587  0.5952  0.3991  0.0191
19248TIP3    H179159   2.947   4.064  13.562  0.4992 -0.0861  0.1460
19248TIP3    H279160   2.838   4.164  13.532 -0.0667 -1.3747 -2.3507
19249TIP3   OH279161   0.341   5.891  16.734 -0.4720  0.4272 -0.3666
19249TIP3    H179162   0.427   5.917  16.769 -0.5285  0.4529 -0.2475
19249TIP3    H279163   0.303   5.836  16.802 -1.2155  1.6967  0.2686
19250TIP3   OH279164   5.396   4.119  15.428 -0.2876  0.4302 -0.6367
19250TIP3    H179165   5.391   4.115  15.523 -1.1865  0.3737 -0.6797
19250TIP3    H279166   5.403   4.028  15.400  0.2797  0.4636 -0.6160
19251TIP3   OH279167   5.512   1.022   1.605  0.1792 -0.0546 -0.0571
19251TIP3    H179168   5.580   0.961   1.577  0.0629 -0.3780  0.3411
19251TIP3    H279169   5.466   1.046   1.525  0.9136  0.3570 -0.3640
19252TIP3   OH279170   1.794   2.243   0.196  0.2252  0.0601 -0.1970
19252TIP3    H179171   1.730   2.183   0.232  0.7684 -0.3697  0.0656
19252TIP3    H279172   1.868   2.188   0.172  0.1578  0.4313 -1.3202
19253TIP3   OH279173   3.442   0.895   4.910  0.7715  0.0989 -0.4060
19253TIP3    H179174   3.425   0.829   4.842 -0.5540  1.3570 -1.3569
19253TIP3    H279175   3.499   0.959   4.867  0.6420  0.4486 -0.0612
19254TIP3   OH279176   2.919   4.079  15.004 -0.4926 -0.0688  0.3971
19254TIP3    H179177   2.948   4.130  15.079 -2.1217  2.5189 -0.6014
19254TIP3    H279178   2.986   4.012  14.993  0.9328  0.8518  2.7765
19255TIP3   OH279179   6.271   0.631  11.138 -0.6897  0.3102 -0.4489
19255TIP3    H179180   6.321   0.706  11.105 -0.0900 -0.0660 -0.4046
19255TIP3    H279181   6.238   0.660  11.223  0.3947  0.1682  0.0340
19256TIP3   OH279182   2.281   3.596  11.904 -0.0579  0.3245  0.1070
19256TIP3    H179183   2.221   3.577  11.832 -0.5232  1.2004  0.2419
19256TIP3    H279184   2.247   3.546  11.978  0.2305 -0.3187 -0.1882
19257TIP3   OH279185   4.967   2.438   1.537  0.1126 -0.0763 -0.0664
19257TIP3    H179186   4.935   2.526   1.554 -1.5800 -1.2464  3.7163
19257TIP3    H279187   5.057   2.438   1.570  0.0559  0.1762  0.0852
19258TIP3   OH279188   5.963   1.649   1.077  0.4090 -0.0091 -0.2647
19258TIP3    H179189   5.952   1.682   0.988  1.4834 -0.8666 -0.7498
19258TIP3    H279190   5.906   1.572   1.081 -1.1784  1.1542  0.4742
19259TIP3   OH279191   6.220   0.105   2.056 -0.0891 -0.1829 -0.2442
19259TIP3    H179192   6.155   0.134   2.120 -1.9185 -2.7962 -0.7199
19259TIP3    H279193   6.251   0.186   2.015 -1.2026  1.3351  1.7083
19260TIP3   OH279194   2.591   4.245  16.940  0.1824  0.7743  0.8366
19260TIP3    H179195   2.635   4.275  17.020  0.2272  2.0037  0.3763
19260TIP3    H279196   2.566   4.326  16.895  0.7952  0.1303 -0.7481
19261TIP3   OH279197   1.726   6.154   1.147 -0.2247 -0.1233  1.0506
19261TIP3    H179198   1.759   6.228   1.198 -1.7227  0.8092  0.7199
19261TIP3    H279199   1.676   6.194   1.076  1.0095 -1.4102 -0.6309
19262TIP3   OH279200   1.469   2.640   3.604  0.7424 -0.1374 -0.7416
19262TIP3    H179201   1.380   2.609   3.587  0.2398  0.8501 -0.0290
19262TIP3    H279202   1.525   2.564   3.588 -0.2770 -0.9122 -0.7043
19263TIP3   OH279203   3.958   2.106  15.390  0.7026  0.3218 -0.2063
19263TIP3    H179204   3.983   2.134  15.302  0.5863  1.9302  0.2384
19263TIP3    H279205   3.928   2.016  15.379  1.4594  0.2193 -1.6659
19264TIP3   OH279206   4.084   1.662  12.283  0.5607 -0.3269  0.4613
19264TIP3    H179207   4.016   1.728  12.291  1.8450  0.9572  1.2899
19264TIP3    H279208   4.111   1.664  12.191 -1.1994 -1.6024 -0.1268
19265TIP3   OH279209   1.850   5.560   3.527 -0.2256 -0.4287  0.0423
19265TIP3    H179210   1.902   5.505   3.470 -0.6093  0.3091 -1.0553
19265TIP3    H279211   1.759   5.535   3.509 -0.3907  0.3806 -0.2932
19266TIP3   OH279212   1.578   0.116   6.417 -0.2944 -0.0224  0.1432
19266TIP3    H179213   1.553   0.023   6.415  1.2626 -0.4831 -1.2123
19266TIP3    H279214   1.612   0.132   6.329 -0.3894  1.8067  0.4157
19267TIP3   OH279215   3.470   2.919  16.579 -0.1671 -0.5159  0.6173
19267TIP3    H179216   3.563   2.899  16.586 -0.0267 -0.3582 -0.5846
19267TIP3    H279217   3.464   2.980  16.506 -1.2588 -0.8389  0.4189
19268TIP3   OH279218   5.788   5.371  15.173  0.0534  0.7206 -0.5720
19268TIP3    H179219   5.763   5.353  15.082  0.0391  2.0008 -0.8422
19268TIP3    H279220   5.740   5.306  15.225 -1.1650  0.9771 -1.3470
19269TIP3   OH279221   5.524   6.532  12.116 -0.4414  0.3548  0.3850
19269TIP3    H179222   5.439   6.517  12.074 -0.1053 -0.5234 -0.0106
19269TIP3    H279223   5.510   6.510  12.208 -0.3678 -0.9508  0.1104
19270TIP3   OH279224   5.991   4.853   0.748 -0.1378 -0.1109 -0.7210
19270TIP3    H179225   6.036   4.828   0.667 -2.4473  0.2355 -2.2113
19270TIP3    H279226   5.935   4.926   0.722 -1.2101 -0.2321  1.1292
19271TIP3   OH279227   0.733   4.034   4.360  0.3934  1.4090 -0.0787
19271TIP3    H179228   0.785   4.028   4.441  0.2110 -1.1542 -0.0505
19271TIP3    H279229   0.767   3.964   4.305 -1.9952  0.6151 -0.6642
19272TIP3   OH279230   5.802   4.636  14.701  0.3887 -0.0929 -0.3946
19272TIP3    H179231   5.755   4.668  14.624  2.7268  1.2092 -1.3733
19272TIP3    H279232   5.887   4.679  14.697  0.8282 -0.4718  2.6070
19273TIP3   OH279233   4.962   2.453   2.109 -0.0623  0.3815 -0.4503
19273TIP3    H179234   4.994   2.532   2.151 -0.6412  0.9180 -0.9928
19273TIP3    H279235   5.037   2.422   2.057  0.0229  0.8406 -0.6087
19274TIP3   OH279236   4.650   3.966   4.472 -0.5019  0.0003  0.3069
19274TIP3    H179237   4.613   3.895   4.420  0.2094  0.4624 -0.8613
19274TIP3    H279238   4.576   3.998   4.525 -0.6379 -2.1501  1.5312
19275TIP3   OH279239   0.532   3.708  10.922 -0.3477 -0.6308 -0.2870
19275TIP3    H179240   0.482   3.643  10.873 -0.5035 -1.6421  1.1423
19275TIP3    H279241   0.553   3.665  11.005  1.1231  0.5070 -0.0197
19276TIP3   OH279242   5.990   5.205   3.287 -0.1225 -0.0217  0.2294
19276TIP3    H179243   6.079   5.169   3.296 -0.2003 -0.3105 -0.1202
19276TIP3    H279244   5.984   5.230   3.195 -0.1736  0.6316  0.4088
19277TIP3   OH279245   0.244   2.887   1.438 -0.2638 -0.4372 -0.4164
19277TIP3    H179246   0.277   2.974   1.414  2.6372 -1.6116 -1.0839
19277TIP3    H279247   0.295   2.863   1.516  0.3089 -2.2133 -1.2882
19278TIP3   OH279248   6.239   6.458   2.069  0.4336  0.1639 -0.2332
19278TIP3    H179249   6.160   6.463   2.123  1.4375  1.4903  1.1650
19278TIP3    H279250   6.301   6.408   2.121  0.8484 -0.0498 -0.9185
19279TIP3   OH279251   3.421   3.345  15.534 -0.0021 -0.4584  0.8617
19279TIP3    H179252   3.401   3.439  15.534  0.5910 -0.3084 -0.1634
19279TIP3    H279253   3.341   3.304  15.502  0.6079 -0.0217 -1.4529
19280TIP3   OH279254   3.380   3.210   1.629 -0.5837 -0.6145  0.2947
19280TIP3    H179255   3.318   3.276   1.659  1.3738  0.5477  2.1880
19280TIP3    H279256   3.371   3.138   1.692 -1.0847 -1.1214 -0.3537
19281TIP3   OH279257   4.063   3.326   5.796  0.0645 -0.6366  0.5950
19281TIP3    H179258   4.017   3.341   5.879  0.7497 -0.2307  0.9174
19281TIP3    H279259   4.069   3.413   5.756  1.0359 -0.5687  0.8375
19282TIP3   OH279260   1.228   0.612  14.013  0.6713  0.3977  0.1031
19282TIP3    H179261   1.182   0.695  14.015  1.0793  0.7307 -1.8123
19282TIP3    H279262   1.162   0.547  14.036 -0.3798  1.0158 -1.0583
19283TIP3   OH279263   3.970   3.200   5.569  0.0588 -0.4319 -0.1171
19283TIP3    H179264   3.982   3.112   5.603  1.4049 -0.5158 -0.7463
19283TIP3    H279265   4.010   3.257   5.635  1.3769 -0.4906 -0.8381
19284TIP3   OH279266   2.398   0.885  11.273  0.4996  0.3439  0.4277
19284TIP3    H179267   2.446   0.802  11.280 -1.8122 -1.0499  1.0206
19284TIP3    H279268   2.424   0.934  11.350  0.2403 -0.8053  1.2727
19285TIP3   OH279269   0.694   6.067  11.836  0.1721  0.6412  0.4456
19285TIP3    H179270   0.699   6.072  11.740  0.7652 -2.3183  0.2288
19285TIP3    H279271   0.600   6.058  11.854  0.1731 -0.7201 -0.0705
19286TIP3   OH279272   2.644   5.330   0.930 -0.2324  0.0283 -0.1012
19286TIP3    H179273   2.553   5.352   0.953  0.1239 -0.3894  1.9161
19286TIP3    H279274   2.697   5.398   0.972  0.4759 -0.7600  0.3097
19287TIP3   OH279275   0.905   1.706  17.006 -0.1069 -0.0531  0.2938
19287TIP3    H179276   0.883   1.646  16.934 -0.9327  0.3050  0.2463
19287TIP3    H279277   0.954   1.776  16.964 -1.1860  0.5127 -0.0483
19288TIP3   OH279278   2.083   2.825  15.590  0.1351  0.1243  0.0920
19288TIP3    H179279   2.081   2.729  15.598 -1.9777  0.0203 -1.0203
19288TIP3    H279280   2.101   2.841  15.498  0.7497  0.8302  0.3250
19289TIP3   OH279281   1.932   3.067  15.793  0.0455  0.5097  0.4619
19289TIP3    H179282   1.869   2.996  15.801  0.9066 -0.4248 -0.6677
19289TIP3    H279283   2.016   3.028  15.819  0.8375  0.5805 -1.8273
19290TIP3   OH279284   1.244   1.089   3.350  0.4917  0.4426  0.2047
19290TIP3    H179285   1.276   1.126   3.268 -0.3698 -0.8660 -0.7707
19290TIP3    H279286   1.174   1.148   3.379  0.7183  0.8421 -0.0622
19291TIP3   OH279287   2.966   3.033  17.074  0.0876 -0.6013  0.4760
19291TIP3    H179288   2.936   2.943  17.081  1.4303 -1.1185 -0.1309
19291TIP3    H279289   3.055   3.032  17.108 -0.3265  0.7874  1.7451
19292TIP3   OH279290   6.719   5.781   2.788  0.0528  0.5464 -0.4176
19292TIP3    H179291   6.774   5.822   2.855 -0.0539 -0.1648  0.1243
19292TIP3    H279292   6.659   5.724   2.838 -1.3423  1.4748 -0.9679
19293TIP3   OH279293   3.908   4.441  13.199  0.7582 -0.0836  0.0604
19293TIP3    H179294   3.917   4.367  13.139  3.4536 -1.1729  1.6239
19293TIP3    H279295   3.817   4.436  13.229 -0.7256  0.4932 -3.7012
19294TIP3   OH279296   4.468   1.044   0.936 -0.3577  0.1825  0.0562
19294TIP3    H179297   4.526   1.038   1.012 -0.1595  0.2552 -0.0854
19294TIP3    H279298   4.422   0.960   0.934 -0.5241  0.2680  0.3830
19295TIP3   OH279299   0.673   1.921   5.485  0.1141 -0.0785  0.2878
19295TIP3    H179300   0.600   1.889   5.539 -0.4778 -2.8661 -1.9222
19295TIP3    H279301   0.652   1.892   5.397  1.7700  3.0149 -1.2676
19296TIP3   OH279302   5.766   0.609   1.494  0.0139  0.2540 -0.0011
19296TIP3    H179303   5.709   0.551   1.544 -0.0713  0.2749 -0.0742
19296TIP3    H279304   5.803   0.553   1.426  0.4805  0.1167  0.3582
19297TIP3   OH279305   5.108   0.733  11.968  0.1142  0.1758 -0.8727
19297TIP3    H179306   5.080   0.646  11.996 -0.3206  0.8166  0.7392
19297TIP3    H279307   5.063   0.793  12.026  2.9413  1.3600  0.2679
19298TIP3   OH279308   3.513   2.713   5.955 -0.3622  0.1534 -0.2526
19298TIP3    H179309   3.573   2.709   6.029 -0.2968 -0.4632 -0.3332
19298TIP3    H279310   3.495   2.806   5.944 -0.3223  0.2565  0.4967
19299TIP3   OH279311   5.553   0.656  14.041  0.2156 -0.1887 -0.4689
19299TIP3    H179312   5.467   0.623  14.066 -0.2050  0.2373 -1.3084
19299TIP3    H279313   5.566   0.734  14.096 -0.3360  0.2635 -0.9624
19300TIP3   OH279314   3.045   6.078   2.544  0.2285 -0.1794  0.1606
19300TIP3    H179315   3.113   6.106   2.605 -0.9996  1.2552  0.9569
19300TIP3    H279316   3.060   6.130   2.465  1.6944 -1.8872 -0.7333
19301TIP3   OH279317   2.562   3.511  11.465  0.4232  0.1489  0.5990
19301TIP3    H179318   2.597   3.571  11.531  0.9839 -0.3253  0.7340
19301TIP3    H279319   2.583   3.553  11.382  1.5089 -0.2326  0.6739
19302TIP3   OH279320   1.407   4.339   3.322 -0.1559 -0.3261 -0.1266
19302TIP3    H179321   1.413   4.357   3.229 -0.9177 -0.7184 -0.2564
19302TIP3    H279322   1.329   4.387   3.351  1.1529  1.4145  0.7163
19303TIP3   OH279323   0.752   5.372   1.666  0.5418  0.1846  0.1337
19303TIP3    H179324   0.721   5.426   1.594  1.3783  2.2509  1.2396
19303TIP3    H279325   0.730   5.282   1.640 -1.1222  1.0403 -1.6650
19304TIP3   OH279326   1.595   0.416  11.202  0.6915  0.8059  0.0759
19304TIP3    H179327   1.644   0.334  11.207  0.7618  0.8766  0.6783
19304TIP3    H279328   1.661   0.483  11.183  0.3536  0.4669 -2.6825
19305TIP3   OH279329   5.935   4.354  14.107  0.0898  0.5529 -0.2410
19305TIP3    H179330   5.847   4.389  14.093 -0.3424 -1.0570 -1.9408
19305TIP3    H279331   5.938   4.333  14.201 -1.6172 -0.0591 -0.2924
19306TIP3   OH279332   0.542   0.663   2.904  0.0757  0.1012 -0.0910
19306TIP3    H179333   0.492   0.591   2.866  1.1997  0.4074 -2.2961
19306TIP3    H279334   0.491   0.690   2.980 -1.6704 -1.3390 -0.6779
19307TIP3   OH279335   3.572   2.542   0.326 -0.3426  0.3307 -0.4386
19307TIP3    H179336   3.504   2.607   0.307 -1.5199 -1.4441 -2.9441
19307TIP3    H279337   3.571   2.484   0.249  1.7978 -1.6561  0.9079
19308TIP3   OH279338   5.403   4.765   0.968 -0.2830  0.4458 -0.2957
19308TIP3    H179339   5.363   4.822   1.033 -0.6966  0.2173 -0.3434
19308TIP3    H279340   5.329   4.732   0.917 -0.1416 -0.8474  0.3038
19309TIP3   OH279341   1.598   0.225   5.299 -0.1081 -0.0350  0.8398
19309TIP3    H179342   1.524   0.178   5.336  1.7151 -0.8879  3.7882
19309TIP3    H279343   1.576   0.318   5.308 -0.3480 -0.2533  2.9213
19310TIP3   OH279344   2.494   6.694   3.363 -0.0815 -0.1801  0.2078
19310TIP3    H179345   2.435   6.701   3.288 -0.6905  0.3632  0.7247
19310TIP3    H279346   2.460   6.620   3.413  1.1842 -1.4758 -0.7732
19311TIP3   OH279347   3.014   3.322   4.625 -0.2711  0.3524  0.0092
19311TIP3    H179348   3.034   3.310   4.718  1.2212  2.3718  0.0169
19311TIP3    H279349   3.079   3.269   4.579  1.1931  1.9564  0.1303
19312TIP3   OH279350   6.190   0.379  11.891  0.3620  0.3788 -0.7699
19312TIP3    H179351   6.123   0.326  11.935  1.4768 -0.1753  0.3290
19312TIP3    H279352   6.237   0.421  11.962  1.4075  0.4822 -1.5085
19313TIP3   OH279353   0.768   0.188  15.387 -0.3427 -0.3193 -0.1241
19313TIP3    H179354   0.812   0.259  15.341 -0.9796 -0.2964 -0.7187
19313TIP3    H279355   0.737   0.130  15.318 -0.0524 -1.0465  0.3450
19314TIP3   OH279356   3.398   0.512   4.289  0.0975 -0.3350  0.4505
19314TIP3    H179357   3.395   0.458   4.368 -1.4719  1.0656  1.4200
19314TIP3    H279358   3.432   0.596   4.319 -0.1140  0.0791 -0.4542
19315TIP3   OH279359   0.708   5.552  13.400 -0.0411 -0.2673 -0.4831
19315TIP3    H179360   0.768   5.531  13.329  1.0299  1.3094 -0.1070
19315TIP3    H279361   0.700   5.470  13.450  2.8970 -0.2493  0.1992
19316TIP3   OH279362   6.104   3.902   4.988  0.3413 -0.0398 -0.8012
19316TIP3    H179363   6.126   3.857   5.069  1.3230 -1.1817 -1.6676
19316TIP3    H279364   6.137   3.991   5.000  1.8848 -0.6217 -0.5259
19317TIP3   OH279365   3.927   0.612  17.016  0.1358  0.2324 -0.6850
19317TIP3    H179366   3.983   0.584  17.088 -2.2894 -3.0754  0.1629
19317TIP3    H279367   3.965   0.573  16.938 -0.0415 -0.5849 -0.3682
19318TIP3   OH279368   5.332   4.584  14.610  0.1430  0.2180 -0.4646
19318TIP3    H179369   5.267   4.579  14.540  0.3520 -3.0756 -0.6056
19318TIP3    H279370   5.289   4.632  14.681 -1.2551  0.8137 -1.6792
19319TIP3   OH279371   1.130   2.504   0.898  0.1696 -0.0551  0.2012
19319TIP3    H179372   1.160   2.444   0.830  0.3657  0.4771 -0.1906
19319TIP3    H279373   1.209   2.529   0.946  0.2865  0.8357 -0.4177
19320TIP3   OH279374   1.187   0.596   5.081 -0.0564  0.3807 -0.1250
19320TIP3    H179375   1.138   0.584   5.162 -0.8419 -0.9705 -0.7560
19320TIP3    H279376   1.124   0.575   5.012  1.1045 -0.3540 -1.0049
19321TIP3   OH279377   6.570   6.534   5.543  0.5166 -0.0932  0.3305
19321TIP3    H179378   6.649   6.567   5.586  1.6855  1.0881 -2.4754
19321TIP3    H279379   6.582   6.439   5.541  1.8034  0.0498  0.1443
19322TIP3   OH279380   2.411   3.875   1.939  0.0922  0.1272 -0.0668
19322TIP3    H179381   2.397   3.968   1.920 -1.0571 -0.0043  0.0362
19322TIP3    H279382   2.502   3.859   1.917  0.1419  1.1460 -0.6468
19323TIP3   OH279383   6.302   2.980   1.166 -0.1595  0.0243  0.1755
19323TIP3    H179384   6.383   2.962   1.213  1.4423  3.2449 -1.0246
19323TIP3    H279385   6.255   3.044   1.220 -1.9169 -1.6320  0.7487
19324TIP3   OH279386   4.298   6.324   5.358  0.2658  0.1580 -0.5552
19324TIP3    H179387   4.324   6.411   5.328  0.6899  0.2414  0.0466
19324TIP3    H279388   4.261   6.282   5.280  0.1741  0.8288 -0.8789
19325TIP3   OH279389   6.388   0.946  11.117 -0.4572  0.2952 -0.5920
19325TIP3    H179390   6.314   0.999  11.146 -1.0626 -0.6780 -0.2869
19325TIP3    H279391   6.412   0.982  11.032  0.6776  2.5396  0.5929
19326TIP3   OH279392   1.461   1.303  12.606 -0.3139  0.1213  0.6638
19326TIP3    H179393   1.545   1.323  12.564 -0.2928 -0.3600  0.4638
19326TIP3    H279394   1.441   1.380  12.659  0.0281  0.4277  0.3508
19327TIP3   OH279395   3.558   5.442  12.677  0.1985 -0.4253 -0.0431
19327TIP3    H179396   3.570   5.394  12.595  2.9716 -0.3191  0.2006
19327TIP3    H279397   3.615   5.397  12.739  2.0905  2.4276  0.4785
19328TIP3   OH279398   4.141   2.192  14.475  0.3340 -0.3129 -0.5703
19328TIP3    H179399   4.134   2.246  14.397  0.8647  0.7332  0.0899
19328TIP3    H279400   4.235   2.181  14.489  0.2405 -0.7480 -0.2394
19329TIP3   OH279401   0.600   2.394  11.480 -0.1206 -0.0140  0.7093
19329TIP3    H179402   0.570   2.431  11.397 -1.7427  0.1925  1.3528
19329TIP3    H279403   0.669   2.453  11.509 -0.7798  0.9579  0.3637
19330TIP3   OH279404   5.187   6.687   1.716 -1.1072  0.3910 -0.0260
19330TIP3    H179405   5.181   6.768   1.667  0.2834 -0.4826 -1.7613
19330TIP3    H279406   5.251   6.634   1.668 -0.9603 -1.2113  1.7843
19331TIP3   OH279407   2.565   2.459  16.003 -0.2356  0.4236 -0.2032
19331TIP3    H179408   2.605   2.524  15.945 -1.5389  1.5496  0.1148
19331TIP3    H279409   2.506   2.410  15.946  0.0391  0.1436 -0.2478
19332TIP3   OH279410   1.474   2.652  13.648 -0.1791  0.0520  0.2244
19332TIP3    H179411   1.557   2.609  13.668  0.9558  1.7950 -0.5031
19332TIP3    H279412   1.499   2.737  13.610 -2.3020  1.7157  2.2625
19333TIP3   OH279413   0.421   3.364  16.383 -0.3047 -0.2724 -0.5686
19333TIP3    H179414   0.379   3.278  16.369  1.8377 -1.4483 -0.1931
19333TIP3    H279415   0.435   3.398  16.295 -0.9723 -0.4088 -0.7321
19334TIP3   OH279416   6.331   0.752  15.292  0.2712  0.4748  0.5100
19334TIP3    H179417   6.421   0.732  15.264 -0.3829 -2.3240  0.0024
19334TIP3    H279418   6.310   0.834  15.249  1.0579 -1.1405 -3.4094
19335TIP3   OH279419   5.662   4.250   0.287 -0.5244  0.3269 -0.2785
19335TIP3    H179420   5.585   4.243   0.343 -0.7255 -0.4761 -0.6350
19335TIP3    H279421   5.650   4.181   0.222  0.2236  0.5615 -0.6731
19336TIP3   OH279422   5.352   4.039   4.558  0.6250 -0.1115  0.3477
19336TIP3    H179423   5.323   4.084   4.637  0.2620  0.4220 -0.0861
19336TIP3    H279424   5.271   4.007   4.517  0.6772  0.9088 -0.5839
19337TIP3   OH279425   2.609   3.895   5.070 -0.8337  0.1900  0.2644
19337TIP3    H179426   2.643   3.979   5.101 -2.4019  0.3422  1.7124
19337TIP3    H279427   2.575   3.913   4.983  0.1280  0.6893 -0.0272
19338TIP3   OH279428   6.224   4.672  14.151 -0.1027  0.1347  0.3606
19338TIP3    H179429   6.200   4.733  14.081  0.4250 -2.1583 -1.9565
19338TIP3    H279430   6.192   4.587  14.121  1.6300 -1.2400  2.1428
19339TIP3   OH279431   3.070   5.483   1.964  0.2803 -0.0928  0.6306
19339TIP3    H179432   3.057   5.416   2.032  0.2747  0.2344  0.9573
19339TIP3    H279433   3.003   5.549   1.982  0.0918 -0.1434  0.1249
19340TIP3   OH279434   6.370   2.128   0.896  0.2397 -0.5236 -0.0841
19340TIP3    H179435   6.320   2.158   0.972 -0.3343 -0.4413 -0.4911
19340TIP3    H279436   6.388   2.207   0.846  0.5435 -0.5883 -0.0786
19341TIP3   OH279437   5.391   0.700  13.745  0.3164  0.6800 -0.2893
19341TIP3    H179438   5.371   0.695  13.838  0.5479  1.3074 -0.1973
19341TIP3    H279439   5.462   0.636  13.732 -1.4833 -1.3769 -0.5774
19342TIP3   OH279440   1.238   2.105  14.426  0.3965  0.3257  0.4391
19342TIP3    H179441   1.258   2.174  14.490 -0.9134  1.7321 -0.5989
19342TIP3    H279442   1.234   2.150  14.342  0.2129 -1.1635 -0.3901
19343TIP3   OH279443   1.063   0.083   4.027 -0.3672  0.1186 -0.2461
19343TIP3    H179444   1.025   0.004   3.989 -1.9564 -0.0654  1.5099
19343TIP3    H279445   1.154   0.060   4.045 -0.9412 -1.5647  0.7639
19344TIP3   OH279446   6.157   5.328   5.225 -0.4481  0.0885  0.2150
19344TIP3    H179447   6.128   5.320   5.316  0.4095  1.1250  0.6098
19344TIP3    H279448   6.150   5.422   5.206 -0.5296 -0.1048 -0.7634
19345TIP3   OH279449   6.159   4.335   2.127  0.4833 -0.0901  0.0040
19345TIP3    H179450   6.146   4.430   2.127 -3.2620 -0.4573 -1.1281
19345TIP3    H279451   6.141   4.307   2.216  0.6740  0.1448  0.1174
19346TIP3   OH279452   1.253   5.805  14.138  0.0348 -0.1165 -0.4386
19346TIP3    H179453   1.348   5.794  14.138  0.0113 -0.3225 -0.4872
19346TIP3    H279454   1.239   5.900  14.134  0.2417 -0.0162  0.8706
19347TIP3   OH279455   0.976   1.825   4.858 -0.2504 -0.6061  0.2577
19347TIP3    H179456   0.968   1.775   4.776  2.1524 -2.0846  0.8244
19347TIP3    H279457   0.978   1.758   4.926  3.7126  0.0578  1.0097
19348TIP3   OH279458   0.439   0.634   4.435 -0.4472  0.0791 -0.4835
19348TIP3    H179459   0.521   0.683   4.439 -1.3246  1.5123  1.1166
19348TIP3    H279460   0.457   0.553   4.483  0.4086 -0.2778 -1.3636
19349TIP3   OH279461   3.704   0.593   5.660  0.9805 -0.6386 -0.0100
19349TIP3    H179462   3.685   0.505   5.693  2.6718 -1.1382 -0.2494
19349TIP3    H279463   3.795   0.609   5.686  0.5550  1.2624  0.4664
19350TIP3   OH279464   3.463   0.390   0.793  0.4232  0.0659 -0.5956
19350TIP3    H179465   3.503   0.330   0.730  0.3649 -1.0945  0.4393
19350TIP3    H279466   3.382   0.347   0.819  0.8159  0.1486  0.8311
19351TIP3   OH279467   2.899   5.993  11.862  0.8338  0.5865 -0.0624
19351TIP3    H179468   2.807   5.975  11.842  0.9909  1.2666 -1.4918
19351TIP3    H279469   2.948   5.926  11.814  1.1114  0.3266  0.5620
19352TIP3   OH279470   4.614   6.751  14.533  0.4096  0.0303 -0.4173
19352TIP3    H179471   4.707   6.772  14.526  0.4669 -0.0624  0.0468
19352TIP3    H279472   4.570   6.822  14.486  0.3990  2.7614  3.3163
19353TIP3   OH279473   2.601   5.042   4.592 -0.1151  0.2729  0.6550
19353TIP3    H179474   2.607   5.068   4.684  0.9830  2.7796 -0.0332
19353TIP3    H279475   2.686   5.065   4.554 -0.1194 -1.7773 -0.7785
19354TIP3   OH279476   3.472   6.664   3.743  0.6651  0.2367  0.6368
19354TIP3    H179477   3.520   6.707   3.672  0.3784 -1.3901 -0.6034
19354TIP3    H279478   3.493   6.571   3.733 -2.4033 -0.5190  0.2697
19355TIP3   OH279479   5.659   1.376   0.841  0.5341 -0.3353 -0.0501
19355TIP3    H179480   5.708   1.368   0.923  0.1490 -0.7061  0.1422
19355TIP3    H279481   5.589   1.438   0.861  0.3104 -0.5925 -0.0403
19356TIP3   OH279482   3.349   6.427   4.298  0.1968  0.4509 -0.7401
19356TIP3    H179483   3.302   6.418   4.215 -0.3672 -1.6576 -0.2586
19356TIP3    H279484   3.438   6.452   4.274 -0.8004  3.5296 -1.7378
19357TIP3   OH279485   0.857   1.958   6.363 -0.2147 -0.1929 -0.0917
19357TIP3    H179486   0.912   1.980   6.438  1.0837 -0.5362 -0.9179
19357TIP3    H279487   0.787   2.024   6.364 -0.4431 -0.4331  1.6324
19358TIP3   OH279488   4.446   5.010   0.604  0.2334 -0.3474  0.5253
19358TIP3    H179489   4.386   4.938   0.620 -1.7794  1.0622 -0.2990
19358TIP3    H279490   4.429   5.037   0.513 -0.5000  2.3408  1.3544
19359TIP3   OH279491   0.948   2.268  16.337  0.3272  0.1353 -0.0468
19359TIP3    H179492   1.019   2.271  16.401 -0.6102 -0.5389  1.0695
19359TIP3    H279493   0.871   2.296  16.386 -0.8348 -2.4679 -0.2124
19360TIP3   OH279494   1.672   1.359  11.622  0.1786  0.0538  0.4557
19360TIP3    H179495   1.702   1.430  11.679  1.8396  0.0943 -0.4079
19360TIP3    H279496   1.643   1.404  11.542 -1.3432 -0.0685  0.9080
19361TIP3   OH279497   5.913   2.575   3.664 -0.1625 -0.0310  0.2780
19361TIP3    H179498   5.844   2.553   3.727  1.2750 -1.2769  1.4978
19361TIP3    H279499   5.990   2.530   3.697  0.9950  0.4470 -1.6419
19362TIP3   OH279500   1.945   4.595  16.397  0.4428  0.0733 -0.0021
19362TIP3    H179501   1.859   4.589  16.439 -0.0651 -0.6012 -1.0823
19362TIP3    H279502   1.939   4.674  16.343  0.4332 -0.0684 -0.2103
19363TIP3   OH279503   0.518   0.048   0.248  0.7526 -0.1072 -0.3160
19363TIP3    H179504   0.596   0.013   0.206  0.7040  0.9169 -1.3007
19363TIP3    H279505   0.445   0.013   0.198  0.6344  0.0274 -0.2396
19364TIP3   OH279506   6.755   1.187  16.311  0.1729  0.0609  0.8650
19364TIP3    H179507   6.834   1.242  16.314  0.7094 -0.6606  0.3809
19364TIP3    H279508   6.774   1.114  16.370  1.0675 -1.6121 -1.3325
19365TIP3   OH279509   4.203   0.816   5.727  0.1685  0.4561 -0.0328
19365TIP3    H179510   4.241   0.904   5.732 -0.2650  0.6036  0.8031
19365TIP3    H279511   4.195   0.787   5.818 -0.0116 -0.3135 -0.2830
19366TIP3   OH279512   0.243   5.681   5.116  0.0559  0.4232 -0.5538
19366TIP3    H179513   0.314   5.722   5.066 -0.2249 -0.5609 -1.8137
19366TIP3    H279514   0.208   5.614   5.058 -0.4519 -0.6304  0.9076
19367TIP3   OH279515   3.111   2.018   0.390  0.4602 -0.2014  0.6443
19367TIP3    H179516   3.056   1.943   0.367 -0.3418  0.1801  1.2957
19367TIP3    H279517   3.128   2.007   0.483  1.2154 -0.1208  0.5280
19368TIP3   OH279518   6.563   2.700  15.539 -0.4978 -0.1793 -0.1197
19368TIP3    H179519   6.551   2.605  15.542 -1.4973 -0.0592  1.0140
19368TIP3    H279520   6.572   2.721  15.446 -1.4050 -1.2716 -0.4780
19369TIP3   OH279521   1.536   3.508  17.210  0.9032 -0.1216  0.7721
19369TIP3    H179522   1.465   3.519  17.147  1.4227 -0.4102  0.1267
19369TIP3    H279523   1.503   3.444  17.273  1.2916 -1.7533 -0.6182
19370TIP3   OH279524   0.112   3.599   5.788 -0.2949 -0.2244  0.1756
19370TIP3    H179525   0.028   3.559   5.768 -0.2631  0.1460 -0.7374
19370TIP3    H279526   0.090   3.682   5.831 -0.3852 -0.3882  0.4459
19371TIP3   OH279527   3.977   4.832   3.651 -0.2511 -0.3746  0.1434
19371TIP3    H179528   4.008   4.768   3.716 -1.4839  0.7995  1.9809
19371TIP3    H279529   4.037   4.906   3.661 -0.3538 -0.2473 -0.1870
19372TIP3   OH279530   2.209   6.044   4.032 -0.1259  0.0243 -0.2127
19372TIP3    H179531   2.141   6.111   4.023 -1.7750 -1.3127  1.4037
19372TIP3    H279532   2.250   6.063   4.116 -0.2314 -0.6422 -0.0052
19373TIP3   OH279533   2.051   1.033  12.881  0.5357 -0.2964  0.3132
19373TIP3    H179534   2.040   1.021  12.975 -0.4674  3.4921  0.8363
19373TIP3    H279535   1.965   1.060  12.850  1.3896  0.8668 -1.2044
19374TIP3   OH279536   6.241   1.613  15.387 -0.2561  0.4523 -0.0221
19374TIP3    H179537   6.182   1.567  15.447  0.2683  2.1050  1.8786
19374TIP3    H279538   6.328   1.581  15.409 -0.0418  1.1972  0.2273
19375TIP3   OH279539   6.022   0.896  16.894 -0.3353  0.2564 -0.8159
19375TIP3    H179540   5.953   0.878  16.830 -0.6880  2.0151 -0.9852
19375TIP3    H279541   6.082   0.822  16.887 -1.0756 -0.2359 -2.2216
19376TIP3   OH279542   3.091   3.205  14.478  0.5255  0.0187 -0.0227
19376TIP3    H179543   3.002   3.221  14.508  0.7671  0.4509  0.4749
19376TIP3    H279544   3.139   3.180  14.558  1.4599  2.3386  0.2049
19377TIP3   OH279545   4.405   6.320   1.344  0.1738 -0.2581 -0.6311
19377TIP3    H179546   4.371   6.407   1.322 -0.5901 -0.0572  1.1378
19377TIP3    H279547   4.329   6.263   1.341  0.4125 -0.5923 -0.4317
19378TIP3   OH279548   2.298   2.003  13.268  0.8112  0.4677  0.4840
19378TIP3    H179549   2.360   2.074  13.253  0.0781  0.8304 -1.0679
19378TIP3    H279550   2.212   2.044  13.259  0.3677 -0.6783 -1.0275
19379TIP3   OH279551   0.691   3.760  14.510  0.5822 -0.0954 -0.2844
19379TIP3    H179552   0.603   3.736  14.539  0.4666  0.1540 -0.4185
19379TIP3    H279553   0.745   3.756  14.588  0.9353 -2.4206 -0.5826
19380TIP3   OH279554   4.586   2.623  13.467 -0.0834 -0.5802 -0.8595
19380TIP3    H179555   4.619   2.609  13.556  0.1237  1.5479 -0.5370
19380TIP3    H279556   4.599   2.539  13.423 -0.5739 -1.8139  1.2170
19381TIP3   OH279557   4.734   0.727   4.544 -0.4101 -0.0624 -0.1731
19381TIP3    H179558   4.774   0.691   4.465  0.1331 -2.3376  1.0518
19381TIP3    H279559   4.778   0.681   4.616 -0.9194  1.9040  1.4625
19382TIP3   OH279560   6.256   6.123   1.137  0.3359 -0.0797  0.7922
19382TIP3    H179561   6.322   6.173   1.089 -0.7961  1.6060  0.9072
19382TIP3    H279562   6.246   6.170   1.220  0.6260 -1.6508  1.7671
19383TIP3   OH279563   4.309   1.293   6.159  0.6488 -0.7898  0.2256
19383TIP3    H179564   4.221   1.286   6.196 -0.0423  1.9697 -0.6923
19383TIP3    H279565   4.305   1.239   6.079  0.1586 -1.5422  0.7427
19384TIP3   OH279566   3.574   3.938  14.953 -0.0739  0.2264 -0.6417
19384TIP3    H179567   3.502   3.875  14.957  0.0512  0.1471  0.5412
19384TIP3    H279568   3.531   4.024  14.954 -0.2322  0.1932 -2.0184
19385TIP3   OH279569   2.534   6.403  14.221  0.2143 -0.7661 -0.1092
19385TIP3    H179570   2.518   6.309  14.233  0.7633 -0.7985  0.4139
19385TIP3    H279571   2.607   6.423  14.279  1.7684 -0.5074 -2.0540
19386TIP3   OH279572   5.982   4.253  11.110  0.3032  0.0517  0.2951
19386TIP3    H179573   5.975   4.229  11.018  1.7430 -1.3559  0.5264
19386TIP3    H279574   6.075   4.267  11.125  0.3545 -1.7067  1.9896
19387TIP3   OH279575   2.832   6.698  13.279  0.3878  0.0291  0.1491
19387TIP3    H179576   2.801   6.721  13.367 -0.6262 -0.7275  0.0176
19387TIP3    H279577   2.753   6.666  13.234  0.7343  1.0983 -1.2872
19388TIP3   OH279578   6.184   5.488  16.743  0.3201  0.0234  0.0900
19388TIP3    H179579   6.110   5.447  16.788  0.9088 -3.2803 -1.6199
19388TIP3    H279580   6.259   5.433  16.765  1.2854  0.3674 -2.0775
19389TIP3   OH279581   6.635   0.092   2.434  0.0357 -0.3658  0.3678
19389TIP3    H179582   6.710   0.061   2.382 -0.9875  0.2440 -1.5444
19389TIP3    H279583   6.671   0.103   2.522  1.9894 -0.8736 -0.3097
19390TIP3   OH279584   6.753   4.385  16.317 -0.0824  0.1350 -0.1770
19390TIP3    H179585   6.769   4.292  16.301  2.0760  0.7531 -2.1912
19390TIP3    H279586   6.742   4.423  16.230  0.6691  1.9755  0.4742
19391TIP3   OH279587   1.408   3.690  16.745  0.2752 -0.0115 -0.7091
19391TIP3    H179588   1.371   3.674  16.832  0.7198 -0.3957 -0.5872
19391TIP3    H279589   1.460   3.611  16.727 -0.5853 -0.3653 -1.7262
19392TIP3   OH279590   4.572   2.192  12.390  0.2858 -0.4621  0.2778
19392TIP3    H179591   4.560   2.111  12.441  0.3518 -0.1973  0.7202
19392TIP3    H279592   4.582   2.260  12.457 -0.3166 -0.0068 -0.0848
19393TIP3   OH279593   2.541   0.595  16.388  0.1546 -0.4923 -0.1615
19393TIP3    H179594   2.485   0.595  16.310 -0.4194 -0.7109  0.2410
19393TIP3    H279595   2.628   0.616  16.355 -0.4718  1.6597 -0.5778
19394TIP3   OH279596   6.296   6.716  13.548  0.3756 -0.2533  0.2544
19394TIP3    H179597   6.253   6.694  13.465  0.9234 -0.2462 -0.0356
19394TIP3    H279598   6.259   6.800  13.572  1.9450  0.9536 -1.2443
19395TIP3   OH279599   6.765   0.112  13.599 -0.0614 -0.2157  0.0704
19395TIP3    H179600   6.682   0.076  13.567  0.2573 -0.4477 -0.5158
19395TIP3    H279601   6.777   0.192  13.548 -1.0448  1.0737  1.7590
19396TIP3   OH279602   3.951   5.028   5.721 -0.2167 -0.3285  0.5097
19396TIP3    H179603   3.948   4.965   5.649 -1.4247  0.8630 -0.5426
19396TIP3    H279604   3.938   4.975   5.799  0.9766 -1.6389 -0.1383
19397TIP3   OH279605   3.857   4.339  15.481 -0.8726 -0.3706 -0.0817
19397TIP3    H179606   3.937   4.315  15.434 -0.4618  0.8742 -0.0792
19397TIP3    H279607   3.882   4.332  15.574 -0.2416  1.4686 -0.0642
19398TIP3   OH279608   6.302   2.394   0.769  0.7418 -0.0524 -0.2565
19398TIP3    H179609   6.321   2.446   0.691  1.9307 -3.2602 -2.3099
19398TIP3    H279610   6.211   2.413   0.789  0.5560  1.2830 -2.1144
19399TIP3   OH279611   6.349   5.686  10.668 -0.2427 -0.0719 -0.3452
19399TIP3    H179612   6.272   5.645  10.706  1.4938 -1.8773  1.4700
19399TIP3    H279613   6.382   5.744  10.736  0.2485  0.3683 -0.9438
19400TIP3   OH279614   5.127   3.124  16.729  0.3684 -0.0744 -0.1373
19400TIP3    H179615   5.118   3.047  16.786 -2.2595 -0.6322 -1.1580
19400TIP3    H279616   5.206   3.168  16.761 -1.5147  0.3833  4.8433
19401TIP3   OH279617   1.840   4.004  16.233  0.0787  0.1488  0.3323
19401TIP3    H179618   1.826   3.912  16.210  0.2181  0.1418  0.2689
19401TIP3    H279619   1.806   4.053  16.158 -0.2432  0.1586  0.4841
19402TIP3   OH279620   1.046   0.248   2.241  0.6821  0.0278 -0.2098
19402TIP3    H179621   1.043   0.183   2.310  1.8613 -0.6720 -0.7749
19402TIP3    H279622   1.066   0.330   2.286  0.3527 -0.2173  0.3873
19403TIP3   OH279623   1.667   3.084   0.145 -0.0590 -0.9764 -0.2972
19403TIP3    H179624   1.664   3.159   0.203 -0.9426 -0.3120 -1.1751
19403TIP3    H279625   1.722   3.020   0.191  1.4779  0.5410  0.0487
19404TIP3   OH279626   2.562   5.534  13.708 -1.3770  0.1245  0.3112
19404TIP3    H179627   2.466   5.530  13.708 -1.3697 -0.2513 -0.5379
19404TIP3    H279628   2.583   5.615  13.662 -1.2893 -0.8319 -1.4442
19405TIP3   OH279629   4.276   1.351   1.569 -0.5905  0.6036 -0.3147
19405TIP3    H179630   4.209   1.352   1.638 -2.4387 -1.4342 -1.9324
19405TIP3    H279631   4.228   1.369   1.488  1.3758  2.0447 -1.2462
19406TIP3   OH279632   5.895   5.224   4.912  0.0119 -0.1125 -0.4960
19406TIP3    H179633   5.899   5.286   4.985 -1.2036  0.0362 -0.5407
19406TIP3    H279634   5.904   5.138   4.953 -0.8474 -0.0412 -0.1359
19407TIP3   OH279635   6.482   0.760  16.003  0.3591 -0.4303 -0.2949
19407TIP3    H179636   6.435   0.806  16.073  2.1960  0.2918  0.5380
19407TIP3    H279637   6.444   0.795  15.923 -0.2257  0.4371  0.3335
19408TIP3   OH279638   0.899   5.709  15.681  0.5125 -0.0393 -0.0806
19408TIP3    H179639   0.902   5.648  15.755 -0.6414  1.5724  1.3882
19408TIP3    H279640   0.920   5.794  15.720 -1.1092  1.0267 -1.3910
19409TIP3   OH279641   4.764   0.666   2.840 -0.4254 -0.1323  0.7411
19409TIP3    H179642   4.757   0.731   2.910 -1.7471  0.7662 -0.1727
19409TIP3    H279643   4.683   0.614   2.848 -1.1329  0.6670 -0.7376
19410TIP3   OH279644   1.518   4.733  13.665  0.0329  0.2734  0.6125
19410TIP3    H179645   1.446   4.672  13.651  1.7782 -1.6180 -0.8936
19410TIP3    H279646   1.478   4.810  13.704 -2.5068 -1.3181  1.3667
19411TIP3   OH279647   0.850   3.008   5.205 -0.1241  0.0022 -0.3811
19411TIP3    H179648   0.809   2.998   5.119  0.0137  1.2902 -0.6118
19411TIP3    H279649   0.777   3.016   5.266 -0.2305 -1.3805 -0.2926
19412TIP3   OH279650   3.735   0.289   4.861  0.4324  0.2469  0.4355
19412TIP3    H179651   3.742   0.314   4.953  0.9343  3.4070 -0.3491
19412TIP3    H279652   3.812   0.234   4.844  1.5856  1.5019  1.4091
19413TIP3   OH279653   2.763   1.857  11.705  0.1682 -0.6356  0.8169
19413TIP3    H179654   2.775   1.766  11.731  2.6463 -0.6058  0.0126
19413TIP3    H279655   2.715   1.852  11.622 -1.0754 -1.0897  1.5405
19414TIP3   OH279656   2.074   4.074   2.980 -0.4822  0.6375  0.1887
19414TIP3    H179657   2.064   4.074   3.075  0.5998  1.0852  0.3160
19414TIP3    H279658   2.095   3.983   2.957 -0.8193  0.5146  0.3613
19415TIP3   OH279659   2.952   2.997   2.226 -0.6109 -0.4517 -0.2132
19415TIP3    H179660   2.895   2.961   2.295  0.8128  0.7734  1.7055
19415TIP3    H279661   3.005   2.922   2.198 -0.0284 -0.6346  1.2874
19416TIP3   OH279662   4.176   2.043   3.260  0.9367  0.1839  0.4143
19416TIP3    H179663   4.135   2.086   3.336  1.1600 -1.8981  1.8092
19416TIP3    H279664   4.264   2.080   3.256  1.4803 -0.7691  2.2250
19417TIP3   OH279665   4.113   4.706   3.848  0.1798 -0.4176 -0.1042
19417TIP3    H179666   4.161   4.640   3.798  0.7456 -0.5763  0.6308
19417TIP3    H279667   4.159   4.711   3.932  2.0763  3.0023 -1.1317
19418TIP3   OH279668   5.435   6.484   5.578 -0.7874 -0.3706  0.1916
19418TIP3    H179669   5.498   6.441   5.520 -0.1707  0.4295  0.2506
19418TIP3    H279670   5.467   6.465   5.667  1.3347  2.6879  0.2589
19419TIP3   OH279671   2.322   5.114  11.860  0.4169  0.0921  0.1851
19419TIP3    H179672   2.237   5.085  11.893 -0.6903  1.4787 -1.2848
19419TIP3    H279673   2.340   5.195  11.908  1.2195 -0.4902  0.9016
19420TIP3   OH279674   4.707   6.730  11.800 -0.1770 -0.3866 -0.6834
19420TIP3    H179675   4.711   6.768  11.712 -0.0065  0.4927 -0.2986
19420TIP3    H279676   4.664   6.645  11.786 -2.4891  0.7901 -1.2863
19421TIP3   OH279677   2.898   6.436  14.094 -0.0739 -0.2724 -0.3187
19421TIP3    H179678   2.814   6.478  14.075  0.1907  0.1230 -0.6194
19421TIP3    H279679   2.964   6.497  14.062  0.3659 -0.0625  0.9338
19422TIP3   OH279680   4.876   4.327  11.896 -0.3735 -0.1826  0.2813
19422TIP3    H179681   4.937   4.387  11.853 -0.2309 -1.3111 -1.1499
19422TIP3    H279682   4.838   4.379  11.968 -0.6267  1.7749 -1.1882
19423TIP3   OH279683   5.278   5.359   0.825 -0.1936  0.4758  0.0501
19423TIP3    H179684   5.349   5.298   0.806  0.4600  1.2045  0.1150
19423TIP3    H279685   5.202   5.322   0.780  0.1687 -0.4220  0.1554
19424TIP3   OH279686   6.395   4.769   3.941 -0.4183  0.1250 -0.1574
19424TIP3    H179687   6.388   4.848   3.888  0.6439  0.0068 -0.5019
19424TIP3    H279688   6.482   4.734   3.921  0.1316  0.2087  1.8564
19425TIP3   OH279689   2.600   5.018  12.349  0.3584 -0.1969 -0.0946
19425TIP3    H179690   2.569   4.975  12.269 -2.3296  0.9825  0.1733
19425TIP3    H279691   2.583   4.955  12.418 -0.2489 -0.0712 -0.1197
19426TIP3   OH279692   2.818   1.936   1.399 -0.0604 -0.0646  0.0994
19426TIP3    H179693   2.864   1.953   1.316  0.4303  0.8579  0.5444
19426TIP3    H279694   2.805   1.841   1.399  1.0725 -0.2511 -0.4558
19427TIP3   OH279695   6.481   6.691  15.852 -0.1609 -0.4857  0.0570
19427TIP3    H179696   6.433   6.719  15.930 -1.1818 -0.3659 -0.5980
19427TIP3    H279697   6.439   6.737  15.780  1.1024 -0.1917 -0.5268
19428TIP3   OH279698   0.510   6.526  14.603  0.1992 -0.1253  0.5928
19428TIP3    H179699   0.462   6.606  14.624 -0.9059 -0.8702  0.9922
19428TIP3    H279700   0.454   6.479  14.542  0.6515 -0.7895  0.6756
19429TIP3   OH279701   6.570   3.017   3.167 -0.3921 -0.0210  0.2245
19429TIP3    H179702   6.489   2.974   3.139 -0.7684  1.1385 -0.5351
19429TIP3    H279703   6.635   2.987   3.105 -0.8884  1.2920 -0.9964
19430TIP3   OH279704   3.542   1.551  16.563  0.7374  0.0314 -0.3263
19430TIP3    H179705   3.623   1.524  16.607  0.8528 -0.3865 -0.7926
19430TIP3    H279706   3.504   1.470  16.532  0.5138  0.3024 -0.7627
19431TIP3   OH279707   2.028   2.868   4.485  0.0063 -0.2509 -0.0416
19431TIP3    H179708   2.008   2.789   4.536  0.5590 -1.0715 -1.0421
19431TIP3    H279709   1.956   2.872   4.421  0.4845 -0.4960 -0.6003
19432TIP3   OH279710   6.779   3.102   0.030 -0.0627  0.5122 -0.1825
19432TIP3    H179711   6.770   3.166  -0.042  1.1000  2.0910  0.9875
19432TIP3    H279712   6.733   3.142   0.103 -1.6414 -1.3081 -0.1330
19433TIP3   OH279713   6.479   6.015  16.014 -0.2438  0.1308 -0.2262
19433TIP3    H179714   6.471   5.945  15.949 -0.1472 -0.2030  0.1155
19433TIP3    H279715   6.391   6.023  16.051 -0.1578 -0.1022  0.0308
19434TIP3   OH279716   6.183   4.879   3.536  0.5891  0.5009  0.4376
19434TIP3    H179717   6.270   4.905   3.505  2.0459 -0.9030  2.9868
19434TIP3    H279718   6.177   4.786   3.514 -0.3209  0.6170  0.1849
19435TIP3   OH279719   6.576   0.294  11.653 -0.1237  0.2931 -0.2720
19435TIP3    H179720   6.589   0.316  11.745  0.4181 -1.1941  0.0305
19435TIP3    H279721   6.657   0.322  11.610  0.1472 -0.1911 -0.0739
19436TIP3   OH279722   2.363   0.244  16.088 -0.5661 -0.0499 -0.1823
19436TIP3    H179723   2.273   0.213  16.098 -0.5320  0.3584  1.7363
19436TIP3    H279724   2.407   0.216  16.168  0.5908  1.1558 -0.3619
19437TIP3   OH279725   0.521   4.490  11.408 -0.0737  0.3965 -0.1902
19437TIP3    H179726   0.560   4.534  11.333  0.5964  0.5755  0.2516
19437TIP3    H279727   0.594   4.476  11.469 -1.0016  2.7279  1.6323
19438TIP3   OH279728   5.149   1.385   0.883 -0.3399 -0.3737 -0.3388
19438TIP3    H179729   5.235   1.405   0.920 -0.7557  0.5922  0.1443
19438TIP3    H279730   5.089   1.444   0.929 -1.8395 -3.3132  1.8660
19439TIP3   OH279731   5.215   5.182   1.162 -0.0308 -0.1414 -0.2625
19439TIP3    H179732   5.164   5.172   1.242  1.2917 -0.2007  0.5974
19439TIP3    H279733   5.185   5.265   1.124  0.7878  0.9658  1.4030
19440TIP3   OH279734   3.615   4.396   0.822  0.1483  0.3380 -0.2976
19440TIP3    H179735   3.599   4.489   0.803  2.1724  0.2874 -2.8117
19440TIP3    H279736   3.592   4.351   0.740  1.3964 -1.0811  0.1020
19441TIP3   OH279737   1.756   4.511   3.707  0.0936  0.4517  0.7261
19441TIP3    H179738   1.662   4.493   3.704  0.2641 -0.4006 -1.6114
19441TIP3    H279739   1.763   4.605   3.688 -0.2259 -0.0300 -2.1787
19442TIP3   OH279740   6.015   0.822  15.702  0.5592 -0.5326  0.4011
19442TIP3    H179741   5.966   0.833  15.621  1.4393 -2.0666 -0.3800
19442TIP3    H279742   6.027   0.912  15.734 -2.3523 -0.0624  0.4532
19443TIP3   OH279743   0.738   4.709  11.536  0.3315  0.9274 -0.3547
19443TIP3    H179744   0.695   4.684  11.617 -0.5287 -0.2469 -1.1468
19443TIP3    H279745   0.676   4.767  11.492  0.2633  0.5720 -0.7332
19444TIP3   OH279746   6.618   1.254   1.685 -0.3989 -0.6778 -0.1510
19444TIP3    H179747   6.711   1.277   1.686 -0.5844  0.1133  0.3074
19444TIP3    H279748   6.599   1.232   1.594  0.0125  0.1350 -0.4441
19445TIP3   OH279749   6.093   0.160   5.595  0.2343  0.2217 -0.1511
19445TIP3    H179750   6.165   0.174   5.533 -0.8676 -0.2173 -1.5804
19445TIP3    H279751   6.119   0.081   5.643  0.2687 -0.5663 -1.3865
19446TIP3   OH279752   1.272   1.275   0.962 -0.2529 -0.2941  0.5291
19446TIP3    H179753   1.279   1.198   0.906 -1.1680  0.4499 -0.6506
19446TIP3    H279754   1.257   1.239   1.049 -1.7109 -1.4533 -0.1605
19447TIP3   OH279755   1.766   6.621  12.687 -0.1959  0.2471  0.1550
19447TIP3    H179756   1.772   6.679  12.611 -1.5339 -0.6971 -0.7002
19447TIP3    H279757   1.672   6.605  12.697 -0.2297  1.5608  2.9583
19448TIP3   OH279758   1.482   6.159   0.065 -0.4114 -0.2528  0.7876
19448TIP3    H179759   1.403   6.136   0.017  1.4182 -0.8157 -2.2031
19448TIP3    H279760   1.513   6.077   0.103 -1.0301 -0.1030  1.6316
19449TIP3   OH279761   4.125   5.851  11.416 -0.3143  0.4438  0.1636
19449TIP3    H179762   4.173   5.771  11.396 -2.5800 -0.7692 -0.7037
19449TIP3    H279763   4.043   5.843  11.368 -1.4683  2.3784  1.6602
19450TIP3   OH279764   0.804   2.998   2.687 -0.2134  0.4584 -0.2573
19450TIP3    H179765   0.728   2.941   2.676 -0.3497  0.1721  1.7070
19450TIP3    H279766   0.819   3.036   2.601 -0.0190 -2.6369 -1.7152
19451TIP3   OH279767   2.986   5.728   2.939  0.3110  0.7343  0.3497
19451TIP3    H179768   3.039   5.657   2.903 -0.4998 -0.3385  1.2014
19451TIP3    H279769   3.021   5.741   3.028 -0.6680  0.1913  0.8264
19452TIP3   OH279770   1.270   2.248   6.334  0.1866  0.6279  0.1749
19452TIP3    H179771   1.364   2.269   6.334  0.1575  0.7831 -0.2960
19452TIP3    H279772   1.231   2.315   6.390  0.5753 -0.5615  1.9353
19453TIP3   OH279773   2.480   1.803  12.412  0.1959 -0.2338  0.2504
19453TIP3    H179774   2.445   1.793  12.500 -2.0662  0.4473 -0.5174
19453TIP3    H279775   2.432   1.876  12.375  0.4691 -1.0498 -1.8426
19454TIP3   OH279776   1.689   1.735  13.390  0.3902  0.3389 -0.6916
19454TIP3    H179777   1.773   1.752  13.348  1.2153 -0.5879  0.5172
19454TIP3    H279778   1.670   1.815  13.440  0.0587  0.9163 -1.7047
19455TIP3   OH279779   1.020   4.487   5.361 -0.3804  0.8016  0.0489
19455TIP3    H179780   1.058   4.406   5.396 -0.5186  0.4180 -0.6633
19455TIP3    H279781   0.967   4.521   5.433 -2.2096 -1.0004 -0.3526
19456TIP3   OH279782   1.991   1.895  12.129  0.2138  1.0616 -0.3170
19456TIP3    H179783   1.982   1.990  12.129 -1.6388  0.9575  1.3098
19456TIP3    H279784   1.995   1.871  12.222  0.9825 -0.4432 -0.7002
19457TIP3   OH279785   2.007   6.671  10.661  0.5455 -0.3108  0.3308
19457TIP3    H179786   1.914   6.691  10.654  0.5739 -0.7088 -1.5910
19457TIP3    H279787   2.027   6.618  10.584  2.3144 -0.4647  0.8372
19458TIP3   OH279788   0.856   2.337   2.740 -0.0819 -0.0355 -0.4719
19458TIP3    H179789   0.861   2.325   2.645  2.2531  1.3148 -0.6000
19458TIP3    H279790   0.921   2.276   2.775 -1.2407 -0.8410  0.3238
19459TIP3   OH279791   2.290   6.201   0.758  0.4540 -0.0682  0.3444
19459TIP3    H179792   2.300   6.285   0.713 -0.3810 -0.0904  0.1047
19459TIP3    H279793   2.245   6.145   0.695  0.8596 -0.6494  0.5633
19460TIP3   OH279794   4.828   0.849  13.349 -0.3052  0.2423  0.1492
19460TIP3    H179795   4.749   0.848  13.296  0.0548 -4.2229 -0.6859
19460TIP3    H279796   4.797   0.839  13.439 -0.6882  1.6742  0.2099
19461TIP3   OH279797   0.370   1.467  11.598 -0.6263  0.2463  0.1518
19461TIP3    H179798   0.337   1.523  11.528 -0.0060  0.2373 -0.1580
19461TIP3    H279799   0.293   1.447  11.651 -0.8938  1.2348  0.1621
19462TIP3   OH279800   1.317   1.707  11.050  0.5745  0.0635 -0.0597
19462TIP3    H179801   1.268   1.626  11.053  1.4761 -0.4992 -0.1016
19462TIP3    H279802   1.407   1.680  11.033  0.6564  1.1635 -1.6280
19463TIP3   OH279803   4.365   5.658   4.739 -0.8508  0.5225 -0.2172
19463TIP3    H179804   4.302   5.593   4.708 -0.9174  0.5884 -0.2200
19463TIP3    H279805   4.389   5.628   4.826 -0.3770  0.1317 -0.4814
19464TIP3   OH279806   0.872   5.296  16.175  0.1438  0.0471  0.9365
19464TIP3    H179807   0.953   5.346  16.188  0.9239 -0.6628 -0.9249
19464TIP3    H279808   0.865   5.241  16.253  0.1245  1.8245  2.2653
19465TIP3   OH279809   0.608   1.117  16.025  0.0308 -0.7235  0.2906
19465TIP3    H179810   0.642   1.033  16.057  1.6055  0.1453  1.0416
19465TIP3    H279811   0.558   1.152  16.099  1.5807  0.1547  0.9645
19466TIP3   OH279812   3.443   5.273  15.384 -0.2490  0.2139  0.8033
19466TIP3    H179813   3.515   5.276  15.447  0.3813 -1.0622  0.1851
19466TIP3    H279814   3.460   5.194  15.332 -0.0738  1.8436 -1.7805
19467TIP3   OH279815   1.114   0.988  14.830  0.4749  0.7810 -0.1201
19467TIP3    H179816   1.032   0.981  14.781  0.8488  0.5984 -0.7321
19467TIP3    H279817   1.137   1.081  14.823  0.4766  0.7743 -0.2132
19468TIP3   OH279818   6.074   1.193   4.973 -0.2445 -0.5063 -0.4119
19468TIP3    H179819   6.033   1.262   4.920 -0.3921 -0.0992  0.2313
19468TIP3    H279820   6.163   1.186   4.939  0.7415  2.0355  1.3902
19469TIP3   OH279821   0.522   3.621  15.646  0.0334  0.4231  1.1589
19469TIP3    H179822   0.455   3.682  15.676  0.4969  0.3132  2.4863
19469TIP3    H279823   0.568   3.594  15.726  0.0168 -1.4732  0.5849
19470TIP3   OH279824   3.875   4.785   5.168  0.3022 -0.0083 -0.1051
19470TIP3    H179825   3.785   4.758   5.151  0.3604  0.4987 -1.3827
19470TIP3    H279826   3.886   4.776   5.263 -0.9407 -0.5018  0.0121
19471TIP3   OH279827   2.599   5.180  17.064  0.0737  0.2155  0.3559
19471TIP3    H179828   2.512   5.218  17.060  0.0054  0.0753  0.5126
19471TIP3    H279829   2.655   5.251  17.096  0.1035  0.4512 -0.2059
19472TIP3   OH279830   5.653   3.373   6.592 -0.4201 -0.6050 -0.9458
19472TIP3    H179831   5.668   3.465   6.573 -1.5751 -0.7296 -2.6923
19472TIP3    H279832   5.731   3.345   6.639 -0.1422  1.2901 -0.1805
19473TIP3   OH279833   2.798   4.785  11.373  0.2831  0.0290 -0.1375
19473TIP3    H179834   2.759   4.855  11.426  0.8848  0.0558  0.2733
19473TIP3    H279835   2.768   4.804  11.284  0.0094  0.5026  0.0502
19474TIP3   OH279836   6.622   0.558  11.367 -0.3711  0.0653 -0.2171
19474TIP3    H179837   6.539   0.533  11.407 -1.0506 -0.2784 -1.7713
19474TIP3    H279838   6.604   0.641  11.323  0.5882  0.8691  0.8383
19475TIP3   OH279839   4.567   1.459  13.725  0.2146  0.4388 -0.2914
19475TIP3    H179840   4.617   1.468  13.806 -1.0791 -0.7440  0.6889
19475TIP3    H279841   4.619   1.505  13.659 -0.0041  3.9426  1.7278
19476TIP3   OH279842   4.977   1.411   6.053 -0.2102 -0.5095 -0.0981
19476TIP3    H179843   5.070   1.393   6.066  0.4903  2.1528 -0.7953
19476TIP3    H279844   4.960   1.384   5.963  0.0598 -0.4145 -0.1799
19477TIP3   OH279845   0.326   0.532  12.979  0.0642  0.6162 -0.3433
19477TIP3    H179846   0.274   0.592  13.032 -1.8647  0.7740 -2.2828
19477TIP3    H279847   0.262   0.484  12.927  1.7767 -0.4166 -1.6015
19478TIP3   OH279848   4.723   0.776  17.197  0.2606  0.6592 -0.0360
19478TIP3    H179849   4.744   0.811  17.110  0.3180  0.8359  0.0480
19478TIP3    H279850   4.695   0.853  17.247  0.2415  0.5594  0.1064
19479TIP3   OH279851   1.568   5.788   3.469 -0.1439  0.4816 -0.0470
19479TIP3    H179852   1.549   5.809   3.560  0.2939 -1.1126  0.4413
19479TIP3    H279853   1.654   5.827   3.453  0.5204 -0.5990  0.7462
19480TIP3   OH279854   0.786   0.243  17.209 -0.2582 -0.1848  0.4229
19480TIP3    H179855   0.880   0.261  17.199 -0.4304  0.2401 -0.5568
19480TIP3    H279856   0.748   0.268  17.125 -1.2487 -0.4044  0.7945
19481TIP3   OH279857   0.531   0.418  11.009  0.2050  0.1002 -0.2603
19481TIP3    H179858   0.599   0.408  10.943  0.9912  1.5244  0.3031
19481TIP3    H279859   0.498   0.329  11.024  1.1635 -0.4473 -1.3463
19482TIP3   OH279860   1.977   4.887   2.699 -0.2626  0.7739 -0.1611
19482TIP3    H179861   1.940   4.799   2.703 -0.2293  0.6980 -1.1763
19482TIP3    H279862   1.940   4.926   2.620 -0.1905  1.6381  0.2138
19483TIP3   OH279863   5.331   0.133   0.363  0.1503  0.2381 -0.0190
19483TIP3    H179864   5.267   0.075   0.404 -0.2390  0.7013  0.0369
19483TIP3    H279865   5.412   0.117   0.412 -0.0243 -0.0528  0.1807
19484TIP3   OH279866   0.595   0.632  15.580 -0.1735 -0.4547  0.0516
19484TIP3    H179867   0.506   0.601  15.568  0.3189 -1.3016 -1.6737
19484TIP3    H279868   0.586   0.724  15.605 -1.5236 -0.7610  0.7800
19485TIP3   OH279869   3.281   5.031  13.040  0.0732 -0.2415 -0.6238
19485TIP3    H179870   3.207   5.051  12.981  1.6449  2.2826 -1.9464
19485TIP3    H279871   3.358   5.046  12.986  1.5930 -0.4485  1.3935
19486TIP3   OH279872   1.763   6.093   1.572 -0.1317 -0.2121  0.5705
19486TIP3    H179873   1.738   6.020   1.629  0.9111 -1.4012 -0.4350
19486TIP3    H279874   1.762   6.056   1.483 -2.8712  1.8802 -0.4244
19487TIP3   OH279875   3.284   1.688  17.215 -0.2761 -0.0995 -0.2138
19487TIP3    H179876   3.214   1.623  17.216 -1.5847  1.1378 -2.4104
19487TIP3    H279877   3.240   1.770  17.192  1.5221  1.3165  1.1205
19488TIP3   OH279878   1.871   5.403  15.489  0.8198  0.1388 -0.1810
19488TIP3    H179879   1.954   5.449  15.488  1.1134 -0.3886 -0.7578
19488TIP3    H279880   1.839   5.411  15.579  1.1410  0.9575 -0.1344
19489TIP3   OH279881   2.177   4.670   0.738  0.1771  0.0789 -1.0568
19489TIP3    H179882   2.206   4.696   0.651  1.0632  0.9965 -0.5186
19489TIP3    H279883   2.198   4.577   0.744  2.9437  0.6232 -0.7909
19490TIP3   OH279884   3.463   5.578  10.999 -0.3762  0.9466 -0.5015
19490TIP3    H179885   3.456   5.634  10.922  0.8405  1.0832 -0.5370
19490TIP3    H279886   3.533   5.516  10.978 -1.5466 -0.4864 -0.3881
19491TIP3   OH279887   1.695   5.782   5.460 -0.2867  0.3134 -0.0957
19491TIP3    H179888   1.695   5.708   5.520 -0.3799  0.6332  0.3092
19491TIP3    H279889   1.723   5.746   5.376  1.6971  0.2021  0.5727
19492TIP3   OH279890   0.266   1.725  12.900  0.1285  0.2805  0.0058
19492TIP3    H179891   0.340   1.686  12.945  0.2280 -0.7341 -0.9813
19492TIP3    H279892   0.234   1.655  12.842 -1.4745  0.7592  0.2746
19493TIP3   OH279893   4.990   3.500   4.654  0.6079 -0.3137  0.2686
19493TIP3    H179894   4.940   3.427   4.617 -0.1489 -0.1507  0.9530
19493TIP3    H279895   5.080   3.467   4.659  0.5741 -0.6496 -0.8755
19494TIP3   OH279896   5.408   5.564   2.843 -0.0956 -0.0512 -0.2574
19494TIP3    H179897   5.418   5.642   2.897  1.1867 -0.6874  0.4587
19494TIP3    H279898   5.419   5.490   2.903 -0.0564 -0.7841 -1.1310
19495TIP3   OH279899   3.426   0.985   0.139 -0.2086  0.5983 -0.5969
19495TIP3    H179900   3.504   0.953   0.094 -0.4470 -0.5614 -0.2203
19495TIP3    H279901   3.390   1.052   0.080  0.8070  0.8263 -0.9823
19496TIP3   OH279902   4.274   3.554  14.668  0.4653  0.2251 -0.2166
19496TIP3    H179903   4.299   3.472  14.625  0.0682 -0.4800  0.8401
19496TIP3    H279904   4.178   3.548  14.677  0.6138 -0.1487  1.6498
19497TIP3   OH279905   3.394   1.818  14.767 -0.0200  0.1778  0.3260
19497TIP3    H179906   3.315   1.851  14.725  1.4471  1.0056 -1.9093
19497TIP3    H279907   3.411   1.734  14.724  0.9125  0.5186  0.0103
19498TIP3   OH279908   5.226   0.419   0.797  0.2929 -0.4296 -0.2758
19498TIP3    H179909   5.183   0.333   0.791  0.5122 -0.6793  1.2962
19498TIP3    H279910   5.318   0.401   0.779  0.6674 -0.8941  1.7823
19499TIP3   OH279911   5.457   5.394   1.651  0.1421 -0.0264 -0.3500
19499TIP3    H179912   5.542   5.350   1.656  0.6655  1.0101  0.3243
19499TIP3    H279913   5.421   5.368   1.566  0.3591 -1.8302  0.0852
19500TIP3   OH279914   5.231   0.498  13.519  0.3223  0.5072  0.3203
19500TIP3    H179915   5.240   0.575  13.462  2.0794  0.6363  0.6981
19500TIP3    H279916   5.226   0.534  13.607 -2.0545  0.2897  0.3448
19501TIP3   OH279917   5.229   0.145  16.238 -0.1300  0.1335  0.2397
19501TIP3    H179918   5.145   0.177  16.204  1.4783  1.7727 -2.5088
19501TIP3    H279919   5.295   0.201  16.197  2.3702 -1.1964  2.1699
19502TIP3   OH279920   0.843   6.605   1.487  0.7586 -0.1205  0.4399
19502TIP3    H179921   0.897   6.683   1.476  0.4897  0.2670  1.7055
19502TIP3    H279922   0.758   6.638   1.515 -0.1651 -0.7287 -1.4674
19503TIP3   OH279923   6.397   0.727   2.339 -0.3902  0.0291  0.6749
19503TIP3    H179924   6.344   0.697   2.266 -2.3497  0.8288  1.6963
19503TIP3    H279925   6.485   0.735   2.303 -1.0763 -0.6443 -1.2799
19504TIP3   OH279926   4.361   4.067  12.802 -0.3864  0.3426  0.7888
19504TIP3    H179927   4.380   4.013  12.726 -1.0480  1.1268  0.0390
19504TIP3    H279928   4.371   4.008  12.877  0.2245 -0.4563  0.0999
19505TIP3   OH279929   2.030   5.685   2.381 -0.1602  0.0904 -0.1675
19505TIP3    H179930   1.936   5.693   2.399 -0.4664 -2.3472 -0.3138
19505TIP3    H279931   2.049   5.753   2.317 -2.2428 -0.4783 -1.4777
19506TIP3   OH279932   6.115   0.141  13.560  0.1812  0.4078 -0.1113
19506TIP3    H179933   6.163   0.210  13.515  1.9293 -1.0884 -0.6975
19506TIP3    H279934   6.086   0.181  13.642  1.1581  1.8211 -0.4234
19507TIP3   OH279935   2.072   4.441  12.247 -0.3767 -0.5238 -0.1653
19507TIP3    H179936   1.980   4.440  12.221 -0.0305  0.2597 -1.5178
19507TIP3    H279937   2.079   4.373  12.314 -2.0811 -0.0713  0.5136
19508TIP3   OH279938   3.477   6.165  11.561  0.4011 -0.0849 -0.1558
19508TIP3    H179939   3.517   6.086  11.597 -0.2595 -0.5039 -0.3385
19508TIP3    H279940   3.467   6.147  11.468 -0.7507 -0.2191 -0.0216
19509TIP3   OH279941   5.857   0.479   4.416 -0.0804  1.1150  0.4878
19509TIP3    H179942   5.856   0.447   4.326  0.5695  0.9997  0.5176
19509TIP3    H279943   5.770   0.516   4.429 -0.9206 -0.7643  0.4909
19510TIP3   OH279944   4.264   4.423   0.526 -0.4893  0.2675 -0.6248
19510TIP3    H179945   4.331   4.394   0.587  1.2679  2.8436 -1.1737
19510TIP3    H279946   4.305   4.493   0.476 -3.2621  1.2267 -1.7742
19511TIP3   OH279947   1.719   4.236   3.060  0.3647 -0.0745  0.4892
19511TIP3    H179948   1.661   4.302   3.097 -1.4265 -0.4214 -1.4779
19511TIP3    H279949   1.750   4.186   3.135 -1.7253  0.2841  1.6713
19512TIP3   OH279950   5.217   4.264  11.582 -0.1291  0.1371  0.2555
19512TIP3    H179951   5.293   4.315  11.611 -0.1324  0.1262  0.2833
19512TIP3    H279952   5.143   4.299  11.631 -0.4224  1.1768 -0.8746
19513TIP3   OH279953   1.693   1.240  15.954 -0.2336  0.2803 -0.5745
19513TIP3    H179954   1.759   1.304  15.929  0.0354 -0.4306 -1.7510
19513TIP3    H279955   1.673   1.192  15.873 -1.2239 -0.3905  0.0384
19514TIP3   OH279956   5.445   2.692  13.986 -0.5457  0.3315  0.1491
19514TIP3    H179957   5.467   2.599  13.998  0.4513 -0.0624 -3.6652
19514TIP3    H279958   5.350   2.692  13.973 -0.6602 -0.0324  0.9337
19515TIP3   OH279959   5.798   3.776  14.114  0.2286 -0.3120  0.4101
19515TIP3    H179960   5.869   3.758  14.175  1.5607 -0.2819 -1.0723
19515TIP3    H279961   5.827   3.738  14.031 -2.3941 -2.0981  0.1997
19516TIP3   OH279962   4.064   1.142   3.895  0.0688 -0.5778  0.1787
19516TIP3    H179963   4.143   1.183   3.861  0.2882  0.3253  1.6849
19516TIP3    H279964   3.995   1.208   3.882 -0.3596 -1.1770 -0.6965
19517TIP3   OH279965   5.391   2.490   1.936 -0.0494 -0.3235 -0.3352
19517TIP3    H179966   5.485   2.504   1.946 -0.0856 -0.4243  0.1858
19517TIP3    H279967   5.351   2.558   1.991 -0.2992  0.2111 -1.1585
19518TIP3   OH279968   3.064   1.289   0.490 -0.3953  0.1174 -0.1948
19518TIP3    H179969   3.021   1.318   0.410 -0.7768  0.2190  0.0450
19518TIP3    H279970   3.157   1.291   0.469 -0.5337 -0.7757 -0.9409
19519TIP3   OH279971   1.292   1.374   0.299 -0.4875  0.5062  0.1673
19519TIP3    H179972   1.211   1.377   0.248 -0.2385  0.8198 -0.2209
19519TIP3    H279973   1.355   1.331   0.241 -0.5002 -0.1689  0.6495
19520TIP3   OH279974   5.030   0.459  12.000  0.1930  0.2218 -0.2487
19520TIP3    H179975   5.022   0.415  12.084 -0.5884  1.0188  0.1222
19520TIP3    H279976   4.953   0.430  11.950  0.1187  0.5056 -0.3060
19521TIP3   OH279977   0.193   3.843   3.874 -0.6331  0.3456 -0.1444
19521TIP3    H179978   0.148   3.879   3.798 -0.0390  1.5744  0.0660
19521TIP3    H279979   0.144   3.763   3.894 -2.1824  1.1624 -0.4524
19522TIP3   OH279980   3.723   0.888  13.041  0.2388 -0.1042  0.0368
19522TIP3    H179981   3.671   0.924  12.969  0.7897 -1.5415 -1.1040
19522TIP3    H279982   3.814   0.896  13.012  0.3941 -2.1451 -0.1569
19523TIP3   OH279983   4.275   0.164  13.065 -0.8106  0.0851 -0.7531
19523TIP3    H179984   4.226   0.204  13.136  0.0516  0.7840 -0.5365
19523TIP3    H279985   4.291   0.074  13.094  1.3916  0.9285  0.9741
19524TIP3   OH279986   4.322   5.164  16.685  0.2029 -0.2836  0.3785
19524TIP3    H179987   4.316   5.111  16.606 -0.3450  2.8226 -1.8375
19524TIP3    H279988   4.409   5.204  16.681  0.1873 -0.1019  1.3991
19525TIP3   OH279989   5.752   3.392  11.232  0.3135  0.1981 -0.3748
19525TIP3    H179990   5.804   3.469  11.207 -0.3844  0.7499 -0.1709
19525TIP3    H279991   5.661   3.418  11.213  0.2092 -1.3174 -2.2366
19526TIP3   OH279992   3.243   6.556  12.291 -0.1114  0.3000 -0.6064
19526TIP3    H179993   3.245   6.638  12.241  1.0492  0.8341  0.2587
19526TIP3    H279994   3.196   6.579  12.371 -2.6783 -0.7549 -1.7069
19527TIP3   OH279995   2.426   6.653  11.672  0.5113  0.1362 -0.5743
19527TIP3    H179996   2.495   6.587  11.674  1.7559  1.2455  3.7702
19527TIP3    H279997   2.466   6.727  11.625  1.2273 -0.2064 -0.5195
19528TIP3   OH279998   3.093   5.689   3.942 -0.1191  0.1039  0.2793
19528TIP3    H179999   3.091   5.597   3.967  1.7279  0.5040  2.1701
19528TIP3    H280000   3.185   5.709   3.926 -0.6976  1.1717 -2.1449
19529TIP3   OH280001   0.191   6.566   5.303 -0.9020  0.0016  0.0201
19529TIP3    H180002   0.187   6.659   5.327 -0.3161  0.3727 -1.2192
19529TIP3    H280003   0.278   6.538   5.330 -0.9260 -0.0703  0.0228
19530TIP3   OH280004   2.239   1.210  15.702 -0.0709 -0.2119 -0.1113
19530TIP3    H180005   2.327   1.221  15.737  0.9448 -1.0714 -2.2301
19530TIP3    H280006   2.227   1.115  15.697 -2.7759 -0.3411  3.8333
19531TIP3   OH280007   6.553   3.267   3.038 -0.3838  0.8372 -0.0150
19531TIP3    H180008   6.637   3.310   3.022 -0.1243  0.4701  0.3608
19531TIP3    H280009   6.568   3.213   3.116 -0.7768  0.2499 -0.3435
19532TIP3   OH280010   1.224   2.449  11.899 -0.3930 -0.0549  0.1118
19532TIP3    H180011   1.288   2.446  11.827  0.0754 -1.9958  0.5612
19532TIP3    H280012   1.179   2.533  11.887  0.3155  0.0996 -1.8816
19533TIP3   OH280013   3.181   1.329  16.840  0.5333  0.2994 -0.0382
19533TIP3    H180014   3.271   1.331  16.870  1.0654  2.5282 -1.5095
19533TIP3    H280015   3.187   1.294  16.751 -0.4145 -1.8036  0.6599
19534TIP3   OH280016   6.053   3.313   4.353  0.0741 -0.6599 -0.1585
19534TIP3    H180017   5.982   3.258   4.386  0.2974 -0.6497  0.3418
19534TIP3    H280018   6.055   3.387   4.413 -2.6083  1.8232 -2.7971
19535TIP3   OH280019   4.715   4.657  12.373 -0.3856  0.3327 -0.0886
19535TIP3    H180020   4.681   4.641  12.460  0.8187 -0.8060  0.2046
19535TIP3    H280021   4.643   4.636  12.314 -0.5312 -1.0022  0.5430
19536TIP3   OH280022   1.900   2.562  11.823  0.4126  0.2023  0.3336
19536TIP3    H180023   1.980   2.587  11.870  0.2950  0.2759  0.4966
19536TIP3    H280024   1.874   2.641  11.776  0.3621  0.2188  0.3882
19537TIP3   OH280025   0.155   3.675   0.311  0.7597  0.2500 -0.1254
19537TIP3    H180026   0.152   3.685   0.406  1.2840 -2.6023  0.2616
19537TIP3    H280027   0.066   3.649   0.287  0.8477  0.0937 -0.2849
19538TIP3   OH280028   4.810   1.501  15.674  0.0060  0.6701  0.7131
19538TIP3    H180029   4.881   1.492  15.610  0.1602  0.7066  0.8781
19538TIP3    H280030   4.820   1.589  15.709 -0.9476  1.1813 -0.2385
19539TIP3   OH280031   2.856   1.315   3.178  0.1302  0.0563 -0.3575
19539TIP3    H180032   2.875   1.312   3.084 -1.1861 -0.8916 -0.6270
19539TIP3    H280033   2.909   1.387   3.211  1.9780 -0.7127 -1.4945
19540TIP3   OH280034   5.849   5.801   2.981 -0.4247 -0.1851  0.0670
19540TIP3    H180035   5.892   5.778   2.899 -1.1666  1.1680 -0.7278
19540TIP3    H280036   5.787   5.730   2.997 -1.3604  0.2709 -1.3640
19541TIP3   OH280037   2.267   4.442   4.228  0.2589  0.4976 -0.0448
19541TIP3    H180038   2.215   4.520   4.208  1.1193  0.9044 -0.7743
19541TIP3    H280039   2.294   4.453   4.319 -1.5813 -0.1240  0.6315
19542TIP3   OH280040   0.445   3.669   5.806 -0.0244 -0.2184 -0.4096
19542TIP3    H180041   0.468   3.699   5.718  0.3810 -0.3027 -0.3363
19542TIP3    H280042   0.363   3.715   5.827  0.9350  1.4114 -0.0216
19543TIP3   OH280043   5.351   2.736   0.214  0.5111  0.1682 -0.2470
19543TIP3    H180044   5.400   2.713   0.292  0.5811 -0.2327 -0.4066
19543TIP3    H280045   5.404   2.804   0.172 -0.8678  2.4315  1.4634
19544TIP3   OH280046   0.637   1.809  11.414  0.1610  0.0476 -0.0543
19544TIP3    H180047   0.639   1.812  11.510  1.4889 -0.7240 -0.0328
19544TIP3    H280048   0.545   1.793  11.393  0.1514 -2.0173  1.2108
19545TIP3   OH280049   5.945   5.567  14.360 -0.2768 -0.0084 -0.4480
19545TIP3    H180050   5.968   5.646  14.312  0.5833  0.4361  0.6552
19545TIP3    H280051   6.028   5.535  14.395 -0.6712 -1.1688 -0.5117
19546TIP3   OH280052   1.377   4.111   6.297  0.6126 -0.3132 -0.9395
19546TIP3    H180053   1.438   4.079   6.363  1.3002  2.0615 -0.3225
19546TIP3    H280054   1.290   4.096   6.335  0.9886  0.7241  0.4117
19547TIP3   OH280055   3.366   4.591  13.697 -0.1121 -0.0172  0.1785
19547TIP3    H180056   3.304   4.634  13.637 -0.3522 -0.0465  0.4011
19547TIP3    H280057   3.319   4.513  13.727  0.4702 -0.6621 -0.5340
19548TIP3   OH280058   4.417   3.909  13.008 -0.1375 -0.2728 -0.2406
19548TIP3    H180059   4.426   3.938  13.099  0.7145 -0.2580 -0.3250
19548TIP3    H280060   4.397   3.816  13.014 -0.3202 -0.2223 -0.0365
19549TIP3   OH280061   1.392   2.115  12.619  0.0137 -0.3402  0.6661
19549TIP3    H180062   1.352   2.040  12.661 -1.0383  0.3746  0.9880
19549TIP3    H280063   1.448   2.078  12.551  0.1397 -1.4284  1.3529
19550TIP3   OH280064   5.442   5.181  12.116  0.0199 -0.8357 -0.3757
19550TIP3    H180065   5.432   5.119  12.188  1.2921 -0.3866  0.2272
19550TIP3    H280066   5.468   5.128  12.041 -1.5005 -1.3298 -0.5883
19551TIP3   OH280067   2.804   1.132   5.648  0.1634  0.8604 -0.0465
19551TIP3    H180068   2.840   1.204   5.596  0.2910 -0.6488 -2.1774
19551TIP3    H280069   2.709   1.143   5.640  0.1823  0.5172 -0.7919
19552TIP3   OH280070   5.614   0.505   4.812  0.3420  0.0734 -0.3564
19552TIP3    H180071   5.627   0.542   4.899 -0.2737 -0.4178 -0.0493
19552TIP3    H280072   5.618   0.581   4.753 -0.4667  0.5764  0.2202
19553TIP3   OH280073   4.920   4.924   1.245  0.0274 -0.3870 -0.7183
19553TIP3    H180074   4.936   4.831   1.228  0.1579 -0.7663  1.3061
19553TIP3    H280075   4.824   4.933   1.243 -0.1958 -1.2639  2.1324
19554TIP3   OH280076   5.581   4.651   1.921 -0.5474 -0.5338 -0.4905
19554TIP3    H180077   5.499   4.693   1.898  0.0476  0.8759 -0.1321
19554TIP3    H280078   5.562   4.603   2.002 -1.3288 -1.3013 -1.1097
19555TIP3   OH280079   4.048   1.435   4.073  0.1979 -0.3236 -0.2498
19555TIP3    H180080   4.090   1.356   4.107 -0.0944 -1.1350 -1.6578
19555TIP3    H280081   4.095   1.508   4.113  1.5213 -1.2213 -0.1396
19556TIP3   OH280082   5.744   4.520   2.200 -0.3442  0.1925  0.0244
19556TIP3    H180083   5.692   4.596   2.226 -1.3714  0.1273 -1.7321
19556TIP3    H280084   5.754   4.469   2.281 -0.2141  1.8243  1.0789
19557TIP3   OH280085   3.904   6.385   5.159  0.4393  0.5272 -0.1230
19557TIP3    H180086   3.850   6.445   5.211  1.2101  0.7853  0.4042
19557TIP3    H280087   3.858   6.378   5.076  1.2490  3.3690 -0.9307
19558TIP3   OH280088   2.543   0.017  12.784  0.6624 -0.0128 -0.0113
19558TIP3    H180089   2.456  -0.020  12.766  0.8788 -1.2623  1.2903
19558TIP3    H280090   2.603  -0.031  12.728  0.5746  0.5978 -0.6433
19559TIP3   OH280091   0.908   5.060  15.555  0.7346  0.0456 -0.3489
19559TIP3    H180092   0.874   5.028  15.639  0.1781 -0.3759 -0.7303
19559TIP3    H280093   1.003   5.047  15.562  1.0170  2.3956  1.2069
19560TIP3   OH280094   0.450   3.412   0.113  0.1411  0.0989  0.1097
19560TIP3    H180095   0.394   3.481   0.079  2.4640  2.1880  0.2318
19560TIP3    H280096   0.433   3.337   0.057 -1.4379  1.1912 -0.9431
19561TIP3   OH280097   4.318   1.089   4.410  0.0024 -0.0681  0.1272
19561TIP3    H180098   4.231   1.058   4.435 -0.1440  1.1263  1.1878
19561TIP3    H280099   4.327   1.174   4.453  0.0339  1.8542 -3.2861
19562TIP3   OH280100   2.091   6.387   2.015 -0.1480  0.2206 -0.3212
19562TIP3    H180101   2.009   6.392   1.966 -0.0924  0.1692 -0.4195
19562TIP3    H280102   2.145   6.326   1.965 -0.0470  0.2599 -0.2599
19563TIP3   OH280103   3.436   4.270   4.400 -0.3314 -0.5607 -0.1304
19563TIP3    H180104   3.354   4.220   4.398 -1.6536  1.4946 -0.4449
19563TIP3    H280105   3.494   4.219   4.456 -1.7845 -2.1372  0.0158
19564TIP3   OH280106   6.500   5.525   3.810  0.0411  0.2043  0.1630
19564TIP3    H180107   6.531   5.477   3.733  0.5524 -1.0353  1.1117
19564TIP3    H280108   6.405   5.509   3.811  0.2783 -1.2818  0.7743
19565TIP3   OH280109   5.107   3.101   2.822 -0.1896 -0.0318  0.5006
19565TIP3    H180110   5.066   3.064   2.901 -1.3048  1.6815  0.7846
19565TIP3    H280111   5.060   3.060   2.749 -0.6629  0.0169  0.7737
19566TIP3   OH280112   2.217   1.544   3.903 -0.3361  0.3723  0.1564
19566TIP3    H180113   2.183   1.471   3.955 -0.0796 -0.3700 -0.7003
19566TIP3    H280114   2.150   1.612   3.912  0.4007  0.8559  2.6975
19567TIP3   OH280115   1.273   0.864   5.371  0.9483 -0.6820 -0.1384
19567TIP3    H180116   1.271   0.959   5.380  0.6134 -0.7010  0.0280
19567TIP3    H280117   1.324   0.834   5.446  0.5526 -0.6663  0.1424
19568TIP3   OH280118   1.824   6.185   0.087 -0.2949 -0.4071 -0.3231
19568TIP3    H180119   1.832   6.276   0.060 -2.4362 -0.3324 -0.8412
19568TIP3    H280120   1.782   6.189   0.173  0.6634 -0.8922  0.1907
19569TIP3   OH280121   3.509   1.538  13.198  0.2931 -0.4217 -0.1632
19569TIP3    H180122   3.515   1.550  13.103  1.2053 -0.2797 -0.0937
19569TIP3    H280123   3.521   1.625  13.235 -1.6051 -0.2024  0.0547
19570TIP3   OH280124   6.022   1.562  10.336 -0.4012 -0.0851  0.6679
19570TIP3    H180125   6.083   1.515  10.393  2.8623  1.4035 -1.2411
19570TIP3    H280126   6.026   1.653  10.367 -0.1098  0.3759 -0.6454
19571TIP3   OH280127   4.117   1.424   0.667 -0.4629 -0.5362 -0.0310
19571TIP3    H180128   4.030   1.385   0.654 -0.7187  0.0376 -0.0743
19571TIP3    H280129   4.162   1.363   0.724 -0.9011 -0.8392 -0.0041
19572TIP3   OH280130   4.144   1.464   5.455  0.5914  0.1865  0.5222
19572TIP3    H180131   4.157   1.372   5.477  2.2363  0.2607  0.0064
19572TIP3    H280132   4.216   1.485   5.397  0.6250  1.9710  1.1444
19573TIP3   OH280133   1.028   1.395  11.227  0.8512 -0.3814 -0.2556
19573TIP3    H180134   0.943   1.412  11.185 -0.5511  0.5236  2.6583
19573TIP3    H280135   1.034   1.461  11.296  4.5094  0.2827 -1.0227
19574TIP3   OH280136   3.299   6.437   3.997 -0.9064 -1.1080 -0.8551
19574TIP3    H180137   3.245   6.364   3.967 -1.9591  0.1739 -2.2253
19574TIP3    H280138   3.386   6.399   4.009 -1.9740 -3.2194  1.3027
19575TIP3   OH280139   4.669   6.195   2.787 -0.0307  0.3413 -0.0681
19575TIP3    H180140   4.639   6.181   2.876 -0.8916 -1.7127 -0.6250
19575TIP3    H280141   4.677   6.107   2.750  1.2360  1.0992 -1.7246
19576TIP3   OH280142   4.496   1.572  15.170 -0.0025 -0.4947 -0.1160
19576TIP3    H180143   4.497   1.635  15.242  1.1274 -1.8083  1.1081
19576TIP3    H280144   4.583   1.579  15.131 -0.1512 -0.7255 -0.4989
19577TIP3   OH280145   0.104   6.673   5.894 -0.5851 -0.1633  0.2176
19577TIP3    H180146   0.144   6.756   5.869  0.5225 -1.1801 -1.5781
19577TIP3    H280147   0.091   6.679   5.988 -2.5637  2.8962 -0.1293
19578TIP3   OH280148   4.120   4.561   4.768 -0.2161 -0.4382 -0.1160
19578TIP3    H180149   4.072   4.535   4.689 -0.9905 -1.1972  0.5912
19578TIP3    H280150   4.126   4.482   4.820 -2.1839  0.6034  1.8613
19579TIP3   OH280151   1.604   3.392  13.531 -0.0101 -0.0802 -0.2472
19579TIP3    H180152   1.527   3.435  13.494  0.2989 -0.2072 -1.0501
19579TIP3    H280153   1.674   3.456  13.524 -0.0616  0.0789  0.5928
19580TIP3   OH280154   5.842   4.518   3.488 -0.7004 -0.2518 -0.1921
19580TIP3    H180155   5.857   4.425   3.503  1.6779  0.1977  0.6289
19580TIP3    H280156   5.796   4.548   3.566  1.9030 -0.0722  1.3847
19581TIP3   OH280157   3.532   6.359  11.835 -0.1661 -0.1129  0.1997
19581TIP3    H180158   3.525   6.327  11.925  1.0672  0.0120  0.3573
19581TIP3    H280159   3.473   6.302  11.785 -0.8637 -0.1847  1.0808
19582TIP3   OH280160   6.379   0.139   0.435 -0.6109  0.4962  0.3126
19582TIP3    H180161   6.336   0.079   0.497  0.0814 -0.2122  0.1238
19582TIP3    H280162   6.313   0.155   0.367 -0.1966 -1.5951 -0.6543
19583TIP3   OH280163   5.829   5.417   2.959  0.1071  0.1329 -0.5484
19583TIP3    H180164   5.833   5.436   3.053  3.1265 -0.2616 -0.4998
19583TIP3    H280165   5.835   5.503   2.917  1.0360  0.1803 -0.3438
19584TIP3   OH280166   3.892   0.434   6.120  0.0068  0.0162  0.1499
19584TIP3    H180167   3.813   0.380   6.119 -0.6771  0.9806  0.4755
19584TIP3    H280168   3.964   0.373   6.104 -0.7812 -0.9186  0.1356
19585TIP3   OH280169   4.391   2.860   0.909 -0.1797  0.0785 -0.4042
19585TIP3    H180170   4.472   2.907   0.929 -1.6161  2.0255  1.3878
19585TIP3    H280171   4.410   2.769   0.930  1.8791  0.2645 -1.2196
19586TIP3   OH280172   3.697   1.198  13.602  0.1462 -0.3391  0.3972
19586TIP3    H180173   3.677   1.191  13.695 -1.6154 -1.9785 -0.0254
19586TIP3    H280174   3.739   1.115  13.580  2.2564  0.7645  0.0529
19587TIP3   OH280175   5.134   0.657   4.209  0.6532  0.1405 -0.3099
19587TIP3    H180176   5.106   0.741   4.174  0.5066  0.2099 -0.0262
19587TIP3    H280177   5.229   0.658   4.202  0.6978  0.6047  0.3165
19588TIP3   OH280178   5.338   0.864   3.975  0.1341  0.6617 -0.0033
19588TIP3    H180179   5.257   0.813   3.977  0.3579  0.2852  2.0261
19588TIP3    H280180   5.330   0.919   3.898 -1.0157 -1.0077 -1.1545
19589TIP3   OH280181   1.998   1.758  14.646 -0.3248 -0.0458 -0.0232
19589TIP3    H180182   2.068   1.770  14.581  0.0333 -0.2883  0.3135
19589TIP3    H280183   2.009   1.667  14.675 -0.7646 -0.0756  0.0539
19590TIP3   OH280184   0.558   0.638   5.434 -0.2919 -0.1727 -0.3355
19590TIP3    H180185   0.507   0.625   5.355  1.2588 -0.2373 -1.3834
19590TIP3    H280186   0.649   0.637   5.404  0.2900  2.0703  1.1132
19591TIP3   OH280187   5.588   1.661   5.531 -0.0005  0.3281  0.4714
19591TIP3    H180188   5.565   1.752   5.552 -0.7401 -0.2169  2.2095
19591TIP3    H280189   5.523   1.609   5.579  1.1568 -1.1376  0.5018
19592TIP3   OH280190   2.577   6.360   2.513 -0.1227  0.0387  0.0925
19592TIP3    H180191   2.578   6.407   2.597  1.3655 -1.1376  0.7829
19592TIP3    H280192   2.641   6.289   2.525 -1.5678 -1.5787 -1.2372
19593TIP3   OH280193   0.211   4.799  12.118 -0.5371  0.0657  0.0969
19593TIP3    H180194   0.193   4.885  12.079  0.2175  0.5832  0.8404
19593TIP3    H280195   0.155   4.797  12.196 -1.2704 -0.5320 -0.4336
19594TIP3   OH280196   5.379   4.545   0.115 -0.1923  0.2519  0.8236
19594TIP3    H180197   5.450   4.518   0.172 -0.5796 -0.1565  1.1105
19594TIP3    H280198   5.420   4.610   0.056  0.2904  0.3998  1.3114
19595TIP3   OH280199   0.163   3.411  15.442 -0.6877  0.2120 -0.4136
19595TIP3    H180200   0.189   3.499  15.414 -0.8185  0.3265 -0.1838
19595TIP3    H280201   0.212   3.395  15.522  0.4832 -0.5410 -1.2483
19596TIP3   OH280202   5.969   2.218  12.214 -0.8951 -0.0785 -0.4235
19596TIP3    H180203   5.894   2.179  12.260 -0.7362  1.4356  1.1996
19596TIP3    H280204   5.977   2.305  12.251  1.8367 -0.2677 -0.4117
19597TIP3   OH280205   6.592   1.906  15.760 -0.0514 -0.0619  0.1407
19597TIP3    H180206   6.599   1.850  15.683 -1.9225 -1.0378  0.6336
19597TIP3    H280207   6.573   1.993  15.725  2.0645  0.1545 -0.5922
19598TIP3   OH280208   3.028   1.125   4.701 -0.5010  0.0725 -0.5245
19598TIP3    H180209   2.970   1.157   4.770 -0.4326  0.0069 -0.4374
19598TIP3    H280210   2.970   1.079   4.641 -0.2918 -1.7559  0.5887
19599TIP3   OH280211   4.353   4.352  13.061 -0.0934 -0.9456 -0.4517
19599TIP3    H180212   4.427   4.341  13.001  0.9934 -0.2805  0.6991
19599TIP3    H280213   4.276   4.356  13.005  0.7204 -1.8375 -1.6841
19600TIP3   OH280214   6.643   5.906   3.106  0.7767 -0.1412 -0.2416
19600TIP3    H180215   6.565   5.880   3.057  0.5864 -2.4005  1.1099
19600TIP3    H280216   6.608   5.953   3.183  0.6582 -1.5532  0.6030
19601TIP3   OH280217   1.140   2.432   6.518  0.1437 -0.3009  0.1410
19601TIP3    H180218   1.153   2.507   6.575 -0.5643 -0.0253 -0.0551
19601TIP3    H280219   1.199   2.365   6.553  0.7193  0.3111  0.3674
19602TIP3   OH280220   5.816   6.400   4.562  0.3700 -0.0517 -0.2897
19602TIP3    H180221   5.741   6.460   4.568 -0.3603 -0.8135 -1.4232
19602TIP3    H280222   5.831   6.389   4.468  0.5064 -1.6020 -0.1097
19603TIP3   OH280223   3.046   6.658   4.491 -0.5213  0.1277  0.2527
19603TIP3    H180224   3.034   6.730   4.553  0.0464 -0.7657  1.4458
19603TIP3    H280225   3.133   6.624   4.510 -0.8916 -1.0601 -0.0714
19604TIP3   OH280226   6.768   1.461  15.949  0.0262  0.4722 -0.1228
19604TIP3    H180227   6.767   1.555  15.937  1.4836  0.4182 -0.9488
19604TIP3    H280228   6.708   1.445  16.022  0.4103  2.1093  0.5974
19605TIP3   OH280229   3.813   4.545   3.915 -0.5348 -0.4835  0.3731
19605TIP3    H180230   3.895   4.594   3.906 -2.2584  2.2956 -3.0185
19605TIP3    H280231   3.793   4.548   4.008  2.2217  0.4271  1.0287
19606TIP3   OH280232   1.966   1.346   6.287 -0.7301 -0.0469 -0.2111
19606TIP3    H180233   2.060   1.357   6.302 -0.6909 -1.1359  0.4432
19606TIP3    H280234   1.927   1.341   6.374 -1.0052 -2.4800 -0.3929
19607TIP3   OH280235   5.245   2.420  17.215 -0.1877 -0.1869  0.0895
19607TIP3    H180236   5.200   2.503  17.228  0.6799  0.2179  0.5850
19607TIP3    H280237   5.335   2.436  17.246 -0.4600 -1.8156  1.8947
19608TIP3   OH280238   4.421   3.051  13.408 -0.1142 -0.7379 -0.3857
19608TIP3    H180239   4.418   2.971  13.461 -3.0978  0.7261  2.0042
19608TIP3    H280240   4.357   3.036  13.339  0.7196 -1.0828 -1.0964
19609TIP3   OH280241   6.549   1.921  11.309 -0.2595 -0.4490 -0.0865
19609TIP3    H180242   6.556   1.863  11.385  1.4792  1.2197  1.1205
19609TIP3    H280243   6.492   1.992  11.339  0.2914  0.1262 -0.3981
19610TIP3   OH280244   5.308   2.933  14.673 -0.1101 -0.0781  0.3292
19610TIP3    H180245   5.262   2.851  14.655 -2.3487  1.2464 -0.4602
19610TIP3    H280246   5.383   2.932  14.614 -1.4113 -0.5604 -1.3914
19611TIP3   OH280247   0.824   4.662  14.614  0.3375  0.0177  0.3121
19611TIP3    H180248   0.779   4.685  14.532 -1.5366 -2.9826  0.3894
19611TIP3    H280249   0.903   4.617  14.585 -0.2267 -0.8684  0.1000
19612TIP3   OH280250   4.484   0.945   4.240  0.7826 -0.4844  0.5936
19612TIP3    H180251   4.422   0.995   4.291  0.6620 -0.4637  0.4288
19612TIP3    H280252   4.566   0.950   4.289  0.2819 -1.8426  1.6621
19613TIP3   OH280253   5.766   0.260  14.278  0.6821  0.1114  0.0823
19613TIP3    H180254   5.825   0.324  14.238 -1.2669  0.6495 -2.1747
19613TIP3    H280255   5.703   0.312  14.328  0.7168 -0.2666  0.5325
19614TIP3   OH280256   6.757   5.401  10.824  0.1098  0.5919 -0.3389
19614TIP3    H180257   6.709   5.391  10.741 -0.6211  0.0490  0.1373
19614TIP3    H280258   6.702   5.358  10.889  0.9055  0.5952  0.3566
19615TIP3   OH280259   0.353   3.957   4.168  0.6885 -0.0794  0.2562
19615TIP3    H180260   0.379   3.866   4.152 -0.3555 -0.6883  1.7908
19615TIP3    H280261   0.394   4.006   4.097 -0.4460 -2.0066 -1.8421
19616TIP3   OH280262   0.228   4.155  16.859  0.5858  0.0325 -0.1569
19616TIP3    H180263   0.296   4.094  16.828  3.1315  2.7268 -0.3383
19616TIP3    H280264   0.175   4.173  16.782  0.2008 -1.4058 -0.2529
19617TIP3   OH280265   6.692   6.252   5.645  0.0083 -0.1669  0.7497
19617TIP3    H180266   6.625   6.184   5.634  1.4478 -1.7181  1.2188
19617TIP3    H280267   6.687   6.275   5.738 -2.8155  2.9953  0.0173
19618TIP3   OH280268   0.665   2.744   3.495 -0.2434  0.0518  0.1806
19618TIP3    H180269   0.645   2.655   3.467 -1.8527  0.8880 -1.5285
19618TIP3    H280270   0.643   2.746   3.588  0.6031 -1.5261  0.4441
19619TIP3   OH280271   5.833   6.015  13.285 -0.0583 -0.0148 -0.5685
19619TIP3    H180272   5.757   5.977  13.328  0.9077 -0.3114  0.9468
19619TIP3    H280273   5.824   6.109  13.299 -0.5766  0.0364 -1.1691
19620TIP3   OH280274   1.369   3.443  10.762 -0.0979 -0.4465 -0.3518
19620TIP3    H180275   1.445   3.496  10.737  1.2428 -2.0301  0.2312
19620TIP3    H280276   1.362   3.453  10.857 -1.7692  1.1063 -0.5752
19621TIP3   OH280277   0.823   3.565   4.649 -0.0225  0.0697  0.1511
19621TIP3    H180278   0.785   3.653   4.642 -2.3894 -0.9421 -1.0073
19621TIP3    H280279   0.886   3.560   4.578 -0.9995  0.3657 -0.7697
19622TIP3   OH280280   5.990   2.227   4.444 -0.4358  0.0251  0.0428
19622TIP3    H180281   6.075   2.232   4.487 -0.9156  0.7162  0.9321
19622TIP3    H280282   6.009   2.190   4.357  0.5436 -1.3800  0.8190
19623TIP3   OH280283   0.510   2.274  16.143 -0.1182 -0.2538  0.1914
19623TIP3    H180284   0.506   2.260  16.237 -1.0444 -0.8234  0.0798
19623TIP3    H280285   0.586   2.224  16.114 -0.7986 -1.4619  0.4223
19624TIP3   OH280286   1.071   0.370  17.156  0.1988 -0.0102 -0.0355
19624TIP3    H180287   1.124   0.446  17.133  0.9334 -1.1190 -2.3399
19624TIP3    H280288   1.132   0.296  17.157 -0.6586 -0.7448  1.1718
19625TIP3   OH280289   3.051   1.009   0.613 -0.0090  0.3013  0.1092
19625TIP3    H180290   2.978   1.051   0.656 -0.8091 -0.2414 -0.6824
19625TIP3    H280291   3.081   1.073   0.548 -0.8228 -0.0680 -0.6610
19626TIP3   OH280292   2.895   3.458  13.939 -0.1518 -0.2102  0.2186
19626TIP3    H180293   2.804   3.488  13.935 -0.8252 -1.8468  1.8684
19626TIP3    H280294   2.907   3.405  13.860 -1.2914 -1.5951  0.9346
19627TIP3   OH280295   3.041   2.150  11.488 -0.6876  0.7199 -0.3607
19627TIP3    H180296   3.092   2.072  11.509 -1.5623  0.7952  2.4124
19627TIP3    H280297   3.103   2.222  11.494 -0.7614  0.6686  1.6729
19628TIP3   OH280298   3.584   3.143  12.810  0.1290 -0.2625 -0.5978
19628TIP3    H180299   3.671   3.134  12.770  0.6659  0.6037  0.3412
19628TIP3    H280300   3.600   3.191  12.891 -1.3393  0.6001 -0.7966
19629TIP3   OH280301   4.679   3.443  15.331  0.0328  0.0718  0.0286
19629TIP3    H180302   4.760   3.395  15.349 -1.0365 -1.3466  1.3491
19629TIP3    H280303   4.669   3.439  15.236  1.5754  0.4134 -0.1670
19630TIP3   OH280304   4.455   5.493   4.224  0.0625 -0.0813  0.0235
19630TIP3    H180305   4.426   5.541   4.302 -0.6269  0.8033 -0.7548
19630TIP3    H280306   4.380   5.497   4.165  0.2420 -1.5423 -0.3408
19631TIP3   OH280307   2.518   2.535  12.290  1.0259  0.2623 -0.3202
19631TIP3    H180308   2.509   2.447  12.327  1.5438 -0.7657 -2.5053
19631TIP3    H280309   2.552   2.587  12.362 -1.5886 -0.6871  1.7867
19632TIP3   OH280310   5.410   4.104  16.794  0.4823  0.0750  0.0597
19632TIP3    H180311   5.408   4.099  16.698 -1.5819  1.4495 -0.0261
19632TIP3    H280312   5.354   4.032  16.823 -0.8232  1.0890  0.1170
19633TIP3   OH280313   4.395   0.887  16.748 -0.5761  0.8010 -0.4550
19633TIP3    H180314   4.305   0.866  16.724 -0.1147 -0.5064 -1.1456
19633TIP3    H280315   4.421   0.818  16.809  0.4289  0.2822 -1.4276
19634TIP3   OH280316   0.364   2.124   2.072  0.0095 -0.4143 -0.0056
19634TIP3    H180317   0.296   2.135   2.138  0.5574  0.7592  0.4046
19634TIP3    H280318   0.335   2.179   1.999 -0.0156 -0.7717 -0.2643
19635TIP3   OH280319   4.707   0.824   5.701 -0.5520  0.1128  0.2343
19635TIP3    H180320   4.760   0.898   5.670 -0.2386 -0.5021 -0.7341
19635TIP3    H280321   4.761   0.747   5.682 -1.3871 -0.4520  0.1276
19636TIP3   OH280322   1.158   3.874   3.961  0.0033 -0.3197  0.6751
19636TIP3    H180323   1.240   3.838   3.996 -0.2686 -2.0240 -0.3118
19636TIP3    H280324   1.122   3.803   3.907 -1.4660  0.8647  0.0245
19637TIP3   OH280325   3.244   4.561   0.812  0.3726 -0.0041  0.1292
19637TIP3    H180326   3.213   4.562   0.902  0.7609 -1.4668  0.2935
19637TIP3    H280327   3.336   4.587   0.818  0.3453  0.0940  0.1285
19638TIP3   OH280328   0.921   4.982   1.159  0.1298 -0.2082 -0.1622
19638TIP3    H180329   1.002   4.946   1.196  0.6446  1.9763  1.0682
19638TIP3    H280330   0.852   4.948   1.215  0.7317  1.5870  1.8398
19639TIP3   OH280331   1.721   1.279  12.887 -0.1416  0.1641  0.4955
19639TIP3    H180332   1.628   1.273  12.907 -0.4008  0.0555 -0.6664
19639TIP3    H280333   1.762   1.214  12.944 -0.9864 -1.0225 -0.2310
19640TIP3   OH280334   3.741   5.236   1.418 -0.4440 -0.6952  0.0450
19640TIP3    H180335   3.692   5.302   1.468 -1.7577 -1.3533 -0.3594
19640TIP3    H280336   3.821   5.223   1.470 -0.7455  0.2730  0.7987
19641TIP3   OH280337   6.423   4.691  15.080 -0.1917 -0.2980  0.3315
19641TIP3    H180338   6.396   4.632  15.009 -0.7772  1.6517 -1.1389
19641TIP3    H280339   6.383   4.653  15.158 -2.2558 -0.7719 -0.8826
19642TIP3   OH280340   3.406   3.964   3.906 -0.1437 -0.4084  0.1783
19642TIP3    H180341   3.493   3.961   3.947 -0.2669  0.3224  0.5281
19642TIP3    H280342   3.376   3.874   3.906  0.3689 -0.5877  0.6151
19643TIP3   OH280343   3.192   3.146  16.466 -0.1289 -0.5591  0.0239
19643TIP3    H180344   3.103   3.181  16.463  0.3902  0.8039 -0.7534
19643TIP3    H280345   3.201   3.109  16.554 -1.2731 -0.2223  0.2971
19644TIP3   OH280346   1.566   6.705   2.263  0.4933 -0.6097  0.0957
19644TIP3    H180347   1.522   6.787   2.283  0.6385 -0.1298 -1.4413
19644TIP3    H280348   1.509   6.662   2.199 -0.7648 -2.8227  2.5338
19645TIP3   OH280349   2.935   3.019   2.638  0.2527 -0.9159  0.4061
19645TIP3    H180350   2.954   2.966   2.715  0.4502 -2.4850 -0.6888
19645TIP3    H280351   2.853   2.985   2.604  0.1838 -0.2679 -0.1114
19646TIP3   OH280352   4.328   1.053   1.326 -0.0797  0.0413  0.1045
19646TIP3    H180353   4.339   0.963   1.298  1.1861 -0.3110  1.5912
19646TIP3    H280354   4.415   1.080   1.356 -0.9731  0.8785  2.1144
19647TIP3   OH280355   0.236   4.367   3.205 -1.0897 -0.1150 -0.2636
19647TIP3    H180356   0.202   4.279   3.191  0.3547 -0.7954  0.2251
19647TIP3    H280357   0.306   4.355   3.269  1.1399  0.9104 -2.3387
19648TIP3   OH280358   1.057   4.749  12.910  0.0897  0.6868  0.5913
19648TIP3    H180359   1.039   4.842  12.917 -0.0776  0.7567 -0.5595
19648TIP3    H280360   1.149   4.744  12.885 -0.1825  0.5992 -0.4379
19649TIP3   OH280361   0.985   6.010   4.846 -0.0223  0.3083  0.1092
19649TIP3    H180362   1.006   6.034   4.936  0.1659  1.4235 -0.2194
19649TIP3    H280363   1.068   5.978   4.810  0.2671  1.2788 -0.1053
19650TIP3   OH280364   1.625   5.696  15.091  0.2147 -0.7352 -0.0091
19650TIP3    H180365   1.579   5.719  15.010  2.0643  0.9765 -0.6780
19650TIP3    H280366   1.603   5.768  15.151  1.1320 -0.4642  0.0120
19651TIP3   OH280367   4.970   6.698   3.272 -0.6225  0.8716 -0.8977
19651TIP3    H180368   5.060   6.675   3.252 -0.6373 -0.1840  0.1675
19651TIP3    H280369   4.924   6.693   3.188  0.4896  2.4468 -1.6529
19652TIP3   OH280370   0.652   0.153   2.330 -0.2351 -0.0855  0.3212
19652TIP3    H180371   0.640   0.070   2.378 -0.0774  0.2903  1.0223
19652TIP3    H280372   0.699   0.128   2.251  0.1677 -0.6164  0.7180
19653TIP3   OH280373   2.715   6.736   2.164  0.3735  0.2263 -0.1322
19653TIP3    H180374   2.631   6.768   2.196  0.2883 -0.6084  0.5089
19653TIP3    H280375   2.745   6.804   2.103 -1.3128  0.0045 -1.2934
19654TIP3   OH280376   4.468   0.694  12.141  0.1693 -0.2763  0.3229
19654TIP3    H180377   4.389   0.749  12.141 -0.1412 -0.7124 -0.1432
19654TIP3    H280378   4.522   0.730  12.211 -0.3227  0.2019  0.4668
19655TIP3   OH280379   3.884   0.476  14.833  0.4390  0.1084 -0.2031
19655TIP3    H180380   3.864   0.516  14.749 -2.7233 -0.6724  0.0562
19655TIP3    H280381   3.934   0.397  14.812  2.0356  1.3098 -1.0851
19656TIP3   OH280382   1.772   3.894  13.162 -0.0362  0.1628 -0.2473
19656TIP3    H180383   1.824   3.953  13.216 -1.0043 -0.4462  1.4353
19656TIP3    H280384   1.682   3.925  13.171 -0.4264 -0.9111 -0.1926
19657TIP3   OH280385   5.231   0.943  15.443  0.1920 -0.2574  0.0022
19657TIP3    H180386   5.321   0.956  15.414  0.5432  0.0502  1.1849
19657TIP3    H280387   5.218   1.007  15.512  0.1911 -2.4400  2.1818
19658TIP3   OH280388   1.529   4.343   0.024  0.3737  0.1138  0.8303
19658TIP3    H180389   1.439   4.317   0.043  0.2522 -0.1311 -0.0387
19658TIP3    H280390   1.523   4.394  -0.057  1.3628 -2.6478 -1.1420
19659TIP3   OH280391   5.067   5.353  13.955  0.0334 -0.7269 -1.0671
19659TIP3    H180392   5.020   5.275  13.923  0.1893 -0.7909 -1.1461
19659TIP3    H280393   5.129   5.318  14.019 -2.3602 -0.2719  1.6856
19660TIP3   OH280394   5.545   1.664   3.052  0.2074 -0.0399  1.1759
19660TIP3    H180395   5.590   1.589   3.091  2.2122  1.5816  2.1655
19660TIP3    H280396   5.452   1.644   3.062  0.6889 -2.0533  2.0681
19661TIP3   OH280397   6.669   3.010   3.416  0.2337 -0.0223 -0.1356
19661TIP3    H180398   6.765   3.012   3.411  0.1830  0.4453 -1.2234
19661TIP3    H280399   6.640   3.028   3.327 -0.8745 -0.4846  0.1168
19662TIP3   OH280400   6.163   6.517   0.940 -0.2380 -0.8121  0.4643
19662TIP3    H180401   6.104   6.592   0.945  1.3465  0.4558  1.1647
19662TIP3    H280402   6.178   6.504   0.846 -0.5982 -0.3092  0.3349
19663TIP3   OH280403   4.196   2.853   4.518 -0.1882  0.4778 -0.5637
19663TIP3    H180404   4.270   2.794   4.514 -2.1136 -2.0205 -1.5986
19663TIP3    H280405   4.171   2.854   4.611 -0.4220 -0.7522 -0.6038
19664TIP3   OH280406   3.452   5.196  11.392  0.5190  0.9295  0.1801
19664TIP3    H180407   3.453   5.289  11.372  0.3718  0.8783 -0.0674
19664TIP3    H280408   3.453   5.153  11.306  3.1168  0.6788  0.2347
19665TIP3   OH280409   3.314   6.704   0.157 -0.5032 -0.2311 -0.5729
19665TIP3    H180410   3.369   6.778   0.182 -0.8918 -0.3563  0.7061
19665TIP3    H280411   3.287   6.665   0.240 -3.0296  0.2001 -1.1236
19666TIP3   OH280412   0.923   6.715  14.925 -0.8631 -0.2810  0.2959
19666TIP3    H180413   0.903   6.621  14.925 -1.9857 -0.0508  0.4533
19666TIP3    H280414   0.880   6.749  15.003  1.3288  0.0271  1.4373
19667TIP3   OH280415   6.686   1.733   3.750  0.1953 -0.1367 -0.0147
19667TIP3    H180416   6.760   1.681   3.718 -1.7286 -1.4973 -2.5976
19667TIP3    H280417   6.610   1.677   3.738 -1.3001  1.0016  3.0623
19668TIP3   OH280418   5.533   4.659   1.411  0.5285 -0.1265  0.0774
19668TIP3    H180419   5.482   4.607   1.349 -0.4709  0.8594  0.0505
19668TIP3    H280420   5.483   4.656   1.492  0.9829 -0.0348  0.3661
19669TIP3   OH280421   0.749   4.949   2.296 -0.6719  0.4822 -0.0706
19669TIP3    H180422   0.823   4.929   2.239  1.2812 -2.3384  3.0483
19669TIP3    H280423   0.751   5.044   2.306  3.2451  0.4833  0.5418
19670TIP3   OH280424   1.354   1.161  16.553  0.1431 -0.0866  0.1747
19670TIP3    H180425   1.363   1.102  16.478 -0.3132 -0.5144  0.4518
19670TIP3    H280426   1.266   1.196  16.546  0.3092  0.3465  0.1781
19671TIP3   OH280427   5.402   0.938   5.349 -0.0575 -0.1582  0.4143
19671TIP3    H180428   5.420   0.965   5.259  0.7144 -0.0713  0.5897
19671TIP3    H280429   5.400   1.019   5.399  2.1336 -0.3470  0.9199
19672TIP3   OH280430   5.767   3.660  15.331  0.2036  0.2167 -0.3269
19672TIP3    H180431   5.743   3.645  15.422  2.1655  0.7302  0.3252
19672TIP3    H280432   5.737   3.749  15.312 -1.0909 -0.2429 -0.5259
19673TIP3   OH280433   5.304   5.046  15.802  0.4348  0.4518  0.4495
19673TIP3    H180434   5.292   5.031  15.709  0.0862 -1.9616  0.8151
19673TIP3    H280435   5.398   5.061  15.813  0.6994 -0.7069 -0.1410
19674TIP3   OH280436   2.207   2.176  12.133 -0.8083 -0.0600  0.5144
19674TIP3    H180437   2.135   2.236  12.153 -1.3036  0.2062 -1.7546
19674TIP3    H280438   2.266   2.227  12.077 -1.6573 -1.8060 -2.1809
19675TIP3   OH280439   1.465   0.074   1.676  0.6467  0.0953  0.4504
19675TIP3    H180440   1.438   0.068   1.584  1.7287  0.5225  0.0974
19675TIP3    H280441   1.550   0.030   1.680  0.5654 -0.0126  1.2734
19676TIP3   OH280442   3.536   0.202  11.731  0.7074 -0.1369 -0.0539
19676TIP3    H180443   3.582   0.138  11.677 -0.7634 -0.4355 -1.0071
19676TIP3    H280444   3.550   0.286  11.686 -1.1398 -0.4896 -1.4129
19677TIP3   OH280445   2.020   4.470   1.967 -0.0807  0.2834 -0.7965
19677TIP3    H180446   1.997   4.380   1.991  1.2267  0.0933 -0.1761
19677TIP3    H280447   1.947   4.523   1.999 -1.3932 -0.6420 -2.1267
19678TIP3   OH280448   5.696   2.102  12.208  0.3960  0.0674  0.1688
19678TIP3    H180449   5.656   2.032  12.260 -1.2614  0.2806 -0.7643
19678TIP3    H280450   5.660   2.183  12.245  0.2982  0.2865 -0.3927
19679TIP3   OH280451   1.402   5.177  11.680 -0.5017  0.6907 -0.2556
19679TIP3    H180452   1.335   5.246  11.677 -0.6928  0.6442  1.7772
19679TIP3    H280453   1.366   5.111  11.738  1.9581  1.4452  2.3182
19680TIP3   OH280454   5.717   1.582  13.929 -0.3273 -0.2456  0.0883
19680TIP3    H180455   5.767   1.653  13.970  2.0086 -2.9562  2.3231
19680TIP3    H280456   5.746   1.582  13.838  0.0662  1.2371  0.1815
19681TIP3   OH280457   3.690   6.273   1.613  0.4350  0.0066  0.4706
19681TIP3    H180458   3.671   6.221   1.691  1.4269 -2.4011 -0.7763
19681TIP3    H280459   3.640   6.231   1.543 -0.8415  2.4238 -0.1771
19682TIP3   OH280460   4.582   3.803   5.954 -0.5336  0.1277 -0.1276
19682TIP3    H180461   4.593   3.898   5.947 -1.9559  0.2097 -1.9673
19682TIP3    H280462   4.660   3.773   6.000  1.7678  1.7927 -2.6745
19683TIP3   OH280463   4.712   2.177  12.906  0.3634 -0.4810  0.2243
19683TIP3    H180464   4.732   2.118  12.978  1.2798  0.4536  0.7696
19683TIP3    H280465   4.675   2.255  12.949  2.1285  0.6274 -0.1368
19684TIP3   OH280466   5.653   5.572   5.304 -0.1162 -0.2253  1.1616
19684TIP3    H180467   5.696   5.619   5.232 -0.5692 -0.1026  0.9717
19684TIP3    H280468   5.620   5.492   5.264 -0.9862  0.1661  1.0676
19685TIP3   OH280469   3.267   2.923  13.955 -0.1812  0.0878 -0.3297
19685TIP3    H180470   3.334   2.989  13.940  1.2357 -1.0361  0.8629
19685TIP3    H280471   3.269   2.869  13.876  0.8960 -0.4029  0.0150
19686TIP3   OH280472   0.729   4.655   6.775  0.1958  0.3952  0.2689
19686TIP3    H180473   0.690   4.675   6.860 -1.2799 -0.4353 -0.1646
19686TIP3    H280474   0.657   4.617   6.724  1.1473  0.4758 -1.2106
19687TIP3   OH280475   0.172   2.723  12.671 -0.8817 -0.5059  0.0083
19687TIP3    H180476   0.233   2.737  12.599 -0.0248  1.0534  0.9758
19687TIP3    H280477   0.218   2.663  12.730 -1.0482 -0.7730 -0.1328
19688TIP3   OH280478   1.061   5.696  11.020 -0.1211  0.5106 -0.1300
19688TIP3    H180479   1.065   5.695  11.115  1.0873 -1.5896 -0.1431
19688TIP3    H280480   1.135   5.751  10.993 -0.0512  0.5428  0.1263
19689TIP3   OH280481   0.837   1.732  12.284  0.2684  0.3247 -0.2233
19689TIP3    H180482   0.841   1.797  12.354 -1.5567  2.5736 -2.0716
19689TIP3    H280483   0.804   1.653  12.327 -0.3379  1.4786  1.5368
19690TIP3   OH280484   2.899   3.001  10.460 -0.1079  0.8638 -0.4913
19690TIP3    H180485   2.943   3.052  10.391 -1.4587  1.5691 -0.8632
19690TIP3    H280486   2.965   2.993  10.529  1.7705 -1.0353 -2.3665
19691TIP3   OH280487   1.311   5.820   5.039 -0.2139  1.0236 -0.0650
19691TIP3    H180488   1.392   5.769   5.045 -0.0793  0.9330 -1.9330
19691TIP3    H280489   1.258   5.789   5.112  0.6807 -0.3106  0.0620
19692TIP3   OH280490   0.422   3.780  13.442 -0.1218 -0.3049 -0.0576
19692TIP3    H180491   0.366   3.777  13.519  1.9845 -0.4684  1.5756
19692TIP3    H280492   0.419   3.690  13.407 -0.6911 -0.3652  0.1356
19693TIP3   OH280493   5.880   3.898   2.193 -0.6828  0.3557  0.1004
19693TIP3    H180494   5.965   3.857   2.211 -0.3723  0.8977 -0.1079
19693TIP3    H280495   5.843   3.844   2.123 -0.2816  0.4197 -0.1681
19694TIP3   OH280496   0.323   6.499   3.250 -0.0729  0.1284 -0.4815
19694TIP3    H180497   0.375   6.547   3.315  0.6437 -0.9781 -0.2045
19694TIP3    H280498   0.235   6.495   3.288  0.1603  0.1412  0.0775
19695TIP3   OH280499   6.179   0.657  16.917  0.0753  0.3092  0.3066
19695TIP3    H180500   6.142   0.672  17.004  0.5549 -1.3767  0.8239
19695TIP3    H280501   6.252   0.596  16.931 -2.4310 -3.5579 -1.6966
19696TIP3   OH280502   4.806   5.701  12.216  0.1379 -0.2295 -0.2379
19696TIP3    H180503   4.826   5.783  12.261  0.0652  0.5603 -1.5967
19696TIP3    H280504   4.866   5.638  12.255 -1.2586 -0.0964  2.3806
19697TIP3   OH280505   0.049   5.443  13.140  0.5320 -0.0172  0.1461
19697TIP3    H180506  -0.034   5.490  13.145  0.5204  0.1059 -0.9329
19697TIP3    H280507   0.042   5.374  13.205  0.0857  0.7641  0.9357
19698TIP3   OH280508   1.299   6.477  16.274 -0.2028 -0.0828 -0.3364
19698TIP3    H180509   1.273   6.398  16.322  1.7731 -0.9106 -0.5406
19698TIP3    H280510   1.245   6.476  16.196 -0.3743 -1.1160 -0.2253
19699TIP3   OH280511   4.050   2.097  15.634 -0.3882  0.4843 -0.0649
19699TIP3    H180512   4.028   2.105  15.542  0.8075 -1.5115 -0.5753
19699TIP3    H280513   3.965   2.093  15.679 -1.1739 -2.9277 -1.5664
19700TIP3   OH280514   4.985   2.998  11.144 -0.9190 -0.6725 -0.2818
19700TIP3    H180515   4.935   3.009  11.063 -2.5278 -0.9234  0.6231
19700TIP3    H280516   4.925   3.027  11.213  1.0651  1.3729  0.7152
19701TIP3   OH280517   1.502   3.544   0.406 -0.3114  0.2429  0.2166
19701TIP3    H180518   1.521   3.613   0.343 -1.5468 -0.2988 -0.8085
19701TIP3    H280519   1.428   3.497   0.368 -1.2020 -0.0235  2.1572
19702TIP3   OH280520   3.744   2.717   6.102  0.2322 -0.2229 -0.2309
19702TIP3    H180521   3.813   2.767   6.146  0.6254 -0.3566 -0.6861
19702TIP3    H280522   3.751   2.629   6.138  0.8266 -0.4368 -0.8555
19703TIP3   OH280523   1.931   2.128   5.228 -0.4216 -0.1755 -0.1899
19703TIP3    H180524   1.892   2.206   5.188 -0.6559  0.4837  1.2815
19703TIP3    H280525   1.874   2.056   5.201 -0.2560  0.1488 -1.4867
19704TIP3   OH280526   0.797   6.396  14.879 -0.0688 -0.0956 -0.1500
19704TIP3    H180527   0.750   6.313  14.871 -0.5871  0.3030 -1.6489
19704TIP3    H280528   0.808   6.426  14.788  1.5365  0.6909  0.2670
19705TIP3   OH280529   4.128   2.756  12.030  0.2857 -0.0066 -0.1037
19705TIP3    H180530   4.164   2.753  12.119  0.2661  0.2009 -0.0892
19705TIP3    H280531   4.163   2.677  11.988 -0.3754 -0.5458  0.3440
19706TIP3   OH280532   3.285   2.309   4.609 -0.2021  0.6535 -0.4007
19706TIP3    H180533   3.192   2.327   4.594 -0.6463 -1.7879 -0.8861
19706TIP3    H280534   3.288   2.222   4.648  1.9372  0.0232 -1.7357
19707TIP3   OH280535   5.531   2.425  13.764  0.0576 -0.0127  0.1682
19707TIP3    H180536   5.498   2.489  13.701 -1.5175 -1.0124 -0.0924
19707TIP3    H280537   5.544   2.346  13.713  1.4505 -0.0842  0.5977
19708TIP3   OH280538   1.771   6.062   5.502 -0.3587  0.2620  0.5062
19708TIP3    H180539   1.740   5.972   5.499  0.0265  0.1106  0.9145
19708TIP3    H280540   1.722   6.107   5.434  0.5379 -0.5952 -0.7579
19709TIP3   OH280541   3.607   1.557   0.462 -0.3374  0.1458 -0.2048
19709TIP3    H180542   3.695   1.558   0.424 -0.9364 -2.1582 -1.8758
19709TIP3    H280543   3.574   1.647   0.449  1.2956  0.7012 -0.6950
19710TIP3   OH280544   1.164   2.644  16.732  0.6249 -0.6598  0.0484
19710TIP3    H180545   1.181   2.642  16.826  0.7681 -0.4816  0.0277
19710TIP3    H280546   1.150   2.553  16.708  0.1624 -0.6633  0.3194
19711TIP3   OH280547   4.222   3.104   0.799 -0.0729 -1.3302 -0.2045
19711TIP3    H180548   4.303   3.053   0.793  0.8885  0.2987 -1.8162
19711TIP3    H280549   4.251   3.192   0.824 -1.4656 -0.9857  0.2542
19712TIP3   OH280550   6.741   4.429   6.397  0.2755  0.6773 -0.4431
19712TIP3    H180551   6.722   4.511   6.443 -1.0983 -0.8873  1.9773
19712TIP3    H280552   6.785   4.375   6.463 -0.6218 -1.2311 -1.3585
19713TIP3   OH280553   2.774   1.181  16.651 -0.3451 -0.4799 -0.4057
19713TIP3    H180554   2.753   1.087  16.652 -2.1185 -0.2748 -3.6500
19713TIP3    H280555   2.689   1.224  16.663  0.4455  0.7597  1.0350
19714TIP3   OH280556   4.067   6.156  15.836  0.1635  0.0453 -0.1763
19714TIP3    H180557   4.017   6.157  15.754  1.9704  2.0380 -1.3839
19714TIP3    H280558   4.024   6.222  15.891  1.2501  1.6461 -1.1539
19715TIP3   OH280559   0.412   3.398  10.753  0.5184 -0.4852 -0.1212
19715TIP3    H180560   0.335   3.430  10.706  0.8786  1.1667  0.3285
19715TIP3    H280561   0.485   3.443  10.711  1.0593 -0.7394  0.5378
19716TIP3   OH280562   3.600   0.075   3.273  0.6424 -0.3910  0.0561
19716TIP3    H180563   3.541   0.024   3.218 -0.2627  0.5138  0.1560
19716TIP3    H280564   3.640   0.138   3.213 -0.2415  0.5065  0.3841
19717TIP3   OH280565   5.175   3.692   0.426  0.4648 -0.1997 -0.1118
19717TIP3    H180566   5.217   3.703   0.511  0.8181 -0.5022 -0.2452
19717TIP3    H280567   5.099   3.751   0.429  1.1596  0.7147 -0.0574
19718TIP3   OH280568   1.208   5.175   1.299  0.1193 -0.2120 -0.1233
19718TIP3    H180569   1.178   5.102   1.354 -0.9282 -1.0272 -1.6838
19718TIP3    H280570   1.131   5.198   1.247  1.2288  0.0813 -1.6959
19719TIP3   OH280571   6.606   6.622   6.444  0.3566  0.2601  0.3739
19719TIP3    H180572   6.599   6.576   6.361  0.3900  0.6701  0.1387
19719TIP3    H280573   6.615   6.714   6.419 -1.2605  0.5840  0.8606
19720TIP3   OH280574   2.161   0.117  10.403 -0.0013 -0.1492  0.0193
19720TIP3    H180575   2.124   0.034  10.372  0.9223 -1.6553  2.7046
19720TIP3    H280576   2.085   0.166  10.436 -0.2681 -1.0081  0.7124
19721TIP3   OH280577   0.574   0.170  15.161 -0.4001 -0.0566  0.0398
19721TIP3    H180578   0.563   0.265  15.162 -1.1863 -0.1321 -0.2830
19721TIP3    H280579   0.531   0.143  15.080  0.6045 -0.6012 -0.3200
19722TIP3   OH280580   1.125   4.031  14.181 -0.0355  0.4176  0.5067
19722TIP3    H180581   1.194   4.093  14.156  1.3056 -0.2774  2.2535
19722TIP3    H280582   1.157   3.946  14.150 -0.4430  0.1897  0.7043
19723TIP3   OH280583   0.998   5.753  16.226  0.0390  0.8185 -0.2876
19723TIP3    H180584   1.020   5.813  16.297 -1.2263  0.7463  0.1714
19723TIP3    H280585   0.919   5.708  16.254  0.1125  0.0101 -1.2848
19724TIP3   OH280586   2.978   0.453   2.349 -0.5278 -0.2098  0.2135
19724TIP3    H180587   3.044   0.506   2.393 -1.9442 -0.2303  2.5018
19724TIP3    H280588   2.986   0.367   2.389 -1.3591 -0.4504 -0.1221
19725TIP3   OH280589   2.544   0.528  14.514 -0.4958 -0.0360  0.0031
19725TIP3    H180590   2.527   0.618  14.542  0.1196 -0.1172  0.6504
19725TIP3    H280591   2.639   0.525  14.499 -0.6460 -0.3029 -1.0178
19726TIP3   OH280592   4.117   4.403  16.935 -0.2699  0.0790  0.3140
19726TIP3    H180593   4.027   4.420  16.907 -0.3490  0.5768  0.8449
19726TIP3    H280594   4.131   4.310  16.916 -1.1276 -0.1675  0.8112
19727TIP3   OH280595   0.346   5.034  13.602 -0.3194  0.6171 -0.0413
19727TIP3    H180596   0.360   4.985  13.521  2.8641  2.4580 -0.7723
19727TIP3    H280597   0.325   5.123  13.573  0.8678  1.3127  1.1158
19728TIP3   OH280598   4.864   1.663   3.710 -0.5773 -0.7281 -0.4702
19728TIP3    H180599   4.885   1.705   3.627 -2.8463  3.0136  0.5892
19728TIP3    H280600   4.777   1.626   3.697 -0.6202 -0.7925 -0.0119
19729TIP3   OH280601   5.756   6.715  16.658 -0.5617 -0.0729 -0.1690
19729TIP3    H180602   5.823   6.647  16.651 -0.5621  0.0511 -1.6759
19729TIP3    H280603   5.768   6.769  16.580 -0.8472  1.4130  0.7748
19730TIP3   OH280604   2.064   6.369   5.629  0.3509 -0.3156  0.0451
19730TIP3    H180605   2.148   6.369   5.675 -0.4109 -0.8150  1.4905
19730TIP3    H280606   2.055   6.279   5.596  0.6803 -0.0826 -0.6990
19731TIP3   OH280607   5.154   6.134   3.952  0.3292  0.3763  0.2192
19731TIP3    H180608   5.062   6.119   3.972  0.7550 -0.5849  1.6327
19731TIP3    H280609   5.173   6.221   3.986 -0.3143  1.0368 -1.0812
19732TIP3   OH280610   2.018   1.247  13.277 -0.1577 -0.2323 -0.2624
19732TIP3    H180611   2.092   1.216  13.225 -1.9115  0.8666 -3.7943
19732TIP3    H280612   2.050   1.326  13.321  0.9437 -0.0566 -1.3172
19733TIP3   OH280613   1.451   6.326   4.977  0.2554 -0.2506 -0.6398
19733TIP3    H180614   1.518   6.394   4.970  0.6393 -0.6926 -1.3049
19733TIP3    H280615   1.424   6.328   5.069  1.7560 -0.5923 -0.1708
19734TIP3   OH280616   1.864   3.315   0.484  0.0107 -0.5631  0.0840
19734TIP3    H180617   1.913   3.250   0.535 -0.9439 -0.5404  1.0489
19734TIP3    H280618   1.803   3.354   0.546  0.3586  1.0630 -0.5533
19735TIP3   OH280619   3.221   1.016  11.264  0.3290 -0.0391 -0.3196
19735TIP3    H180620   3.180   0.967  11.335  0.9342 -0.7887 -0.4758
19735TIP3    H280621   3.193   0.970  11.185  1.0625 -0.2617 -0.4544
19736TIP3   OH280622   2.170   0.276   0.085 -0.1952  0.4908  0.6495
19736TIP3    H180623   2.204   0.230   0.161  1.0960  2.2244  1.1957
19736TIP3    H280624   2.235   0.260   0.016 -1.0321 -0.5399  0.0691
19737TIP3   OH280625   1.166   4.465   3.416 -0.1387 -0.2108  0.5813
19737TIP3    H180626   1.161   4.497   3.505 -0.3064 -2.9685  1.6702
19737TIP3    H280627   1.103   4.393   3.413  1.1158 -1.3160 -1.2194
19738TIP3   OH280628   0.202   1.315  14.603 -0.1020  0.3681 -0.2729
19738TIP3    H180629   0.216   1.305  14.697 -0.5719  1.3812 -0.0815
19738TIP3    H280630   0.146   1.393  14.595 -1.4930 -0.6718 -1.2756
19739TIP3   OH280631   5.377   0.361   5.963  0.1450  0.4978  0.4181
19739TIP3    H180632   5.451   0.382   6.020 -0.0141  3.4677 -0.3412
19739TIP3    H280633   5.305   0.341   6.024  1.2454 -1.4354  1.1632
19740TIP3   OH280634   5.662   0.814   0.924  0.2813  0.0918 -0.2498
19740TIP3    H180635   5.677   0.908   0.913 -0.8324  0.0892 -2.3245
19740TIP3    H280636   5.747   0.774   0.905  0.9344  0.6600  1.2793
19741TIP3   OH280637   1.900   2.210   4.513  0.6203  0.5180 -0.6477
19741TIP3    H180638   1.879   2.152   4.440  1.8226 -0.2599 -0.4052
19741TIP3    H280639   1.988   2.242   4.494  1.5044 -0.7048  1.0385
19742TIP3   OH280640   4.752   3.635   4.594  0.2600 -0.1997  0.0586
19742TIP3    H180641   4.733   3.694   4.666  1.1959  3.0058 -2.1072
19742TIP3    H280642   4.833   3.591   4.619 -0.4983 -0.7253  1.7525
19743TIP3   OH280643   3.133   4.753   3.153  0.0488  0.3198 -0.1393
19743TIP3    H180644   3.041   4.766   3.130  0.4301  1.2031 -1.2745
19743TIP3    H280645   3.179   4.752   3.069  0.8898 -1.9627  0.2926
19744TIP3   OH280646   1.813   6.507  14.119  0.2002  0.1870  0.5052
19744TIP3    H180647   1.762   6.486  14.040  1.7648  1.7950 -1.0198
19744TIP3    H280648   1.883   6.442  14.121  1.6764  1.6427 -0.9701
19745TIP3   OH280649   3.043   0.131  11.478  0.4047 -0.3267 -0.6310
19745TIP3    H180650   3.059   0.039  11.498 -0.8516 -0.3223  0.5268
19745TIP3    H280651   3.103   0.179  11.535 -0.7585 -0.3929  0.6851
19746TIP3   OH280652   3.196   1.660   1.055  0.0520 -0.6087  0.3529
19746TIP3    H180653   3.246   1.580   1.039  0.9389  0.0154 -0.0955
19746TIP3    H280654   3.183   1.699   0.969  1.0004  0.5128  0.6803
19747TIP3   OH280655   4.671   2.478  14.802 -0.2912 -0.5093  0.1073
19747TIP3    H180656   4.749   2.423  14.805 -0.2443 -0.8383 -3.2729
19747TIP3    H280657   4.696   2.553  14.748 -0.4943  2.8397  4.1820
19748TIP3   OH280658   1.110   2.729   1.251  0.2614 -0.2734  1.0334
19748TIP3    H180659   1.045   2.660   1.262  0.0097 -0.0315  1.0659
19748TIP3    H280660   1.193   2.683   1.242  0.0389 -0.6013  0.6220
19749TIP3   OH280661   6.464   5.047  16.105  0.1089  0.0238  0.2288
19749TIP3    H180662   6.409   5.082  16.034 -0.9244 -1.2906  0.3469
19749TIP3    H280663   6.549   5.034  16.065 -0.4486 -0.6450 -0.7704
19750TIP3   OH280664   6.537   5.225  15.352 -0.0958  0.1816 -0.8302
19750TIP3    H180665   6.453   5.210  15.396  0.7834  1.2006  1.3297
19750TIP3    H280666   6.520   5.301  15.296 -0.1955  1.6234  1.0455
19751TIP3   OH280667   0.474   1.924   2.332 -0.6701 -0.1835  0.1994
19751TIP3    H180668   0.474   1.903   2.425 -0.5904  1.6905  0.6717
19751TIP3    H280669   0.408   1.866   2.294 -2.0635  0.2887  1.7755
19752TIP3   OH280670   4.515   3.116   0.993  0.3501 -0.4203  0.0318
19752TIP3    H180671   4.448   3.083   1.053  0.4682  0.1295  0.4737
19752TIP3    H280672   4.520   3.210   1.012  0.6555 -0.3117 -0.5797
19753TIP3   OH280673   5.436   5.032   3.686  0.2439  0.2871 -0.1670
19753TIP3    H180674   5.494   4.956   3.680  2.3626  1.5759  2.0997
19753TIP3    H280675   5.351   4.996   3.713  0.8138 -1.3750 -0.4947
19754TIP3   OH280676   0.410   1.646   4.111 -0.1264  0.0535 -0.6089
19754TIP3    H180677   0.463   1.724   4.127 -2.3314  1.9230 -1.9521
19754TIP3    H280678   0.395   1.646   4.017 -0.4628 -1.8433 -0.5947
19755TIP3   OH280679   4.809   3.584  10.566  0.1158  0.1344  0.1039
19755TIP3    H180680   4.784   3.672  10.594  0.9914  0.4921 -0.2221
19755TIP3    H280681   4.899   3.574  10.596 -0.4000 -1.1778  1.3638
19756TIP3   OH280682   4.718   6.513  14.526 -0.3885 -0.2352  0.1829
19756TIP3    H180683   4.679   6.459  14.458 -0.8228 -1.9911  1.7508
19756TIP3    H280684   4.675   6.598  14.516 -2.4342 -1.2251 -0.0713
19757TIP3   OH280685   1.847   2.379  10.426 -0.0212  0.1820 -0.5308
19757TIP3    H180686   1.779   2.426  10.377 -0.0224  0.3663 -0.3512
19757TIP3    H280687   1.798   2.329  10.492  0.0835  1.2350  0.3828
19758TIP3   OH280688   3.533   3.544   2.185 -0.2188 -0.6475  0.5907
19758TIP3    H180689   3.457   3.575   2.235  0.2109  1.3165  0.1163
19758TIP3    H280690   3.602   3.534   2.250  0.0104  0.7663  0.5972
19759TIP3   OH280691   6.338   0.127   1.131 -0.4933 -0.6293  0.0654
19759TIP3    H180692   6.335   0.032   1.141 -1.1338 -0.4396  2.3510
19759TIP3    H280693   6.424   0.145   1.093  0.9663 -1.9777  2.4895
19760TIP3   OH280694   2.745   2.646  14.899 -0.0689 -0.0767  0.4732
19760TIP3    H180695   2.743   2.672  14.991 -2.0462 -1.3138  0.8489
19760TIP3    H280696   2.739   2.550  14.901  2.2784 -0.3463 -0.9323
19761TIP3   OH280697   6.269   4.583   1.802 -0.3372  0.5122  0.1983
19761TIP3    H180698   6.335   4.514   1.788 -0.4037  0.6140 -0.7219
19761TIP3    H280699   6.318   4.656   1.840 -0.1734  0.1229  0.7318
19762TIP3   OH280700   5.015   2.146   5.781  0.8972 -0.3401 -0.0539
19762TIP3    H180701   4.945   2.135   5.845 -0.5479  0.2347 -1.4655
19762TIP3    H280702   4.988   2.221   5.728  1.1126 -1.8271 -2.4360
19763TIP3   OH280703   1.172   3.974  13.346  0.2363  0.1466 -0.0031
19763TIP3    H180704   1.259   3.949  13.375  0.3201 -0.2608 -0.5901
19763TIP3    H280705   1.164   4.067  13.368  0.6150  0.0519  0.5306
19764TIP3   OH280706   4.381   4.924   3.516 -0.3147  0.3458  0.0909
19764TIP3    H180707   4.370   4.879   3.600 -0.6098  0.5190  0.1455
19764TIP3    H280708   4.467   4.896   3.485 -0.6039 -0.4778 -0.0058
19765TIP3   OH280709   5.835   6.351   4.235  0.0889 -0.0951 -0.5033
19765TIP3    H180710   5.925   6.319   4.241 -0.3639 -1.6159 -1.4177
19765TIP3    H280711   5.781   6.280   4.270 -0.7345  1.1705  0.9236
19766TIP3   OH280712   3.271   5.739  17.108 -0.1861 -0.2684 -0.4716
19766TIP3    H180713   3.240   5.679  17.176 -1.0543  0.5483 -0.1131
19766TIP3    H280714   3.360   5.761  17.134 -0.8771  0.8951  1.0467
19767TIP3   OH280715   0.710   4.510   5.802  0.0641 -0.2817 -0.1143
19767TIP3    H180716   0.617   4.509   5.780  0.2511 -0.0153 -0.9843
19767TIP3    H280717   0.714   4.482   5.893 -0.6700 -2.8579 -0.7737
19768TIP3   OH280718   2.136   0.686  11.833 -0.0279 -0.2716  0.3944
19768TIP3    H180719   2.179   0.765  11.799 -2.4478  0.8093 -0.4030
19768TIP3    H280720   2.158   0.684  11.926  1.7442  0.1827  0.0074
19769TIP3   OH280721   1.852   3.280   5.833 -0.7649 -0.7034 -0.0092
19769TIP3    H180722   1.800   3.207   5.800 -2.2415 -0.5241  1.7587
19769TIP3    H280723   1.790   3.352   5.840  0.2866  0.2371 -0.0966
19770TIP3   OH280724   2.414   0.452  14.952 -0.1542  0.7018  0.4104
19770TIP3    H180725   2.456   0.536  14.933 -1.3409  1.1600 -0.2588
19770TIP3    H280726   2.326   0.474  14.981  0.3334 -0.1876  2.8595
19771TIP3   OH280727   2.033   0.273   0.459 -0.3361 -1.0532 -0.0645
19771TIP3    H180728   2.058   0.365   0.464 -2.2053 -0.4646 -0.7663
19771TIP3    H280729   2.026   0.255   0.365 -0.8565 -1.6478  0.0756
19772TIP3   OH280730   6.410   4.259   0.204 -0.0680  0.0102 -0.1202
19772TIP3    H180731   6.424   4.329   0.141  0.2689 -1.2325 -1.4717
19772TIP3    H280732   6.328   4.217   0.177  0.5772 -1.1432 -0.3384
19773TIP3   OH280733   1.355   3.408  14.284 -0.0663 -0.4500  0.3716
19773TIP3    H180734   1.302   3.459  14.345 -0.9757 -2.4727  1.3826
19773TIP3    H280735   1.315   3.424  14.198 -0.8180 -0.0688  0.7813
19774TIP3   OH280736   1.662   1.995  13.261 -0.1320 -0.5531 -1.0655
19774TIP3    H180737   1.577   1.986  13.306  0.1323  1.1826 -0.1103
19774TIP3    H280738   1.643   2.047  13.183  0.3073  1.9900  0.3717
19775TIP3   OH280739   1.245   0.033   3.294 -0.3423  0.3430  0.0233
19775TIP3    H180740   1.175  -0.006   3.242  0.0998  0.8122 -0.9322
19775TIP3    H280741   1.326  -0.007   3.261 -0.0929  0.3071  0.6596
19776TIP3   OH280742   3.395   0.966  11.000  0.1340 -0.0511  0.1348
19776TIP3    H180743   3.468   0.905  10.984  0.3052 -0.0011  0.7080
19776TIP3    H280744   3.321   0.909  11.020 -0.5532 -0.2130 -2.4362
19777TIP3   OH280745   0.131   1.270  11.035  0.4621  0.2037 -0.2082
19777TIP3    H180746   0.097   1.186  11.066  0.5111 -0.0710 -0.8741
19777TIP3    H280747   0.161   1.314  11.114  0.4390 -0.4042  0.1513
19778TIP3   OH280748   2.319   1.784   3.584 -0.2351 -0.2110 -0.6221
19778TIP3    H180749   2.392   1.809   3.641 -0.5460 -1.1048  0.1922
19778TIP3    H280750   2.356   1.784   3.496  0.9447 -1.3336 -0.1469
19779TIP3   OH280751   2.874   5.551   3.765  0.3846  0.0174  0.0907
19779TIP3    H180752   2.851   5.601   3.843  1.5070  0.0819  0.3977
19779TIP3    H280753   2.952   5.501   3.789 -0.6670 -1.8765 -0.2371
19780TIP3   OH280754   3.978   6.298   5.869  0.5255 -0.7870 -0.7476
19780TIP3    H180755   3.959   6.270   5.958  1.9831 -1.2215 -0.5559
19780TIP3    H280756   4.029   6.378   5.878 -0.2544 -0.2163 -1.2310
19781TIP3   OH280757   4.617   3.207   1.939  0.2415  0.3316  0.2158
19781TIP3    H180758   4.535   3.159   1.949 -0.6578  1.7351 -0.2685
19781TIP3    H280759   4.597   3.278   1.878  1.4387  1.5548  1.1867
19782TIP3   OH280760   6.470   6.089   1.509  0.0870 -0.1073 -0.1989
19782TIP3    H180761   6.438   6.059   1.595  2.9648 -0.6208  0.7977
19782TIP3    H280762   6.450   6.017   1.450  1.2517 -1.3646  0.8568
19783TIP3   OH280763   1.608   4.114   0.888 -0.2575 -0.5633 -0.1262
19783TIP3    H180764   1.591   4.192   0.835  0.3000 -0.3435  0.0139
19783TIP3    H280765   1.648   4.148   0.968  1.5428 -1.1224 -0.7601
19784TIP3   OH280766   6.560   2.853   0.563 -0.0886 -0.1000  0.1060
19784TIP3    H180767   6.546   2.767   0.525  1.9200 -0.5791  0.3498
19784TIP3    H280768   6.629   2.840   0.628 -0.5729  1.4774  0.9863
19785TIP3   OH280769   0.117   6.124  12.838  0.5482  0.0493 -0.2443
19785TIP3    H180770   0.192   6.181  12.817  0.2521  0.4360 -0.2673
19785TIP3    H280771   0.043   6.164  12.792  0.3449 -0.3833 -0.2929
19786TIP3   OH280772   0.895   5.702   0.915  0.0316  0.3319 -0.2833
19786TIP3    H180773   0.876   5.646   0.990  1.5977 -0.9728 -0.7708
19786TIP3    H280774   0.955   5.768   0.949  0.8008 -0.3034 -0.3506
19787TIP3   OH280775   2.348   2.753   3.347  0.3744 -0.6987 -0.0503
19787TIP3    H180776   2.421   2.693   3.329  1.2910 -0.0514  1.2999
19787TIP3    H280777   2.341   2.806   3.268 -0.2523 -2.3351 -1.1491
19788TIP3   OH280778   1.608   0.548  11.999  0.0948 -0.2461  0.0842
19788TIP3    H180779   1.632   0.640  11.994  1.0567 -0.3735  1.7466
19788TIP3    H280780   1.535   0.539  11.938 -0.6537  1.8246  0.6067
19789TIP3   OH280781   4.225   1.869  14.740  0.6515  0.0744 -0.3751
19789TIP3    H180782   4.307   1.889  14.694  0.1257  2.2244 -0.4594
19789TIP3    H280783   4.250   1.802  14.804  2.4759  0.6585 -0.4030
19790TIP3   OH280784   4.801   3.883  13.256  0.4212  0.2972 -0.3199
19790TIP3    H180785   4.732   3.829  13.217  1.1138 -1.1462  0.3966
19790TIP3    H280786   4.842   3.926  13.181  0.5368 -0.9998 -1.0313
19791TIP3   OH280787   0.569   0.947  13.713 -0.1082  0.5111 -0.0243
19791TIP3    H180788   0.489   0.958  13.765 -0.9099 -1.3281 -0.7768
19791TIP3    H280789   0.595   0.856  13.729  1.0242  0.6635 -0.9314
19792TIP3   OH280790   2.876   4.120  11.957  0.0558 -0.3717  0.4710
19792TIP3    H180791   2.826   4.200  11.969 -2.4767 -1.4874 -1.6289
19792TIP3    H280792   2.861   4.069  12.036 -0.5828  0.1104  0.6643
19793TIP3   OH280793   2.885   0.005   4.930  0.6360 -0.5627 -0.6828
19793TIP3    H180794   2.960  -0.040   4.969 -0.2926 -2.3635 -0.8704
19793TIP3    H280795   2.915   0.032   4.844  1.6266  0.3563 -0.0582
19794TIP3   OH280796   3.499   0.012   0.679 -0.1043 -0.2847 -0.3914
19794TIP3    H180797   3.561   0.026   0.750  0.2943  1.8345 -1.0725
19794TIP3    H280798   3.504   0.093   0.627 -2.3843 -0.6442 -1.2736
19795TIP3   OH280799   2.303   5.277   3.036  0.3935 -0.6375 -0.4091
19795TIP3    H180800   2.284   5.284   2.942  0.9859 -0.1254 -0.4956
19795TIP3    H280801   2.379   5.333   3.050 -0.5877  0.5028  0.6516
19796TIP3   OH280802   4.431   4.682   0.875 -0.1187 -0.0990  0.3113
19796TIP3    H180803   4.394   4.723   0.954 -1.2392  0.3017 -0.3980
19796TIP3    H280804   4.499   4.623   0.909 -0.3826  0.2697  1.5569
19797TIP3   OH280805   4.184   4.463   6.072  0.5000  0.1120 -0.4760
19797TIP3    H180806   4.156   4.515   6.147  0.5296 -0.9027  0.2532
19797TIP3    H280807   4.257   4.513   6.034  0.6764  0.4918  0.3398
19798TIP3   OH280808   3.556   4.194  12.093 -0.4871 -0.1344 -0.5822
19798TIP3    H180809   3.592   4.122  12.042 -0.6751 -1.7257  1.3988
19798TIP3    H280810   3.572   4.272  12.040  1.1889 -1.4238 -2.0811
19799TIP3   OH280811   0.599   6.381   1.317 -0.5293  0.3837 -0.7600
19799TIP3    H180812   0.572   6.325   1.390 -0.7303  0.7815 -0.5273
19799TIP3    H280813   0.519   6.429   1.294  0.2901  2.7205  0.9248
19800TIP3   OH280814   2.327   1.980   5.097  0.3099 -0.6858 -0.1082
19800TIP3    H180815   2.354   1.984   5.189 -1.2004 -2.0494  0.4317
19800TIP3    H280816   2.401   1.939   5.053  0.0780 -2.3177  0.9505
19801TIP3   OH280817   4.822   5.691  14.818 -0.2956  0.4072  0.7581
19801TIP3    H180818   4.846   5.639  14.741 -0.0323  0.7578  0.6013
19801TIP3    H280819   4.731   5.666  14.836  0.3782 -1.4785  1.8053
19802TIP3   OH280820   3.584   4.259   5.563  0.3262 -0.0246 -0.1301
19802TIP3    H180821   3.521   4.198   5.524  1.9121 -2.2582  0.5998
19802TIP3    H280822   3.563   4.259   5.657  1.6548 -1.2142  0.2082
19803TIP3   OH280823   1.499   4.593   2.011  0.2861 -0.8067  0.3246
19803TIP3    H180824   1.503   4.529   1.940  0.4764 -0.4971  0.0555
19803TIP3    H280825   1.470   4.674   1.970  0.2181 -0.6709  0.6322
19804TIP3   OH280826   2.761   3.772  12.478  0.3655 -0.6745 -0.0048
19804TIP3    H180827   2.846   3.736  12.504  0.1343 -1.5355 -0.4267
19804TIP3    H280828   2.697   3.728  12.534  0.3371  1.5352  1.8566
19805TIP3   OH280829   6.196   2.795   3.510  0.4014 -0.4375 -0.5477
19805TIP3    H180830   6.124   2.819   3.568  1.6212 -1.1226  1.3604
19805TIP3    H280831   6.213   2.874   3.459  0.6620  0.9816  1.5873
19806TIP3   OH280832   1.896   5.549  14.377  0.1972 -0.5227  0.4117
19806TIP3    H180833   1.923   5.515  14.292 -0.5533 -1.7367  0.6183
19806TIP3    H280834   1.803   5.567  14.367  0.5698  1.4928  0.3371
19807TIP3   OH280835   1.761   5.454   1.740 -0.1487 -0.0881 -0.4577
19807TIP3    H180836   1.810   5.496   1.810  0.1144 -1.0550 -0.0480
19807TIP3    H280837   1.673   5.490   1.747  0.4321  1.6224 -1.1551
19808TIP3   OH280838   3.284   5.543  16.095  0.0316  0.0159 -0.0199
19808TIP3    H180839   3.299   5.613  16.159 -0.3195 -0.4114  0.5387
19808TIP3    H280840   3.290   5.463  16.146  0.6265 -0.3772 -0.6982
19809TIP3   OH280841   3.898   5.040  11.138 -0.0245  0.1719 -0.4626
19809TIP3    H180842   3.952   5.118  11.146  1.8529 -0.8619 -2.1348
19809TIP3    H280843   3.824   5.067  11.084 -0.2627  1.1439  0.3081
19810TIP3   OH280844   4.150   1.042   1.787 -0.2766 -0.4182  0.6508
19810TIP3    H180845   4.057   1.042   1.807 -0.5696  1.7587 -0.4754
19810TIP3    H280846   4.155   1.015   1.695 -0.2035  2.9877 -0.4664
19811TIP3   OH280847   0.664   1.658   5.815  0.3679  0.4510  0.0074
19811TIP3    H180848   0.668   1.584   5.876  0.7253 -0.5542 -1.1840
19811TIP3    H280849   0.746   1.654   5.766  0.6040  1.9417  0.2415
19812TIP3   OH280850   1.682   1.252   0.368  0.0701  0.6182  0.0453
19812TIP3    H180851   1.775   1.231   0.360  0.7341  3.1906  0.1809
19812TIP3    H280852   1.651   1.199   0.441  0.9988 -1.4440 -0.9798
19813TIP3   OH280853   0.089   6.782   2.347 -0.4806  0.1916 -0.3016
19813TIP3    H180854   0.048   6.707   2.390  0.4306 -1.0850 -1.5274
19813TIP3    H280855   0.177   6.786   2.384 -0.7970  1.2350  0.3859
19814TIP3   OH280856   2.432   0.189  15.036  0.2241 -0.6447  0.4507
19814TIP3    H180857   2.343   0.159  15.058  0.2272 -1.5950 -0.7547
19814TIP3    H280858   2.423   0.284  15.026 -0.6276 -0.7135  0.4722
19815TIP3   OH280859   1.625   6.233   5.326 -0.0413  0.5809  0.2631
19815TIP3    H180860   1.674   6.302   5.371 -0.2420  0.2056  1.0728
19815TIP3    H280861   1.534   6.262   5.329  0.1432  1.4897 -1.6249
19816TIP3   OH280862   6.689   4.761   5.308  0.1586  0.0135  0.6469
19816TIP3    H180863   6.629   4.829   5.279  0.4138 -0.5690 -1.4216
19816TIP3    H280864   6.633   4.690   5.339 -0.2766 -0.4113 -1.0058
19817TIP3   OH280865   5.127   0.268  15.088  0.4517 -0.6121 -0.0899
19817TIP3    H180866   5.133   0.243  14.996 -1.9315 -0.8850 -0.2405
19817TIP3    H280867   5.080   0.196  15.130 -1.0057  0.7297  0.7221
19818TIP3   OH280868   6.034   3.003   4.131 -0.0701 -0.2390  0.5579
19818TIP3    H180869   5.989   3.045   4.058 -1.3844  0.5482  1.7606
19818TIP3    H280870   6.127   3.010   4.109 -0.2425  2.7371  0.3358
19819TIP3   OH280871   6.745   2.179   6.266 -0.3115  0.6975 -0.4349
19819TIP3    H180872   6.813   2.238   6.298  0.3836 -0.1660 -0.2878
19819TIP3    H280873   6.682   2.237   6.223  1.0307  1.4146 -1.5240
19820TIP3   OH280874   6.325   1.346   1.580  0.1573 -0.0988 -0.7370
19820TIP3    H180875   6.242   1.363   1.625  1.2617  0.7744  1.1040
19820TIP3    H280876   6.346   1.255   1.601 -0.8155 -0.6734 -2.1115
19821TIP3   OH280877   0.467   2.930  16.567  0.6899  0.0670 -0.1682
19821TIP3    H180878   0.388   2.973  16.599  0.0295 -1.0842 -0.2302
19821TIP3    H280879   0.471   2.955  16.474  0.7244  0.6034 -0.0250
19822TIP3   OH280880   4.528   0.807  12.778 -0.0547  0.0572 -0.0466
19822TIP3    H180881   4.609   0.832  12.733 -1.6686  2.1604 -2.0223
19822TIP3    H280882   4.475   0.886  12.777 -2.3371 -1.3699  0.8239
19823TIP3   OH280883   4.377   5.215   4.821 -0.3506  0.1674 -0.2907
19823TIP3    H180884   4.354   5.197   4.912  2.4486  1.5754  0.8420
19823TIP3    H280885   4.436   5.143   4.796  0.2004  0.6365 -0.3810
19824TIP3   OH280886   1.372   3.410   0.670  0.9161  0.8827  0.0191
19824TIP3    H180887   1.414   3.350   0.610 -0.8785  1.3628 -1.8254
19824TIP3    H280888   1.407   3.496   0.647 -0.3835  1.1811 -1.0051
19825TIP3   OH280889   6.002   0.520  17.111 -0.0931  0.1587 -0.3081
19825TIP3    H180890   6.051   0.560  17.183 -1.3068  1.6875 -0.2650
19825TIP3    H280891   5.919   0.493  17.152 -1.9077  3.3668 -1.4885
19826TIP3   OH280892   4.401   6.284   6.386 -0.0192 -0.2273 -0.2454
19826TIP3    H180893   4.471   6.349   6.384  0.4564 -0.7306 -0.3883
19826TIP3    H280894   4.343   6.313   6.455  0.7731 -0.2374  0.4477
19827TIP3   OH280895   6.258   4.793  17.123 -0.0493  0.5602 -0.2533
19827TIP3    H180896   6.253   4.855  17.196 -1.1336  1.6963 -1.2458
19827TIP3    H280897   6.350   4.767  17.120  0.0486  0.6567  1.3706
19828TIP3   OH280898   1.964   6.427   4.266  0.1698 -0.2099  0.1069
19828TIP3    H180899   1.881   6.466   4.292  0.6635  0.9872 -0.0037
19828TIP3    H280900   2.030   6.489   4.298  0.8277  2.0565 -4.6955
19829TIP3   OH280901   4.150   2.120  12.767 -0.2313 -0.3709 -0.0554
19829TIP3    H180902   4.056   2.099  12.762 -0.3657 -0.3081  1.6469
19829TIP3    H280903   4.153   2.216  12.762 -0.1923 -0.4003 -0.7181
19830TIP3   OH280904   3.668   0.349   5.834  0.6100  0.5908 -0.6040
19830TIP3    H180905   3.618   0.399   5.898  2.0072  0.3752  0.7151
19830TIP3    H280906   3.603   0.298   5.787 -0.6549  2.2816 -0.7693
19831TIP3   OH280907   4.856   3.357   2.246  0.1296 -0.5323 -0.0060
19831TIP3    H180908   4.778   3.385   2.198 -0.2783  1.1817  1.5417
19831TIP3    H280909   4.865   3.264   2.225 -1.3468 -0.3781 -1.5367
19832TIP3   OH280910   2.438   1.013   0.259 -0.1421  0.4354 -0.2447
19832TIP3    H180911   2.473   0.950   0.196 -2.3180 -1.4760  0.3587
19832TIP3    H280912   2.453   0.973   0.344 -0.6740  1.2087  0.2266
19833TIP3   OH280913   6.403   2.141  10.947 -0.3083 -0.2049  0.4717
19833TIP3    H180914   6.402   2.175  11.037 -0.5629 -1.8294  1.1244
19833TIP3    H280915   6.422   2.047  10.957 -0.6380 -0.4771 -1.1571
19834TIP3   OH280916   2.806   2.196   5.360  0.2100 -0.0128  0.7379
19834TIP3    H180917   2.832   2.108   5.331 -0.3097  0.2846 -0.6930
19834TIP3    H280918   2.763   2.181   5.444 -2.5045 -1.5421 -0.7764
19835TIP3   OH280919   1.091   6.503   5.410  0.3688  0.3475  0.0032
19835TIP3    H180920   1.042   6.585   5.411 -0.5872 -0.1976 -0.6265
19835TIP3    H280921   1.144   6.508   5.330 -3.2898 -1.6068 -2.8870
19836TIP3   OH280922   1.629   2.207   2.866 -0.8744 -0.2282  0.0161
19836TIP3    H180923   1.563   2.142   2.892 -0.5122 -0.8254 -0.5290
19836TIP3    H280924   1.666   2.238   2.949  0.7034 -2.5663  0.2894
19837TIP3   OH280925   0.198   0.795   6.111  0.1106  0.1745  0.4089
19837TIP3    H180926   0.291   0.816   6.111  0.8950 -2.9445  0.6607
19837TIP3    H280927   0.178   0.771   6.201 -1.0794  1.1929  0.4458
19838TIP3   OH280928   4.800   0.424  11.857 -0.3760  0.2505  0.3736
19838TIP3    H180929   4.722   0.428  11.912 -0.7027 -0.6221 -0.0109
19838TIP3    H280930   4.780   0.483  11.784 -0.5222  0.3179  0.4662
19839TIP3   OH280931   1.296   3.039   5.304  0.6238 -0.1243 -0.5689
19839TIP3    H180932   1.262   2.978   5.238 -1.4041 -0.5294  0.7596
19839TIP3    H280933   1.224   3.100   5.319  0.4419 -0.8862  2.2458
19840TIP3   OH280934   3.207   6.601  16.855  0.1409  0.2820  0.2394
19840TIP3    H180935   3.222   6.676  16.797  1.4029  0.2010  0.4440
19840TIP3    H280936   3.170   6.639  16.934 -0.6403  0.5056 -0.2151
19841TIP3   OH280937   3.585   0.903  16.426 -0.3664  0.4689  0.5327
19841TIP3    H180938   3.586   0.965  16.499 -0.5238  1.3742 -0.2108
19841TIP3    H280939   3.500   0.917  16.384 -1.2220 -1.6307  1.4663
19842TIP3   OH280940   2.809   5.018   5.411 -0.4321  0.0494 -0.1265
19842TIP3    H180941   2.722   4.979   5.398 -0.1476 -0.5410 -0.2835
19842TIP3    H280942   2.791   5.109   5.435 -1.1274 -0.2801  0.6458
19843TIP3   OH280943   5.585   5.092  15.793  0.0501  0.2161  0.2359
19843TIP3    H180944   5.667   5.104  15.745 -1.2386  1.2537 -1.8559
19843TIP3    H280945   5.589   5.157  15.863  1.2960 -0.2322  0.6058
19844TIP3   OH280946   3.368   3.373  14.790 -0.9229  0.3372 -0.3063
19844TIP3    H180947   3.388   3.285  14.759  0.3736 -0.1307  1.7052
19844TIP3    H280948   3.296   3.361  14.852 -2.0854  0.9883 -1.4816
19845TIP3   OH280949   0.855   3.690   0.311 -0.5420  0.6366  0.1586
19845TIP3    H180950   0.823   3.689   0.220 -0.0964 -0.1946  0.0087
19845TIP3    H280951   0.944   3.723   0.304  0.5849 -2.2433 -0.0898
19846TIP3   OH280952   6.544   5.146   3.207 -0.6278 -0.1269 -0.1485
19846TIP3    H180953   6.511   5.124   3.120  1.7809  1.3615 -1.5593
19846TIP3    H280954   6.478   5.204   3.244 -0.4440  1.5134 -2.2012
19847TIP3   OH280955   2.955   1.070   3.678  0.7342  0.0867 -0.6000
19847TIP3    H180956   2.985   1.099   3.764 -0.0153 -2.5680  0.6658
19847TIP3    H280957   3.029   1.021   3.641  1.2508  1.6661 -1.7774
19848TIP3   OH280958   4.900   6.415   5.375 -0.2604 -0.0509  0.2785
19848TIP3    H180959   4.957   6.479   5.332 -1.9892  1.3944  0.0406
19848TIP3    H280960   4.920   6.332   5.331  0.4607  0.7378 -0.9343
19849TIP3   OH280961   3.481   3.056  14.407 -0.1843  0.3156 -0.2630
19849TIP3    H180962   3.417   3.091  14.344 -0.2555  1.0112  0.1804
19849TIP3    H280963   3.475   2.961  14.397  0.5338  0.4126 -2.0275
19850TIP3   OH280964   3.698   3.656  15.985 -0.5507  0.2785 -0.0157
19850TIP3    H180965   3.677   3.741  16.024 -2.5025  1.2243 -2.8150
19850TIP3    H280966   3.739   3.677  15.901  1.1364 -1.6267  0.2318
19851TIP3   OH280967   1.070   3.912  13.657  0.1980 -0.3104  0.1403
19851TIP3    H180968   0.990   3.943  13.613  0.1949 -0.9255 -0.2958
19851TIP3    H280969   1.135   3.980  13.638  0.1686 -0.5170 -0.7466
19852TIP3   OH280970   4.380   5.297   5.673 -0.9314 -0.1538  0.1827
19852TIP3    H180971   4.402   5.265   5.761  0.6186  0.1942 -0.0406
19852TIP3    H280972   4.407   5.389   5.674 -2.1275  0.2093 -0.2627
19853TIP3   OH280973   3.880   6.608   3.801  0.6050  0.1158 -0.4021
19853TIP3    H180974   3.933   6.653   3.735  2.7009 -0.1811  0.9723
19853TIP3    H280975   3.900   6.516   3.788  1.3966  0.0786  0.8629
19854TIP3   OH280976   1.029   5.789   1.676 -0.1711  0.8967  0.0572
19854TIP3    H180977   0.996   5.806   1.765 -0.7670 -0.2128  0.0633
19854TIP3    H280978   0.955   5.812   1.619 -0.0599  0.8460 -0.1058
19855TIP3   OH280979   6.061   0.865   1.325  0.6099  0.4702 -0.2040
19855TIP3    H180980   6.043   0.826   1.410 -2.2439  3.5480  0.7929
19855TIP3    H280981   6.014   0.810   1.262  0.0062  0.0413  0.6105
19856TIP3   OH280982   4.677   0.073   2.163  0.2316 -0.3295 -0.1036
19856TIP3    H180983   4.754   0.104   2.211 -0.0563 -0.4742  0.4632
19856TIP3    H280984   4.607   0.134   2.188  0.0678 -0.4379 -0.2981
19857TIP3   OH280985   2.038   2.412  12.990 -0.7113 -0.2663  0.5245
19857TIP3    H180986   2.067   2.445  12.904  0.7844 -2.9610 -0.1015
19857TIP3    H280987   1.950   2.449  13.000 -0.0991  1.9195 -1.1119
19858TIP3   OH280988   0.802   2.388  10.669  0.1660  0.5062 -0.2432
19858TIP3    H180989   0.896   2.388  10.651  0.4118 -0.1543  0.9065
19858TIP3    H280990   0.783   2.297  10.695 -0.9211  0.4808 -1.0643
19859TIP3   OH280991   6.731   2.186   1.020 -0.1577 -0.1013  0.7216
19859TIP3    H180992   6.807   2.232   1.056 -0.3572  0.9009 -0.1100
19859TIP3    H280993   6.678   2.254   0.979 -0.4869 -1.0596 -0.5022
19860TIP3   OH280994   5.566   1.718   4.035  0.5309  0.3961 -0.2228
19860TIP3    H180995   5.587   1.809   4.054  0.1334  0.1324  1.5793
19860TIP3    H280996   5.523   1.685   4.113  1.6433 -1.6615 -0.3899
19861TIP3   OH280997   4.672   0.787   3.260 -0.1100  0.1198  0.2236
19861TIP3    H180998   4.679   0.761   3.168  1.5412  1.9237 -0.2440
19861TIP3    H280999   4.744   0.741   3.303  2.1173  2.7034 -0.3967
19862TIP3   OH281000   1.512   5.286   0.192  0.3558 -0.3368  0.6443
19862TIP3    H181001   1.524   5.280   0.097 -0.7056 -0.3355  0.4987
19862TIP3    H281002   1.507   5.194   0.220 -0.4075 -0.3353  0.5404
19863TIP3   OH281003   1.504   3.694   2.074 -0.1934 -0.0226 -0.1907
19863TIP3    H181004   1.415   3.679   2.041  0.1623  0.8626 -1.6226
19863TIP3    H281005   1.491   3.745   2.154 -1.0120 -0.9040  0.2597
19864TIP3   OH281006   6.020   1.215   0.030 -0.0992  0.1852 -0.4598
19864TIP3    H181007   6.054   1.303   0.048 -0.4672  0.8413 -2.6103
19864TIP3    H281008   5.988   1.220  -0.060 -3.2790 -1.1804  0.4415
19865TIP3   OH281009   5.796   5.805  17.163 -0.4052 -0.5052  0.3044
19865TIP3    H181010   5.875   5.809  17.108  0.5397 -1.0078  1.5778
19865TIP3    H281011   5.781   5.896  17.189  0.0902 -0.4834  0.5223
19866TIP3   OH281012   4.504   3.887  16.885  0.4815  0.2191 -0.2605
19866TIP3    H181013   4.504   3.836  16.966 -1.5700  1.0349  0.3263
19866TIP3    H281014   4.531   3.975  16.912 -0.0751  0.4596 -0.4695
19867TIP3   OH281015   2.368   1.859  16.629 -0.6698  0.4482  0.0174
19867TIP3    H181016   2.358   1.948  16.598  0.0850 -0.1340 -2.0181
19867TIP3    H281017   2.298   1.849  16.695 -1.4867  2.1555 -0.5237
19868TIP3   OH281018   0.250   3.577   0.778  0.4397 -0.1271 -0.1246
19868TIP3    H181019   0.180   3.591   0.715 -0.9335 -0.5149  1.2395
19868TIP3    H281020   0.300   3.503   0.743  1.4666  1.3934 -2.1214
19869TIP3   OH281021   3.453   1.934  16.994 -0.3054 -0.2932 -0.0302
19869TIP3    H181022   3.373   1.882  16.981 -0.2039 -0.7396  1.0274
19869TIP3    H281023   3.474   1.923  17.087  0.8534  0.0204 -0.2383
19870TIP3   OH281024   5.639   1.858  12.414  0.6713 -0.1270  0.3090
19870TIP3    H181025   5.598   1.814  12.488  2.2389 -0.5526  0.9536
19870TIP3    H281026   5.574   1.851  12.343 -0.8952  0.3805  1.6304
19871TIP3   OH281027   0.560   2.605  13.809  0.2651  0.1193  0.3302
19871TIP3    H181028   0.550   2.615  13.714  1.6045  3.0845  0.3767
19871TIP3    H281029   0.599   2.688  13.837 -0.6622 -0.4118  3.5735
19872TIP3   OH281030   6.035   0.458   2.975 -0.3663  0.5918 -0.2896
19872TIP3    H181031   5.942   0.438   2.983 -0.2369  0.4926  1.0826
19872TIP3    H281032   6.042   0.551   2.998 -0.1378  0.6516 -0.5809
19873TIP3   OH281033   1.898   5.583   1.954 -0.2074 -0.3440 -0.0916
19873TIP3    H181034   1.950   5.662   1.943 -0.0247 -0.5465 -0.7347
19873TIP3    H281035   1.810   5.615   1.977  0.3720 -0.0204  1.8828
19874TIP3   OH281036   5.368   6.388  10.955  0.2150 -0.1147 -0.2548
19874TIP3    H181037   5.385   6.480  10.974 -0.0480 -0.0004 -0.5602
19874TIP3    H281038   5.450   6.355  10.919  0.5567 -0.2039  0.5919
19875TIP3   OH281039   0.352   0.401   1.425 -0.0282  0.2913 -0.2479
19875TIP3    H181040   0.405   0.469   1.465  2.1787  0.3734 -3.0707
19875TIP3    H281041   0.415   0.343   1.382 -2.0869 -0.8527 -1.9241
19876TIP3   OH281042   1.709   3.038  12.916  0.2130  0.3179 -0.0957
19876TIP3    H181043   1.761   3.046  12.836  1.3022 -0.5175  0.4995
19876TIP3    H281044   1.762   2.984  12.974 -0.4143  1.1788  1.3303
19877TIP3   OH281045   4.222   6.186   0.263 -0.3038  0.5049 -0.0360
19877TIP3    H181046   4.304   6.203   0.217 -1.0597  0.3424 -1.4849
19877TIP3    H281047   4.206   6.093   0.248 -0.0562  0.2012  1.4368
19878TIP3   OH281048   1.690   2.089  14.162  0.2001  0.5350  0.1088
19878TIP3    H181049   1.757   2.089  14.094 -0.0057  1.1101 -0.1020
19878TIP3    H281050   1.627   2.156  14.133  0.0144  0.6500  0.7685
19879TIP3   OH281051   6.178   4.069   0.786 -0.4428 -0.4556 -0.2304
19879TIP3    H181052   6.242   4.066   0.715  0.0016 -0.3270  0.1602
19879TIP3    H281053   6.230   4.084   0.865 -1.1043  1.3876 -0.1087
19880TIP3   OH281054   5.784   4.646  11.972 -0.3570 -0.2317  0.3696
19880TIP3    H181055   5.711   4.707  11.962  0.9321  1.2024 -0.8788
19880TIP3    H281056   5.815   4.633  11.882  1.4584 -0.1026  0.9542
19881TIP3   OH281057   4.228   5.669   2.176  0.1464  0.4799  0.2763
19881TIP3    H181058   4.165   5.693   2.243  1.1297  0.4850  1.2195
19881TIP3    H281059   4.290   5.743   2.174  0.2328  0.3935 -0.5016
19882TIP3   OH281060   0.299   5.389   2.282 -0.1934 -0.0881 -0.4977
19882TIP3    H181061   0.389   5.384   2.251  0.0441 -1.4405  0.3388
19882TIP3    H281062   0.245   5.376   2.203  0.2581  2.5313 -1.3298
19883TIP3   OH281063   4.447   4.831  12.269  0.5212 -0.0049 -0.2120
19883TIP3    H181064   4.505   4.855  12.341 -0.1311 -1.4383  0.8431
19883TIP3    H281065   4.432   4.737  12.281 -1.3480  0.1655 -0.9291
19884TIP3   OH281066   1.169   0.188   3.771  0.2125  0.3538  0.0872
19884TIP3    H181067   1.201   0.142   3.849  0.7288 -0.9581 -0.8674
19884TIP3    H281068   1.109   0.254   3.805  0.9358  0.2505  1.6465
19885TIP3   OH281069   3.006   0.740  10.838 -0.2362  0.4343 -0.0809
19885TIP3    H181070   3.013   0.653  10.877 -0.4308  0.6362  0.4098
19885TIP3    H281071   2.923   0.739  10.791 -0.8622  0.7715  0.9916
19886TIP3   OH281072   2.881   2.917  14.184  0.2235  0.1252  0.3276
19886TIP3    H181073   2.892   2.930  14.089  3.4148  0.8905  0.6857
19886TIP3    H281074   2.786   2.927  14.198 -0.2609  0.8911 -2.6421
19887TIP3   OH281075   5.186   0.813  12.923 -0.2326  0.2370  0.2681
19887TIP3    H181076   5.201   0.896  12.879 -0.0753  0.1575  0.1707
19887TIP3    H281077   5.268   0.794  12.969 -0.1904  0.0246  0.1056
19888TIP3   OH281078   4.082   3.036   1.232 -0.7676 -0.0667 -0.5073
19888TIP3    H181079   4.028   3.085   1.294  0.2792  1.8167 -0.9887
19888TIP3    H281080   4.037   3.046   1.148 -0.9170 -0.5488 -0.4879
19889TIP3   OH281081   0.311   4.897  11.021  0.2000 -0.0611  0.3187
19889TIP3    H181082   0.294   4.804  11.036 -0.1618 -0.2316 -1.0102
19889TIP3    H281083   0.280   4.913  10.931  2.2719  0.8353 -0.2916
19890TIP3   OH281084   3.612   3.111   2.456 -0.1573 -0.6426  0.3585
19890TIP3    H181085   3.529   3.100   2.410  0.6617 -0.7208 -1.1707
19890TIP3    H281086   3.610   3.202   2.488 -1.0625 -0.8275  0.8585
19891TIP3   OH281087   3.310   3.906  15.951  0.5117  0.1419  0.7180
19891TIP3    H181088   3.243   3.848  15.988  1.8728 -1.0388  1.4593
19891TIP3    H281089   3.332   3.866  15.867  0.5999  0.2628  0.6836
19892TIP3   OH281090   2.897   5.177  12.889  0.0051  0.4270  0.5247
19892TIP3    H181091   2.894   5.184  12.984  1.3041 -2.0168  0.8156
19892TIP3    H281092   2.976   5.125  12.871 -2.0067 -2.1568 -1.6508
19893TIP3   OH281093   4.906   1.413  16.158 -0.4895 -0.3073 -1.0138
19893TIP3    H181094   4.878   1.403  16.068  1.8634 -0.0039 -1.8558
19893TIP3    H281095   4.926   1.506  16.167  1.3021 -0.6598 -0.8890
19894TIP3   OH281096   4.884   4.982   5.213  0.2857  0.0533 -0.6351
19894TIP3    H181097   4.801   5.016   5.247 -0.3306 -2.2503  0.4026
19894TIP3    H281098   4.917   5.051   5.157 -2.6378  0.8370 -1.5842
19895TIP3   OH281099   1.257   5.210   4.146 -0.0993  0.5254 -0.8257
19895TIP3    H181100   1.220   5.208   4.058  1.6531 -0.6497 -1.6200
19895TIP3    H281101   1.188   5.176   4.203 -0.9159  0.3278 -1.9114
19896TIP3   OH281102   4.829   5.379   4.678  0.8878  0.2172  0.1956
19896TIP3    H181103   4.763   5.313   4.699  1.6278 -0.6890 -0.2522
19896TIP3    H281104   4.818   5.395   4.584  0.4159  1.0688  0.3919
19897TIP3   OH281105   5.806   6.225   1.252  0.3307  0.0816  0.5718
19897TIP3    H181106   5.716   6.255   1.270 -0.1386 -0.5983 -0.5498
19897TIP3    H281107   5.840   6.289   1.190  0.7049  0.4507  1.1490
19898TIP3   OH281108   1.086   0.378  13.671  0.4214  0.4303  0.0778
19898TIP3    H181109   1.159   0.333  13.714  0.3009 -1.1322 -1.2129
19898TIP3    H281110   1.037   0.420  13.742  2.5059  1.4644  0.9838
19899TIP3   OH281111   5.383   2.280  15.952  0.0618  0.6140 -0.1252
19899TIP3    H181112   5.461   2.332  15.971 -0.5681  1.3102  0.6686
19899TIP3    H281113   5.368   2.291  15.858  0.8413  0.5741 -0.2581
19900TIP3   OH281114   4.285   0.439   3.911 -0.3293  0.4732 -0.4676
19900TIP3    H181115   4.205   0.488   3.929 -1.7639 -1.5362 -1.0165
19900TIP3    H281116   4.300   0.385   3.988 -1.4758 -1.6211 -1.6169
19901TIP3   OH281117   6.211   6.757   2.544 -0.1528 -0.0431  0.3468
19901TIP3    H181118   6.116   6.743   2.539 -0.0825 -2.3336  3.0635
19901TIP3    H281119   6.226   6.836   2.492 -3.4557  0.0918 -0.6382
19902TIP3   OH281120   4.693   3.582   3.233  0.2907 -0.0683 -0.2936
19902TIP3    H181121   4.784   3.591   3.203  0.1755  0.9123 -0.3679
19902TIP3    H281122   4.669   3.492   3.208  0.8077  0.0927 -1.4756
19903TIP3   OH281123   3.943   6.315   1.713 -0.2309 -0.7428 -0.3573
19903TIP3    H181124   3.982   6.264   1.642  0.0956 -2.4439  0.9900
19903TIP3    H281125   3.854   6.333   1.684 -0.7175 -3.0481 -0.4317
19904TIP3   OH281126   4.003   0.349   3.187 -0.6322  0.2844  0.2097
19904TIP3    H181127   3.950   0.343   3.267 -0.6056 -0.6065  0.1733
19904TIP3    H281128   3.981   0.270   3.138 -0.1690  0.5078 -0.3704
19905TIP3   OH281129   0.549   4.729   2.315  0.0861 -0.7952 -0.3027
19905TIP3    H181130   0.525   4.732   2.407  2.6703 -1.2117  0.4829
19905TIP3    H281131   0.589   4.814   2.297  2.6643 -1.8433  0.0023
19906TIP3   OH281132   2.226   2.411  10.700 -0.0825  0.1916  0.0216
19906TIP3    H181133   2.187   2.434  10.615  0.0396 -1.6063 -0.5578
19906TIP3    H281134   2.189   2.325  10.720  1.1998 -0.1571  0.9735
19907TIP3   OH281135   4.009   5.800   2.305  0.4857 -0.1676 -0.7010
19907TIP3    H181136   4.052   5.829   2.385  1.0227  0.0323 -1.0525
19907TIP3    H281137   3.996   5.880   2.254  0.3468 -0.3197 -0.9083
19908TIP3   OH281138   4.572   4.322   1.551 -0.3788 -0.0558  0.1059
19908TIP3    H181139   4.599   4.314   1.460 -2.2634  1.9981 -0.7431
19908TIP3    H281140   4.625   4.393   1.586  0.6694 -1.1413  0.8109
19909TIP3   OH281141   1.247   1.539  17.022  0.0004  1.0848 -0.1292
19909TIP3    H181142   1.195   1.566  17.098 -0.6278 -0.8594  0.2029
19909TIP3    H281143   1.336   1.533  17.055 -0.4822 -1.2437  0.9615
19910TIP3   OH281144   5.106   3.360  12.390  0.4581  0.2918 -0.6957
19910TIP3    H181145   5.132   3.326  12.304  2.5743 -0.6240  0.2431
19910TIP3    H281146   5.090   3.281  12.442  1.5218  0.7852  0.4044
19911TIP3   OH281147   4.416   3.752  14.818 -0.1986  0.4969 -0.6715
19911TIP3    H181148   4.424   3.706  14.734 -1.5699 -0.0778 -0.5044
19911TIP3    H281149   4.493   3.809  14.820 -1.1657  2.0926 -3.2519
19912TIP3   OH281150   2.192   2.682  15.930  0.2438  0.3023 -0.0848
19912TIP3    H181151   2.120   2.622  15.914  0.6678 -0.3333  0.3689
19912TIP3    H281152   2.253   2.666  15.859  2.0308 -2.3756  1.8777
19913TIP3   OH281153   1.879   1.294  13.985  0.1582 -0.2907  0.0272
19913TIP3    H181154   1.824   1.268  14.059 -0.1993 -0.7939 -0.4082
19913TIP3    H281155   1.856   1.385  13.968 -1.2595 -0.7730 -0.7673
19914TIP3   OH281156   3.659   0.870  14.208  0.0873 -0.1759  0.6363
19914TIP3    H181157   3.747   0.896  14.183 -0.1424 -1.6344 -2.1820
19914TIP3    H281158   3.622   0.831  14.128 -2.7302 -0.5944  2.0013
19915TIP3   OH281159   4.915   3.385   6.448  0.0581 -0.2828  0.0233
19915TIP3    H181160   4.876   3.345   6.370 -1.4370  0.0772  0.5373
19915TIP3    H281161   4.948   3.310   6.499  0.4424 -0.5701 -0.6472
19916TIP3   OH281162   2.116   6.140   1.266 -0.5114  0.0181 -0.5091
19916TIP3    H181163   2.151   6.143   1.176  2.1968 -0.0122  0.4411
19916TIP3    H281164   2.100   6.048   1.283 -0.3633 -0.0533 -0.7507
19917TIP3   OH281165   2.509   2.046  12.711 -0.0768  0.0222  0.9284
19917TIP3    H181166   2.424   2.070  12.673  0.4467 -1.4923 -1.4052
19917TIP3    H281167   2.553   2.129  12.727 -0.9046  0.7796 -0.5656
19918TIP3   OH281168   4.744   1.086  13.111 -0.7345  0.2402  0.9021
19918TIP3    H181169   4.652   1.061  13.122 -0.6852  0.2815  1.4018
19918TIP3    H281170   4.791   1.003  13.105 -0.7530  0.2167  1.0761
19919TIP3   OH281171   6.607   3.891  12.561  0.4384  0.1302  0.5935
19919TIP3    H181172   6.594   3.936  12.645 -0.1403 -1.3711  1.3482
19919TIP3    H281173   6.554   3.812  12.568 -1.2355  0.8913 -1.9707
19920TIP3   OH281174   1.778   1.974  11.224  0.3524 -0.2539 -0.2938
19920TIP3    H181175   1.857   1.960  11.276  0.4978 -2.4507 -1.0064
19920TIP3    H281176   1.810   2.008  11.140  0.8050 -2.6040 -1.1699
19921TIP3   OH281177   0.026   6.490  11.133 -0.2674  0.4588  0.1767
19921TIP3    H181178  -0.047   6.480  11.194 -1.4354  1.7904 -0.9363
19921TIP3    H281179   0.030   6.584  11.115  3.0651  0.7656  1.7622
19922TIP3   OH281180   2.932   0.784   0.366 -0.3613  0.5304  0.5951
19922TIP3    H181181   2.836   0.789   0.370 -0.4346  0.0236 -0.1512
19922TIP3    H281182   2.960   0.779   0.457 -0.9680  1.7709  0.8688
19923TIP3   OH281183   2.207   1.846  15.610 -0.5636 -0.1151  0.2731
19923TIP3    H181184   2.169   1.827  15.524 -1.0151 -0.1695  0.4803
19923TIP3    H281185   2.288   1.893  15.591 -1.0822  0.6204 -0.1675
19924TIP3   OH281186   5.691   0.071   3.980  0.7729  0.3828 -0.1638
19924TIP3    H181187   5.628   0.109   3.920  0.8262 -0.1230 -0.5468
19924TIP3    H281188   5.767   0.050   3.926  2.1466  2.8984  0.6335
19925TIP3   OH281189   2.547   1.814  12.086  0.2909  0.5511 -0.2191
19925TIP3    H181190   2.640   1.824  12.104  0.5607 -0.1497 -1.1306
19925TIP3    H281191   2.516   1.903  12.070  0.5164  0.9369  1.3175
19926TIP3   OH281192   2.634   1.894  17.113  0.2717 -0.0228  0.6948
19926TIP3    H181193   2.673   1.824  17.166  1.2337 -1.1381 -1.3335
19926TIP3    H281194   2.548   1.908  17.150  0.6562 -1.2154  2.1229
19927TIP3   OH281195   2.353   0.894  10.845  0.4719  0.0987 -0.1021
19927TIP3    H181196   2.270   0.888  10.798  1.1982 -0.5808 -1.3561
19927TIP3    H281197   2.391   0.807  10.838 -0.4585 -0.8189  3.9177
19928TIP3   OH281198   4.703   1.034  13.738 -0.0584  0.1104 -0.3549
19928TIP3    H181199   4.644   0.981  13.684 -0.7295  0.1666  0.3134
19928TIP3    H281200   4.786   1.033  13.690 -0.1759 -1.1876 -0.5708
19929TIP3   OH281201   5.674   0.243  17.051  0.4197 -0.3569  0.7471
19929TIP3    H181202   5.675   0.310  16.983  0.4579 -0.2904  0.8134
19929TIP3    H281203   5.605   0.271  17.112  0.0699 -0.6597  0.4920
19930TIP3   OH281204   3.908   2.102   4.572 -0.1603  0.0113 -0.1654
19930TIP3    H181205   3.948   2.188   4.579 -2.1074  0.8196  2.2478
19930TIP3    H281206   3.968   2.043   4.618  0.3023  0.3854 -0.2814
19931TIP3   OH281207   4.008   1.948   1.820 -0.1404 -0.1791  0.0028
19931TIP3    H181208   3.947   1.938   1.893  1.0318  2.2469  1.4301
19931TIP3    H281209   4.079   2.001   1.855  0.0555  1.9171 -3.1749
19932TIP3   OH281210   4.597   1.395   6.129  0.1578 -0.1300  0.4201
19932TIP3    H181211   4.504   1.374   6.139 -0.3253  0.9894 -1.2625
19932TIP3    H281212   4.610   1.400   6.034  1.4128  1.8758  0.6432
19933TIP3   OH281213   5.762   4.349  14.711 -0.3898  0.4485  0.1423
19933TIP3    H181214   5.761   4.444  14.717 -0.0757  0.3847  1.3656
19933TIP3    H281215   5.682   4.321  14.756 -0.7719  0.1479 -0.7016
19934TIP3   OH281216   4.886   0.298   0.392 -0.1886 -0.3720  0.2745
19934TIP3    H181217   4.852   0.229   0.335  1.2914 -1.4962  0.6838
19934TIP3    H281218   4.979   0.277   0.402  0.4821  2.0551 -0.1031
19935TIP3   OH281219   3.292   0.341   2.229  0.4787 -0.3518 -0.1930
19935TIP3    H181220   3.369   0.336   2.173 -0.1205 -0.0379 -1.0721
19935TIP3    H281221   3.315   0.404   2.298  2.0222 -2.3407  1.2452
19936TIP3   OH281222   2.766   0.036  13.520 -0.4228 -0.0261  0.4894
19936TIP3    H181223   2.851   0.049  13.563 -0.1100  0.2283 -0.1828
19936TIP3    H281224   2.703   0.037  13.591  0.0492  0.7449  0.9162
19937TIP3   OH281225   3.356   6.752  13.019  0.5483  0.0899 -0.9720
19937TIP3    H181226   3.383   6.789  12.934  0.4838  0.3397 -0.8852
19937TIP3    H281227   3.266   6.780  13.030  0.4248 -0.2881 -1.0063
19938TIP3   OH281228   1.561   5.245  12.439  0.1272  0.2585 -0.6751
19938TIP3    H181229   1.503   5.271  12.368  0.4605  2.5431 -0.1946
19938TIP3    H281230   1.621   5.319  12.450  1.1575 -0.7296  0.8735
19939TIP3   OH281231   0.071   5.899  12.023 -0.1400  0.2032 -0.4624
19939TIP3    H181232   0.040   5.817  12.062 -2.2113  0.9527 -0.4069
19939TIP3    H281233   0.106   5.874  11.938  0.5330 -0.8886  0.1056
19940TIP3   OH281234   1.653   5.102   1.993  0.1248 -0.5718 -0.3887
19940TIP3    H181235   1.695   5.045   2.059 -0.2065  1.0353  1.2843
19940TIP3    H281236   1.725   5.136   1.941  0.4155 -1.6544 -0.7308
19941TIP3   OH281237   4.844   2.030  12.372 -0.1438  0.4398  0.1464
19941TIP3    H181238   4.749   2.020  12.379 -0.0122 -1.1076 -0.0016
19941TIP3    H281239   4.859   2.061  12.283 -0.4319 -0.9090 -0.3989
19942TIP3   OH281240   1.853   3.166  14.772 -0.1244 -0.0793  0.5047
19942TIP3    H181241   1.919   3.111  14.814 -1.0965 -1.6766  0.0134
19942TIP3    H281242   1.817   3.112  14.701 -3.0917  0.0305  1.7421
19943TIP3   OH281243   1.428   1.608  12.776  0.4171  0.3881 -0.1636
19943TIP3    H181244   1.402   1.550  12.848  0.3456  0.8253  0.1657
19943TIP3    H281245   1.451   1.690  12.819 -0.7484  1.0283 -0.7460
19944TIP3   OH281246   2.114   6.557  14.332 -0.4169 -0.0986  0.0751
19944TIP3    H181247   2.146   6.489  14.392  0.8719 -0.2493 -0.7560
19944TIP3    H281248   2.066   6.617  14.389 -2.0688 -1.9508  0.7539
19945TIP3   OH281249   0.575   3.041  17.169  0.0632 -0.0393  0.2178
19945TIP3    H181250   0.587   2.985  17.245 -0.0375  1.4353  1.3799
19945TIP3    H281251   0.626   3.000  17.099  0.5108 -1.1897  1.1991
19946TIP3   OH281252   2.903   1.872   4.220  0.3103 -0.8693 -0.5775
19946TIP3    H181253   2.900   1.864   4.316  1.9229  1.0076 -0.3142
19946TIP3    H281254   2.902   1.781   4.189 -0.4545 -1.5203  1.1898
19947TIP3   OH281255   5.711   0.840  16.390  0.2354 -0.2203 -0.3544
19947TIP3    H181256   5.706   0.906  16.320 -0.0470  0.3551  0.1957
19947TIP3    H281257   5.776   0.777  16.359  0.1995  0.0906 -1.0819
19948TIP3   OH281258   3.894   2.503   2.281  0.4122 -0.2170 -0.0827
19948TIP3    H181259   3.928   2.585   2.244  1.8074  0.9677  3.4595
19948TIP3    H281260   3.941   2.435   2.233 -0.5555  0.9526 -2.9268
19949TIP3   OH281261   2.564   3.810  14.768 -0.0103  0.0500 -0.0832
19949TIP3    H181262   2.498   3.754  14.808  1.3515 -1.7071 -0.1479
19949TIP3    H281263   2.541   3.813  14.675 -1.3889  1.5447  0.2712
19950TIP3   OH281264   2.611   2.157   3.362  0.3789 -0.2204  0.0183
19950TIP3    H181265   2.618   2.181   3.454  0.3241  1.8975 -0.4792
19950TIP3    H281266   2.652   2.230   3.315 -2.1280  0.1697 -1.7528
19951TIP3   OH281267   6.289   5.521   0.201  0.3785  0.3281 -0.4611
19951TIP3    H181268   6.206   5.490   0.167  0.0123  0.2647  0.4575
19951TIP3    H281269   6.307   5.464   0.276  0.8428  0.8622 -0.1548
19952TIP3   OH281270   5.455   0.162  15.054 -0.1876  0.1075 -0.2626
19952TIP3    H181271   5.494   0.245  15.079 -0.8677  0.7403 -1.2250
19952TIP3    H281272   5.403   0.182  14.976  2.2077 -1.8121 -2.5326
19953TIP3   OH281273   0.135   5.435   0.567  0.1675 -0.5525  0.1798
19953TIP3    H181274   0.100   5.503   0.625 -1.1136 -1.5687  0.6556
19953TIP3    H281275   0.225   5.422   0.597 -0.3796 -0.8595  1.7934
19954TIP3   OH281276   3.808   3.479   3.222 -0.0374  0.0779 -0.1423
19954TIP3    H181277   3.862   3.412   3.265 -0.5447  0.3014  0.8877
19954TIP3    H281278   3.834   3.561   3.264  0.2757  0.4841 -1.0990
19955TIP3   OH281279   0.537   0.126  11.039  0.1132 -0.5209  0.9279
19955TIP3    H181280   0.542   0.063  10.967  1.4193 -0.6914  1.1353
19955TIP3    H281281   0.528   0.072  11.118  2.8883 -0.6445  1.2869
19956TIP3   OH281282   0.887   6.162  15.989  0.1525  0.1155  0.5263
19956TIP3    H181283   0.854   6.153  15.900 -2.7913 -0.5971  1.5777
19956TIP3    H281284   0.892   6.072  16.022 -0.3799  0.4678  1.5960
19957TIP3   OH281285   4.886   0.652   6.607 -0.2922 -0.1365  0.4846
19957TIP3    H181286   4.796   0.685   6.603  0.0347  0.6952 -0.5662
19957TIP3    H281287   4.894   0.595   6.531 -0.0268 -0.4909  0.7738
19958TIP3   OH281288   5.123   6.045  14.233  0.1708 -0.6885  0.3782
19958TIP3    H181289   5.194   6.020  14.291  0.9730 -0.9721 -0.6953
19958TIP3    H281290   5.046   6.050  14.289  1.2705  0.9732  1.8310
19959TIP3   OH281291   1.347   2.716  14.484  0.3261  0.1741  0.0814
19959TIP3    H181292   1.266   2.726  14.433  0.9397  0.0327 -0.9553
19959TIP3    H281293   1.417   2.732  14.421  1.1916 -2.6393  0.1917
19960TIP3   OH281294   2.184   5.091   1.840 -0.1728 -0.8206 -0.4479
19960TIP3    H181295   2.199   5.026   1.771  0.9516 -0.1137 -0.8960
19960TIP3    H281296   2.173   5.174   1.794 -0.2314 -0.4693  0.1843
19961TIP3   OH281297   1.170   3.363  12.888 -0.7914 -0.0239  0.3787
19961TIP3    H181298   1.191   3.269  12.884 -0.3978  0.0224  1.1974
19961TIP3    H281299   1.190   3.388  12.978  0.9771  1.2908 -0.3404
19962TIP3   OH281300   4.543   2.689   4.360 -0.1987  0.2503 -0.3333
19962TIP3    H181301   4.582   2.772   4.334 -0.2106 -0.2795 -2.1358
19962TIP3    H281302   4.603   2.654   4.425  1.9580 -0.1619 -2.4469
19963TIP3   OH281303   3.351   0.009   4.594  0.1883 -0.0435  0.2346
19963TIP3    H181304   3.378  -0.002   4.502  2.2863 -1.3103  0.9306
19963TIP3    H281305   3.369   0.100   4.614  0.4549  0.0486 -0.3954
19964TIP3   OH281306   2.726   5.631   5.622  0.5973  0.4774  1.0155
19964TIP3    H181307   2.666   5.576   5.673  0.0498  0.0318 -0.0862
19964TIP3    H281308   2.673   5.706   5.595  0.2176 -0.3801 -0.7710
19965TIP3   OH281309   6.430   4.899   3.415 -0.0266 -0.2822  0.2535
19965TIP3    H181310   6.426   4.804   3.411 -0.4217 -0.3266  1.3721
19965TIP3    H281311   6.508   4.918   3.467  0.8949  0.0649 -1.1739
19966TIP3   OH281312   6.482   3.228  15.465 -0.2624  0.1672 -0.5223
19966TIP3    H181313   6.517   3.263  15.547 -0.4454 -0.8746  0.0143
19966TIP3    H281314   6.442   3.145  15.489 -1.6297  0.5357 -1.4257
19967TIP3   OH281315   3.038   5.726  11.044 -0.4992 -0.2904 -0.3982
19967TIP3    H181316   3.001   5.814  11.047  1.2418  0.5934 -2.2503
19967TIP3    H281317   2.978   5.676  10.988 -0.5061  0.2440 -0.8680
19968TIP3   OH281318   4.443   6.092   0.755  0.5698  0.0712 -0.2605
19968TIP3    H181319   4.423   6.177   0.796  0.6721  0.0081 -0.0788
19968TIP3    H281320   4.358   6.049   0.747  0.4030  0.5776 -1.2212
19969TIP3   OH281321   0.790   4.132   5.250  0.0840  0.6342 -0.4345
19969TIP3    H181322   0.874   4.142   5.205  1.8434 -2.0624  1.8462
19969TIP3    H281323   0.796   4.192   5.325  0.5111 -0.2845  0.2993
19970TIP3   OH281324   5.683   4.346  10.969 -0.0951 -0.0398 -0.0757
19970TIP3    H181325   5.643   4.417  11.019 -0.4722 -1.0125  1.0390
19970TIP3    H281326   5.641   4.350  10.884 -1.2316  0.1281  0.4719
19971TIP3   OH281327   2.118   1.436   5.315  0.3195 -0.2709  0.2485
19971TIP3    H181328   2.196   1.479   5.350  0.6092  0.7559 -1.5286
19971TIP3    H281329   2.071   1.506   5.269 -1.0492 -1.1272  0.3042
19972TIP3   OH281330   1.802   2.006   4.333 -0.1113  0.1153 -0.2394
19972TIP3    H181331   1.760   1.926   4.364  1.4595 -1.2452 -1.4293
19972TIP3    H281332   1.762   2.022   4.247  0.6012 -0.2777 -0.6607
19973TIP3   OH281333   0.468   3.952   0.195  0.3912 -0.5576  0.7451
19973TIP3    H181334   0.527   3.885   0.230  1.7105  0.4585  0.5563
19973TIP3    H281335   0.387   3.941   0.244  0.7894 -1.8675  1.1594
19974LIG     O181336   1.285   5.108  16.844  0.4669 -0.2003  0.0767
19974LIG     O281337   1.464   5.406  16.536  0.6342  0.3833  0.5197
19974LIG     N181338   1.486   5.178  16.494 -0.3067  0.1870  0.6804
19974LIG     N281339   1.321   4.893  16.633  0.0218 -0.3778  0.3178
19974LIG     N381340   1.367   5.257  16.682 -0.1202  0.3319 -0.3392
19974LIG     N481341   1.453   4.935  16.460  0.9407  0.0091  0.3629
19974LIG     C181342   1.358   5.029  16.640 -0.1700  1.0120 -0.2547
19974LIG     C281343   1.437   5.050  16.528  0.1968  0.0215 -0.2119
19974LIG     C381344   1.335   5.124  16.731 -0.1900 -0.4540  0.0391
19974LIG     C481345   1.442   5.286  16.572 -0.3483 -0.4978  0.4059
19974LIG     C581346   1.378   4.844  16.520 -0.0091 -0.3285  0.0910
19974LIG     C681347   1.562   5.204  16.369 -0.0649 -0.0311 -0.2767
19974LIG     C781348   1.230   4.827  16.725  0.6786  0.5864 -0.3051
19974LIG     C881349   1.321   5.366  16.770  0.4556 -0.1936  0.2483
19974LIG     H181350   1.385   4.737  16.500  1.9565 -0.1204 -0.5332
19974LIG     H281351   1.584   5.312  16.350  0.4243  0.4259  2.4975
19974LIG     H381352   1.505   5.166  16.281 -1.2810 -0.1147  0.5346
19974LIG     H481353   1.667   5.167  16.371 -0.8568 -2.6498 -2.0294
19974LIG     H581354   1.148   4.901  16.738 -1.3657 -1.6601  0.1504
19974LIG     H681355   1.265   4.814  16.830 -1.5840  2.1645  0.7350
19974LIG     H781356   1.198   4.728  16.686 -1.0206  0.5884  0.9615
19974LIG     H881357   1.239   5.424  16.723  0.8047 -0.1841 -0.3593
19974LIG     H981358   1.401   5.441  16.792  1.1288 -0.3366 -1.5732
19974LIG    H1081359   1.272   5.332  16.864 -1.0982  1.2289  0.0047
   6.78809   6.78809  17.21556
